********************************************************************************
*                       GENERAL UTILITY LATTICE PROGRAM                        *
*                                 Julian Gale                                  *
*                       Curtin Institute for Computation                       *
*                    School of Molecular and Life Sciences                     *
*                    Curtin University, Western Australia                      *
********************************************************************************
* Version = 6.1.2 * Last modified =   3rd November 2022                        *
********************************************************************************
*  optimise     - perform optimisation run                                     *
*  conp         - constant pressure calculation                                *
*  property     - calculate properties for final geometry                      *
********************************************************************************

  Job Started  at 10:49.05  7th October    2025                               

  Number of CPUs =     1


  Total number of configurations input =      1

********************************************************************************
*  Input for Configuration =   1 : c00015.vasp                                 *
********************************************************************************

  Formula = Ge2Si22O48                                                  

  Number of irreducible atoms/shells =     120


  Total number atoms/shells =     120

  Dimensionality = 3               :  Bulk   



  Cartesian lattice vectors (Angstroms) :

       17.182800    0.000000    0.000000
        0.000000    7.513760    0.000000
        0.000000    0.000000   10.447700

  Cell parameters (Angstroms/Degrees):

  a =      17.1828    alpha =  90.0000
  b =       7.5138    beta  =  90.0000
  c =      10.4477    gamma =  90.0000

  Initial cell volume =        1348.875752 Angs**3

  Temperature of configuration =   0.00     K 

  Pressure of configuration =         0.000 GPa 

  Fractional coordinates of asymmetric unit :

--------------------------------------------------------------------------------
   No.  Atomic       x           y          z         Charge      Occupancy
        Label      (Frac)      (Frac)     (Frac)        (e)         (Frac)  
--------------------------------------------------------------------------------
      1 Ge    c    0.052090    0.000000    0.372270     4.00000    1.000000    
      2 Ge    c    0.160660 *  0.705910 *  0.982560 *   4.00000    1.000000    
      3 Si    c    0.447910 *  0.000000 *  0.372270 *   4.00000    1.000000    
      4 Si    c    0.947910 *  0.000000 *  0.627730 *   4.00000    1.000000    
      5 Si    c    0.552090 *  0.000000 *  0.627730 *   4.00000    1.000000    
      6 Si    c    0.556730 *  0.000000 *  0.122130 *   4.00000    1.000000    
      7 Si    c    0.943270 *  0.000000 *  0.122130 *   4.00000    1.000000    
      8 Si    c    0.443270 *  0.000000 *  0.877870 *   4.00000    1.000000    
      9 Si    c    0.056730 *  0.000000 *  0.877870 *   4.00000    1.000000    
     10 Si    c    0.160190 *  0.293910 *  0.273440 *   4.00000    1.000000    
     11 Si    c    0.339810 *  0.706090 *  0.273440 *   4.00000    1.000000    
     12 Si    c    0.839810 *  0.293910 *  0.726560 *   4.00000    1.000000    
     13 Si    c    0.660190 *  0.706090 *  0.726560 *   4.00000    1.000000    
     14 Si    c    0.839810 *  0.706090 *  0.726560 *   4.00000    1.000000    
     15 Si    c    0.660190 *  0.293910 *  0.726560 *   4.00000    1.000000    
     16 Si    c    0.160190 *  0.706090 *  0.273440 *   4.00000    1.000000    
     17 Si    c    0.339810 *  0.293910 *  0.273440 *   4.00000    1.000000    
     18 Si    c    0.660660 *  0.294090 *  0.017440 *   4.00000    1.000000    
     19 Si    c    0.839340 *  0.705910 *  0.017440 *   4.00000    1.000000    
     20 Si    c    0.339340 *  0.294090 *  0.982560 *   4.00000    1.000000    
     21 Si    c    0.339340 *  0.705910 *  0.982560 *   4.00000    1.000000    
     22 Si    c    0.160660 *  0.294090 *  0.982560 *   4.00000    1.000000    
     23 Si    c    0.660660 *  0.705910 *  0.017440 *   4.00000    1.000000    
     24 Si    c    0.839340 *  0.294090 *  0.017440 *   4.00000    1.000000    
     25 O3    c    0.106570 *  0.174340 *  0.366200 *   1.33043    1.000000    
     26 O2    c    0.393430 *  0.825660 *  0.366200 *   0.87073    1.000000    
     27 O2    c    0.893430 *  0.174340 *  0.633800 *   0.87073    1.000000    
     28 O2    c    0.606570 *  0.825660 *  0.633800 *   0.87073    1.000000    
     29 O2    c    0.893430 *  0.825660 *  0.633800 *   0.87073    1.000000    
     30 O2    c    0.606570 *  0.174340 *  0.633800 *   0.87073    1.000000    
     31 O3    c    0.106570 *  0.825660 *  0.366200 *   1.33043    1.000000    
     32 O2    c    0.393430 *  0.174340 *  0.366200 *   0.87073    1.000000    
     33 O3    c    0.000000 *  0.000000 *  0.500000 *   1.33043    1.000000    
     34 O2    c    0.500000 *  0.000000 *  0.500000 *   0.87073    1.000000    
     35 O3    c    0.994520 *  0.000000 *  0.250840 *   1.33043    1.000000    
     36 O2    c    0.505480 *  0.000000 *  0.250840 *   0.87073    1.000000    
     37 O2    c    0.005480 *  0.000000 *  0.749160 *   0.87073    1.000000    
     38 O2    c    0.494520 *  0.000000 *  0.749160 *   0.87073    1.000000    
     39 O2    c    0.610230 *  0.175520 *  0.115390 *   0.87073    1.000000    
     40 O2    c    0.889770 *  0.824480 *  0.115390 *   0.87073    1.000000    
     41 O2    c    0.389770 *  0.175520 *  0.884610 *   0.87073    1.000000    
     42 O3    c    0.110230 *  0.824480 *  0.884610 *   1.33043    1.000000    
     43 O2    c    0.389770 *  0.824480 *  0.884610 *   0.87073    1.000000    
     44 O2    c    0.110230 *  0.175520 *  0.884610 *   0.87073    1.000000    
     45 O2    c    0.610230 *  0.824480 *  0.115390 *   0.87073    1.000000    
     46 O2    c    0.889770 *  0.175520 *  0.115390 *   0.87073    1.000000    
     47 O2    c    0.500000 *  0.000000 *  0.000000 *   0.87073    1.000000    
     48 O2    c    0.000000 *  0.000000 *  0.000000 *   0.87073    1.000000    
     49 O2    c    0.151750 *  0.500000 *  0.313330 *   0.87073    1.000000    
     50 O2    c    0.348250 *  0.500000 *  0.313330 *   0.87073    1.000000    
     51 O2    c    0.848250 *  0.500000 *  0.686670 *   0.87073    1.000000    
     52 O2    c    0.651750 *  0.500000 *  0.686670 *   0.87073    1.000000    
     53 O2    c    0.250000 *  0.234950 *  0.285720 *   0.87073    1.000000    
     54 O2    c    0.250000 *  0.765050 *  0.285720 *   0.87073    1.000000    
     55 O2    c    0.750000 *  0.234950 *  0.714280 *   0.87073    1.000000    
     56 O2    c    0.750000 *  0.765050 *  0.714280 *   0.87073    1.000000    
     57 O2    c    0.131410 *  0.268650 *  0.127790 *   0.87073    1.000000    
     58 O2    c    0.368590 *  0.731350 *  0.127790 *   0.87073    1.000000    
     59 O2    c    0.868590 *  0.268650 *  0.872210 *   0.87073    1.000000    
     60 O2    c    0.631410 *  0.731350 *  0.872210 *   0.87073    1.000000    
     61 O2    c    0.868590 *  0.731350 *  0.872210 *   0.87073    1.000000    
     62 O2    c    0.631410 *  0.268650 *  0.872210 *   0.87073    1.000000    
     63 O3    c    0.131410 *  0.731350 *  0.127790 *   1.33043    1.000000    
     64 O2    c    0.368590 *  0.268650 *  0.127790 *   0.87073    1.000000    
     65 O2    c    0.653920 *  0.500000 *  0.058200 *   0.87073    1.000000    
     66 O2    c    0.846080 *  0.500000 *  0.058200 *   0.87073    1.000000    
     67 O2    c    0.346080 *  0.500000 *  0.941800 *   0.87073    1.000000    
     68 O3    c    0.153920 *  0.500000 *  0.941800 *   1.33043    1.000000    
     69 O2    c    0.750000 *  0.231060 *  0.027050 *   0.87073    1.000000    
     70 O2    c    0.750000 *  0.768940 *  0.027050 *   0.87073    1.000000    
     71 O2    c    0.250000 *  0.231060 *  0.972950 *   0.87073    1.000000    
     72 O3    c    0.250000 *  0.768940 *  0.972950 *   1.33043    1.000000    
     73 O3    s    0.106570 *  0.174340 *  0.366200 *  -3.33043    1.000000    
     74 O2    s    0.393430 *  0.825660 *  0.366200 *  -2.87073    1.000000    
     75 O2    s    0.893430 *  0.174340 *  0.633800 *  -2.87073    1.000000    
     76 O2    s    0.606570 *  0.825660 *  0.633800 *  -2.87073    1.000000    
     77 O2    s    0.893430 *  0.825660 *  0.633800 *  -2.87073    1.000000    
     78 O2    s    0.606570 *  0.174340 *  0.633800 *  -2.87073    1.000000    
     79 O3    s    0.106570 *  0.825660 *  0.366200 *  -3.33043    1.000000    
     80 O2    s    0.393430 *  0.174340 *  0.366200 *  -2.87073    1.000000    
     81 O3    s    0.000000 *  0.000000 *  0.500000 *  -3.33043    1.000000    
     82 O2    s    0.500000 *  0.000000 *  0.500000 *  -2.87073    1.000000    
     83 O3    s    0.994520 *  0.000000 *  0.250840 *  -3.33043    1.000000    
     84 O2    s    0.505480 *  0.000000 *  0.250840 *  -2.87073    1.000000    
     85 O2    s    0.005480 *  0.000000 *  0.749160 *  -2.87073    1.000000    
     86 O2    s    0.494520 *  0.000000 *  0.749160 *  -2.87073    1.000000    
     87 O2    s    0.610230 *  0.175520 *  0.115390 *  -2.87073    1.000000    
     88 O2    s    0.889770 *  0.824480 *  0.115390 *  -2.87073    1.000000    
     89 O2    s    0.389770 *  0.175520 *  0.884610 *  -2.87073    1.000000    
     90 O3    s    0.110230 *  0.824480 *  0.884610 *  -3.33043    1.000000    
     91 O2    s    0.389770 *  0.824480 *  0.884610 *  -2.87073    1.000000    
     92 O2    s    0.110230 *  0.175520 *  0.884610 *  -2.87073    1.000000    
     93 O2    s    0.610230 *  0.824480 *  0.115390 *  -2.87073    1.000000    
     94 O2    s    0.889770 *  0.175520 *  0.115390 *  -2.87073    1.000000    
     95 O2    s    0.500000 *  0.000000 *  0.000000 *  -2.87073    1.000000    
     96 O2    s    0.000000 *  0.000000 *  0.000000 *  -2.87073    1.000000    
     97 O2    s    0.151750 *  0.500000 *  0.313330 *  -2.87073    1.000000    
     98 O2    s    0.348250 *  0.500000 *  0.313330 *  -2.87073    1.000000    
     99 O2    s    0.848250 *  0.500000 *  0.686670 *  -2.87073    1.000000    
    100 O2    s    0.651750 *  0.500000 *  0.686670 *  -2.87073    1.000000    
    101 O2    s    0.250000 *  0.234950 *  0.285720 *  -2.87073    1.000000    
    102 O2    s    0.250000 *  0.765050 *  0.285720 *  -2.87073    1.000000    
    103 O2    s    0.750000 *  0.234950 *  0.714280 *  -2.87073    1.000000    
    104 O2    s    0.750000 *  0.765050 *  0.714280 *  -2.87073    1.000000    
    105 O2    s    0.131410 *  0.268650 *  0.127790 *  -2.87073    1.000000    
    106 O2    s    0.368590 *  0.731350 *  0.127790 *  -2.87073    1.000000    
    107 O2    s    0.868590 *  0.268650 *  0.872210 *  -2.87073    1.000000    
    108 O2    s    0.631410 *  0.731350 *  0.872210 *  -2.87073    1.000000    
    109 O2    s    0.868590 *  0.731350 *  0.872210 *  -2.87073    1.000000    
    110 O2    s    0.631410 *  0.268650 *  0.872210 *  -2.87073    1.000000    
    111 O3    s    0.131410 *  0.731350 *  0.127790 *  -3.33043    1.000000    
    112 O2    s    0.368590 *  0.268650 *  0.127790 *  -2.87073    1.000000    
    113 O2    s    0.653920 *  0.500000 *  0.058200 *  -2.87073    1.000000    
    114 O2    s    0.846080 *  0.500000 *  0.058200 *  -2.87073    1.000000    
    115 O2    s    0.346080 *  0.500000 *  0.941800 *  -2.87073    1.000000    
    116 O3    s    0.153920 *  0.500000 *  0.941800 *  -3.33043    1.000000    
    117 O2    s    0.750000 *  0.231060 *  0.027050 *  -2.87073    1.000000    
    118 O2    s    0.750000 *  0.768940 *  0.027050 *  -2.87073    1.000000    
    119 O2    s    0.250000 *  0.231060 *  0.972950 *  -2.87073    1.000000    
    120 O3    s    0.250000 *  0.768940 *  0.972950 *  -3.33043    1.000000    
--------------------------------------------------------------------------------



********************************************************************************
*  General input information                                                   *
********************************************************************************

  Species output for all configurations : 

--------------------------------------------------------------------------------
  Species    Type    Atomic    Atomic    Charge       Radii (Angs)     Library
                     Number     Mass       (e)     Cova   Ionic  VDW   Symbol
--------------------------------------------------------------------------------
    Ge       Core       32      72.61   4.000000   1.170  0.000  1.750 Ge       
    Si       Core       14      28.09   4.000000   1.200  0.000  2.100 Si       
    O1       Core        8      16.00   1.733957   0.730  0.000  0.000 O1       
    O2       Core        8      16.00   0.870733   0.730  0.000  1.360 O2       
    O3       Core        8      16.00   1.330431   0.730  0.000  1.360 O3       
    O1       Shell       8       0.00  -3.733957   0.730  0.000  0.000 O1       
    O2       Shell       8       0.00  -2.870733   0.730  0.000  0.000 O2       
    O3       Shell       8       0.00  -3.330431   0.730  0.000  0.000 O3       
--------------------------------------------------------------------------------


  Lattice summation method               =    Ewald          (3-D)
                                         =    Parry          (2-D)
                                         =    Saunders et al (1-D)
  Accuracy factor for lattice sums       =   12.000


  Analytic derivatives to be used

  Time limit = Infinity

  Maximum range for interatomic potentials =    100000.000000 Angstroms

  General interatomic potentials :

--------------------------------------------------------------------------------
Atom  Types   Potential      Parameter       Value         Units   Cutoffs(Ang)
  1     2                                                            Min /  Max 
--------------------------------------------------------------------------------
Si   c O1   s Buckingham    Buckingham A     1315.2478    eV        0.000 16.000
                            Buckingham rho  0.31775900    Ang       
                            Buckingham C     10.141118    eV*Ang^6  
--------------------------------------------------------------------------------
Si   c O2   s Buckingham    Buckingham A     1315.2478    eV        0.000 16.000
                            Buckingham rho  0.31775900    Ang       
                            Buckingham C     10.141118    eV*Ang^6  
--------------------------------------------------------------------------------
Si   c O3   s Buckingham    Buckingham A     1315.2478    eV        0.000 16.000
                            Buckingham rho  0.31775900    Ang       
                            Buckingham C     10.141118    eV*Ang^6  
--------------------------------------------------------------------------------
Ge   c O1   s Buckingham    Buckingham A     1497.3996    eV        0.000 16.000
                            Buckingham rho  0.32564600    Ang       
                            Buckingham C     16.808599    eV*Ang^6  
--------------------------------------------------------------------------------
Ge   c O2   s Buckingham    Buckingham A     1497.3996    eV        0.000 16.000
                            Buckingham rho  0.32564600    Ang       
                            Buckingham C     16.808599    eV*Ang^6  
--------------------------------------------------------------------------------
Ge   c O3   s Buckingham    Buckingham A     1497.3996    eV        0.000 16.000
                            Buckingham rho  0.32564600    Ang       
                            Buckingham C     16.808599    eV*Ang^6  
--------------------------------------------------------------------------------
O1   s O1   s Buckingham    Buckingham A     22764.000    eV        0.000 16.000
                            Buckingham rho  0.14900000    Ang       
                            Buckingham C     10.937044    eV*Ang^6  
--------------------------------------------------------------------------------
O1   s O2   s Buckingham    Buckingham A     22764.000    eV        0.000 16.000
                            Buckingham rho  0.14900000    Ang       
                            Buckingham C     10.937044    eV*Ang^6  
--------------------------------------------------------------------------------
O1   s O3   s Buckingham    Buckingham A     22764.000    eV        0.000 16.000
                            Buckingham rho  0.14900000    Ang       
                            Buckingham C     10.937044    eV*Ang^6  
--------------------------------------------------------------------------------
O2   s O2   s Buckingham    Buckingham A     22764.000    eV        0.000 16.000
                            Buckingham rho  0.14900000    Ang       
                            Buckingham C     10.937044    eV*Ang^6  
--------------------------------------------------------------------------------
O2   s O3   s Buckingham    Buckingham A     22764.000    eV        0.000 16.000
                            Buckingham rho  0.14900000    Ang       
                            Buckingham C     10.937044    eV*Ang^6  
--------------------------------------------------------------------------------
O3   s O3   s Buckingham    Buckingham A     22764.000    eV        0.000 16.000
                            Buckingham rho  0.14900000    Ang       
                            Buckingham C     10.937044    eV*Ang^6  
--------------------------------------------------------------------------------
O1   c O1   s Spring (c-s)  Spring k 2       180.31577    eV*Ang^-2 0.000  0.800
                            Spring k 4       0.0000000    eV*Ang^-4 
--------------------------------------------------------------------------------
O2   c O2   s Spring (c-s)  Spring k 2       75.969800    eV*Ang^-2 0.000  0.800
                            Spring k 4       0.0000000    eV*Ang^-4 
--------------------------------------------------------------------------------
O3   c O3   s Spring (c-s)  Spring k 2       128.14270    eV*Ang^-2 0.000  0.800
                            Spring k 4       0.0000000    eV*Ang^-4 
--------------------------------------------------------------------------------

  General Three-body potentials :

--------------------------------------------------------------------------------
  Atoms       Potential      Parameter       Value         Units   Cutoffs(Ang)
  1 / 2 / 3                                                          Min /  Max 
--------------------------------------------------------------------------------
Si    core    Harmonic      Three-body cnst  1.2614000    eV*rad^-2 0.000  1.900
O1    shel                  Three-body angl  109.47000    degrees   0.000  1.900
O1    shel                  Three-body k4    0.0000000    eV*rad^-4 0.000  3.500
                            Three-body k3    0.0000000    eV*rad^-3 
--------------------------------------------------------------------------------
Si    core    Harmonic      Three-body cnst  1.2614000    eV*rad^-2 0.000  1.900
O1    shel                  Three-body angl  109.47000    degrees   0.000  1.900
õ(1   shel                  Three-body k4    0.0000000    eV*rad^-4 0.000  3.500
                            Three-body k3    0.0000000    eV*rad^-3 
--------------------------------------------------------------------------------
Si    core    Harmonic      Three-body cnst  1.2614000    eV*rad^-2 0.000  1.900
õ(1   shel                  Three-body angl  109.47000    degrees   0.000  1.900
õ(1   shel                  Three-body k4    0.0000000    eV*rad^-4 0.000  3.500
                            Three-body k3    0.0000000    eV*rad^-3 
--------------------------------------------------------------------------------
Si    core    Harmonic      Three-body cnst  1.2614000    eV*rad^-2 0.000  1.900
O1    shel                  Three-body angl  109.47000    degrees   0.000  1.900
O2    shel                  Three-body k4    0.0000000    eV*rad^-4 0.000  3.500
                            Three-body k3    0.0000000    eV*rad^-3 
--------------------------------------------------------------------------------
Si    core    Harmonic      Three-body cnst  1.2614000    eV*rad^-2 0.000  1.900
O1    shel                  Three-body angl  109.47000    degrees   0.000  1.900
õ(2   shel                  Three-body k4    0.0000000    eV*rad^-4 0.000  3.500
                            Three-body k3    0.0000000    eV*rad^-3 
--------------------------------------------------------------------------------
Si    core    Harmonic      Three-body cnst  1.2614000    eV*rad^-2 0.000  1.900
O2    shel                  Three-body angl  109.47000    degrees   0.000  1.900
õ(1   shel                  Three-body k4    0.0000000    eV*rad^-4 0.000  3.500
                            Three-body k3    0.0000000    eV*rad^-3 
--------------------------------------------------------------------------------
Si    core    Harmonic      Three-body cnst  1.2614000    eV*rad^-2 0.000  1.900
õ(1   shel                  Three-body angl  109.47000    degrees   0.000  1.900
õ(2   shel                  Three-body k4    0.0000000    eV*rad^-4 0.000  3.500
                            Three-body k3    0.0000000    eV*rad^-3 
--------------------------------------------------------------------------------
Si    core    Harmonic      Three-body cnst  1.2614000    eV*rad^-2 0.000  1.900
O2    shel                  Three-body angl  109.47000    degrees   0.000  1.900
O2    shel                  Three-body k4    0.0000000    eV*rad^-4 0.000  3.500
                            Three-body k3    0.0000000    eV*rad^-3 
--------------------------------------------------------------------------------
Si    core    Harmonic      Three-body cnst  1.2614000    eV*rad^-2 0.000  1.900
O2    shel                  Three-body angl  109.47000    degrees   0.000  1.900
õ(2   shel                  Three-body k4    0.0000000    eV*rad^-4 0.000  3.500
                            Three-body k3    0.0000000    eV*rad^-3 
--------------------------------------------------------------------------------
Si    core    Harmonic      Three-body cnst  1.2614000    eV*rad^-2 0.000  1.900
õ(2   shel                  Three-body angl  109.47000    degrees   0.000  1.900
õ(2   shel                  Three-body k4    0.0000000    eV*rad^-4 0.000  3.500
                            Three-body k3    0.0000000    eV*rad^-3 
--------------------------------------------------------------------------------

********************************************************************************
*  Output for configuration   1 : c00015.vasp                                  *
********************************************************************************


  Components of energy : 

--------------------------------------------------------------------------------
  Interatomic potentials     =         752.31450448 eV    
  Three-body potentials      =           0.01564020 eV    
  Monopole - monopole (real) =       -2676.00317478 eV    
  Monopole - monopole (recip)=       -1115.35404472 eV    
  Monopole - monopole (total)=       -3791.35721950 eV    
--------------------------------------------------------------------------------
  Total lattice energy       =       -3039.02707483 eV    
--------------------------------------------------------------------------------
  Total lattice energy       =         -293219.6569 kJ/(mole unit cells)
--------------------------------------------------------------------------------


  Number of variables =      363

  Maximum number of calculations  =          1000
  Maximum Hessian update interval =            10
  Maximum step size               =   0.100000000
  Maximum parameter tolerance     =   0.000010000
  Maximum function  tolerance     =   0.000010000
  Maximum gradient  tolerance     =   0.001000000
  Maximum gradient  component     =   0.010000000

  Symmetry not applied to optimisation

  Cell parameters to be optimised using strains

  Newton-Raphson optimiser to be used

  BFGS hessian update to be used

  Lower half triangular hessian to be used

  Minimiser to switch to RFO
  When gradient norm is less than     0.050000

  Dumpfile to be written after every cycle

  Start of bulk optimisation :

  Cycle:      0 Energy:     -3039.027075  Gnorm:      4.280637  CPU:    0.099
  ** Hessian calculated **
  Cycle:      1 Energy:     -3069.575495  Gnorm:      0.926815  CPU:    0.221
  ** Hessian calculated **
  Cycle:      2 Energy:     -3073.668356  Gnorm:      0.372343  CPU:    0.440
  ** Hessian calculated **
  Cycle:      3 Energy:     -3074.060541  Gnorm:      0.202785  CPU:    0.625
  Cycle:      4 Energy:     -3074.178327  Gnorm:      0.126243  CPU:    0.723
  Cycle:      5 Energy:     -3074.266425  Gnorm:      0.098325  CPU:    0.839
  Cycle:      6 Energy:     -3074.351974  Gnorm:      0.079497  CPU:    0.956
  Cycle:      7 Energy:     -3074.422981  Gnorm:      0.067966  CPU:    1.072
  Cycle:      8 Energy:     -3074.456742  Gnorm:      0.052663  CPU:    1.171
  Cycle:      9 Energy:     -3074.478283  Gnorm:      0.043744  CPU:    1.269
  ** Hessian has required structure
  Cycle:     10 Energy:     -3074.488996  Gnorm:      0.065856  CPU:    1.406
  ** Hessian has required structure
  Cycle:     11 Energy:     -3074.498913  Gnorm:      0.067020  CPU:    1.543
  ** Hessian has required structure
  Cycle:     12 Energy:     -3074.511859  Gnorm:      0.071837  CPU:    1.698
  ** Hessian has wrong structure
  ** Imaginary eigenvectors =   2
  Cycle:     13 Energy:     -3074.520668  Gnorm:      0.071433  CPU:    2.154
  ** Hessian has wrong structure
  ** Imaginary eigenvectors =   2
  ** Hessian has wrong structure
  ** Imaginary eigenvectors =   2
  Cycle:     14 Energy:     -3074.544937  Gnorm:      0.071583  CPU:    2.688
  ** Hessian has wrong structure
  ** Imaginary eigenvectors =   1
  ** Hessian has required structure
  Cycle:     15 Energy:     -3074.680118  Gnorm:      0.058080  CPU:    3.144
  ** Hessian has required structure
  Cycle:     16 Energy:     -3074.843334  Gnorm:      0.036572  CPU:    3.316
  ** Hessian has required structure
  Cycle:     17 Energy:     -3074.934167  Gnorm:      0.029929  CPU:    3.487
  ** Hessian has required structure
  Cycle:     18 Energy:     -3074.969444  Gnorm:      0.032268  CPU:    3.621
  ** Hessian has required structure
  Cycle:     19 Energy:     -3074.990898  Gnorm:      0.033460  CPU:    3.794
  ** Hessian has required structure
  Cycle:     20 Energy:     -3075.027982  Gnorm:      0.028234  CPU:    3.950
  ** Hessian has required structure
  Cycle:     21 Energy:     -3075.042413  Gnorm:      0.022365  CPU:    4.123
  ** Hessian has required structure
  Cycle:     22 Energy:     -3075.058455  Gnorm:      0.017258  CPU:    4.295
  ** Hessian has required structure
  Cycle:     23 Energy:     -3075.077261  Gnorm:      0.015559  CPU:    4.467
  ** Hessian has required structure
  Cycle:     24 Energy:     -3075.088522  Gnorm:      0.015220  CPU:    4.621
  ** Hessian has wrong structure
  ** Imaginary eigenvectors =   1
  Cycle:     25 Energy:     -3075.091870  Gnorm:      0.018653  CPU:    4.950
  ** Hessian has required structure
  Cycle:     26 Energy:     -3075.110621  Gnorm:      0.014995  CPU:    5.184
  ** Hessian has required structure
  Cycle:     27 Energy:     -3075.118316  Gnorm:      0.010778  CPU:    5.356
  ** Hessian has required structure
  Cycle:     28 Energy:     -3075.122155  Gnorm:      0.005721  CPU:    5.527
  ** Hessian has required structure
  Cycle:     29 Energy:     -3075.123924  Gnorm:      0.006250  CPU:    5.679
  ** Hessian has required structure
  Cycle:     30 Energy:     -3075.125282  Gnorm:      0.002588  CPU:    5.832
  ** Hessian has required structure
  Cycle:     31 Energy:     -3075.126281  Gnorm:      0.004955  CPU:    5.984
  ** Hessian has required structure
  Cycle:     32 Energy:     -3075.127003  Gnorm:      0.005139  CPU:    6.156
  ** Hessian has required structure
  Cycle:     33 Energy:     -3075.128093  Gnorm:      0.004557  CPU:    6.329
  ** Hessian has required structure
  Cycle:     34 Energy:     -3075.129347  Gnorm:      0.003406  CPU:    6.501
  ** Hessian has required structure
  Cycle:     35 Energy:     -3075.130205  Gnorm:      0.002323  CPU:    6.672
  ** Hessian has required structure
  Cycle:     36 Energy:     -3075.130788  Gnorm:      0.001613  CPU:    6.925
  ** Hessian has required structure
  Cycle:     37 Energy:     -3075.131017  Gnorm:      0.001304  CPU:    7.096
  ** Hessian has required structure
  Cycle:     38 Energy:     -3075.131147  Gnorm:      0.000841  CPU:    7.266
  ** Hessian has required structure
  Cycle:     39 Energy:     -3075.131213  Gnorm:      0.000629  CPU:    7.439
  ** Hessian has required structure
  Cycle:     40 Energy:     -3075.131251  Gnorm:      0.000358  CPU:    7.611
  ** Hessian has required structure
  Cycle:     41 Energy:     -3075.131267  Gnorm:      0.000328  CPU:    7.764
  ** Hessian has required structure
  Cycle:     42 Energy:     -3075.131274  Gnorm:      0.000192  CPU:    7.899
  ** Hessian has required structure
  Cycle:     43 Energy:     -3075.131279  Gnorm:      0.000184  CPU:    8.053
  ** Hessian has required structure
  Cycle:     44 Energy:     -3075.131284  Gnorm:      0.000096  CPU:    8.223
  ** Hessian has required structure
  Cycle:     45 Energy:     -3075.101993  Gnorm:      0.057654  CPU:    8.412
  ** Hessian has required structure
  Cycle:     46 Energy:     -3075.121731  Gnorm:      0.032941  CPU:    8.665
  ** Hessian has required structure
  Cycle:     47 Energy:     -3075.128889  Gnorm:      0.016521  CPU:    8.839
  ** Hessian has required structure
  Cycle:     48 Energy:     -3075.130686  Gnorm:      0.008277  CPU:    9.012
  ** Hessian has required structure
  Cycle:     49 Energy:     -3075.131140  Gnorm:      0.004142  CPU:    9.185
  ** Hessian has required structure
  Cycle:     50 Energy:     -3075.131251  Gnorm:      0.002071  CPU:    9.357
  ** Hessian has required structure
  Cycle:     51 Energy:     -3075.131274  Gnorm:      0.001242  CPU:    9.511
  ** Hessian has required structure
  Cycle:     52 Energy:     -3075.131284  Gnorm:      0.000620  CPU:    9.683
  ** Hessian has required structure
  Cycle:     53 Energy:     -3075.131286  Gnorm:      0.000432  CPU:    9.820
  ** Hessian has required structure
  Cycle:     54 Energy:     -3075.131286  Gnorm:      0.000300  CPU:    9.956
  ** Hessian has required structure
  Cycle:     55 Energy:     -3075.131287  Gnorm:      0.000246  CPU:   10.092
  ** Hessian has required structure
  Cycle:     56 Energy:     -3075.131287  Gnorm:      0.000244  CPU:   10.346
  ** Hessian has required structure
  Cycle:     57 Energy:     -3075.131287  Gnorm:      0.000242  CPU:   10.483
  ** Hessian has required structure
  Cycle:     58 Energy:     -3075.131287  Gnorm:      0.000242  CPU:   10.618
  ** Hessian has required structure
  Cycle:     59 Energy:     -3075.131287  Gnorm:      0.000241  CPU:   10.757
  ** Hessian has required structure
  Cycle:     60 Energy:     -3075.131287  Gnorm:      0.000241  CPU:   10.895
  ** Hessian has required structure
  Cycle:     61 Energy:     -3075.131287  Gnorm:      0.000239  CPU:   11.033
  ** Hessian has required structure
  Cycle:     62 Energy:     -3075.131287  Gnorm:      0.000238  CPU:   11.170
  ** Hessian has required structure
  Cycle:     63 Energy:     -3075.131287  Gnorm:      0.000237  CPU:   11.306
  ** Hessian has required structure
  Cycle:     64 Energy:     -3075.131287  Gnorm:      0.000237  CPU:   11.443
  ** Hessian has required structure
  Cycle:     65 Energy:     -3075.131287  Gnorm:      0.000236  CPU:   11.579
  ** Hessian has required structure
  Cycle:     66 Energy:     -3075.131287  Gnorm:      0.000235  CPU:   11.833
  ** Hessian has required structure


  **** Too many failed attempts to optimise ****

  Final energy =   -3075.13128683 eV      
  Final Gnorm  =       0.00023345

  Components of energy : 

--------------------------------------------------------------------------------
  Interatomic potentials     =         816.96766780 eV    
  Three-body potentials      =           0.23900638 eV    
  Monopole - monopole (real) =       -2244.01462552 eV    
  Monopole - monopole (recip)=       -1648.32333549 eV    
  Monopole - monopole (total)=       -3892.33796101 eV    
--------------------------------------------------------------------------------
  Total lattice energy       =       -3075.13128683 eV    
--------------------------------------------------------------------------------
  Total lattice energy       =         -296703.1615 kJ/(mole unit cells)
--------------------------------------------------------------------------------

  Final fractional coordinates of atoms :

--------------------------------------------------------------------------------
   No.  Atomic        x           y          z          Radius
        Label       (Frac)      (Frac)     (Frac)       (Angs) 
--------------------------------------------------------------------------------
     1  Ge    c     0.052090    0.000000    0.372270    0.000000
     2  Ge    c     0.152500    0.681038    0.960879    0.000000
     3  Si    c     0.453073    0.011455    0.360738    0.000000
     4  Si    c     0.946923    0.007644    0.631743    0.000000
     5  Si    c     0.549058    0.005701    0.624090    0.000000
     6  Si    c     0.558110    0.005080    0.115438    0.000000
     7  Si    c     0.941504    0.002421    0.122795    0.000000
     8  Si    c     0.443178    0.998402    0.875928    0.000000
     9  Si    c     0.051409    0.989290    0.883161    0.000000
    10  Si    c     0.169272    0.289685    0.272919    0.000000
    11  Si    c     0.338544    0.715845    0.262153    0.000000
    12  Si    c     0.834846    0.300078    0.702845    0.000000
    13  Si    c     0.660828    0.713561    0.706724    0.000000
    14  Si    c     0.840778    0.702884    0.707559    0.000000
    15  Si    c     0.655797    0.310280    0.702904    0.000000
    16  Si    c     0.160782    0.699514    0.269923    0.000000
    17  Si    c     0.347937    0.312771    0.268951    0.000000
    18  Si    c     0.656691    0.311040    0.009146    0.000000
    19  Si    c     0.842623    0.696172    0.013151    0.000000
    20  Si    c     0.344051    0.306560    0.963614    0.000000
    21  Si    c     0.334375    0.702004    0.953321    0.000000
    22  Si    c     0.163869    0.275269    0.970041    0.000000
    23  Si    c     0.662785    0.710501    0.012194    0.000000
    24  Si    c     0.835794    0.296944    0.009671    0.000000
    25  O3    c     0.116228    0.174023    0.364221    0.000000
    26  O2    c     0.394205    0.849952    0.338767    0.000000
    27  O2    c     0.887789    0.171440    0.616775    0.000000
    28  O2    c     0.608407    0.842354    0.620047    0.000000
    29  O2    c     0.896388    0.827704    0.623791    0.000000
    30  O2    c     0.598501    0.186175    0.618601    0.000000
    31  O3    c     0.102920    0.806687    0.360162    0.000000
    32  O2    c     0.406892    0.194657    0.352497    0.000000
    33  O3    c     0.012910    0.007551    0.526410    0.000000
    34  O2    c     0.489798    0.995195    0.503975    0.000000
    35  O3    c     0.973031    0.014946    0.268802    0.000000
    36  O2    c     0.523626    0.005472    0.259764    0.000000
    37  O2    c     0.988677    0.028451    0.772540    0.000000
    38  O2    c     0.499618    0.996292    0.754841    0.000000
    39  O2    c     0.602281    0.188721    0.095211    0.000000
    40  O2    c     0.896340    0.818039    0.103939    0.000000
    41  O2    c     0.395257    0.179313    0.874544    0.000000
    42  O3    c     0.087923    0.798486    0.866548    0.000000
    43  O2    c     0.384541    0.833948    0.866273    0.000000
    44  O2    c     0.121899    0.130169    0.879532    0.000000
    45  O2    c     0.616961    0.842741    0.104733    0.000000
    46  O2    c     0.884314    0.164690    0.097570    0.000000
    47  O2    c     0.489823    0.979692    0.010892    0.000000
    48  O2    c     0.013700    0.010195    0.025863    0.000000
    49  O2    c     0.144609    0.492347    0.283846    0.000000
    50  O2    c     0.366608    0.518044    0.292666    0.000000
    51  O2    c     0.859547    0.500563    0.674094    0.000000
    52  O2    c     0.636454    0.513186    0.674712    0.000000
    53  O2    c     0.260002    0.270559    0.312143    0.000000
    54  O2    c     0.250362    0.741489    0.310458    0.000000
    55  O2    c     0.744665    0.271194    0.663955    0.000000
    56  O2    c     0.751143    0.743375    0.672730    0.000000
    57  O2    c     0.157001    0.223742    0.123130    0.000000
    58  O2    c     0.339927    0.753008    0.107149    0.000000
    59  O2    c     0.846466    0.255876    0.856107    0.000000
    60  O2    c     0.648037    0.757048    0.860052    0.000000
    61  O2    c     0.857111    0.741097    0.861171    0.000000
    62  O2    c     0.643407    0.267734    0.855901    0.000000
    63  O3    c     0.145712    0.754859    0.120569    0.000000
    64  O2    c     0.358862    0.263768    0.116301    0.000000
    65  O2    c     0.634501    0.512290    0.039290    0.000000
    66  O2    c     0.864859    0.494606    0.041034    0.000000
    67  O2    c     0.368040    0.506110    0.932594    0.000000
    68  O3    c     0.126567    0.463539    0.946622    0.000000
    69  O2    c     0.745922    0.276321    0.047674    0.000000
    70  O2    c     0.753333    0.729910    0.047628    0.000000
    71  O2    c     0.253720    0.280085    0.928602    0.000000
    72  O3    c     0.246085    0.710438    0.906637    0.000000
    73  O3    s     0.116609    0.172046    0.355151    0.000000
    74  O2    s     0.394334    0.852494    0.332378    0.000000
    75  O2    s     0.888138    0.168558    0.627693    0.000000
    76  O2    s     0.607938    0.845398    0.630142    0.000000
    77  O2    s     0.895500    0.832561    0.633791    0.000000
    78  O2    s     0.599598    0.180780    0.628478    0.000000
    79  O3    s     0.104720    0.811511    0.351811    0.000000
    80  O2    s     0.405292    0.188122    0.344095    0.000000
    81  O3    s     0.008937    0.006900    0.524906    0.000000
    82  O2    s     0.492500    0.998327    0.501449    0.000000
    83  O3    s     0.976320    0.012358    0.261916    0.000000
    84  O2    s     0.519703    0.006099    0.254447    0.000000
    85  O2    s     0.991434    0.021556    0.770119    0.000000
    86  O2    s     0.498570    0.997642    0.754285    0.000000
    87  O2    s     0.603667    0.182569    0.087524    0.000000
    88  O2    s     0.895062    0.823849    0.095603    0.000000
    89  O2    s     0.394689    0.174077    0.884680    0.000000
    90  O3    s     0.089539    0.807881    0.875833    0.000000
    91  O2    s     0.385336    0.837194    0.876968    0.000000
    92  O2    s     0.119155    0.131423    0.889930    0.000000
    93  O2    s     0.615760    0.845410    0.095299    0.000000
    94  O2    s     0.884967    0.162187    0.090104    0.000000
    95  O2    s     0.492396    0.984727    0.007626    0.000000
    96  O2    s     0.009741    0.007101    0.021282    0.000000
    97  O2    s     0.149027    0.492690    0.281188    0.000000
    98  O2    s     0.361641    0.516933    0.286905    0.000000
    99  O2    s     0.854898    0.500877    0.680722    0.000000
   100  O2    s     0.641165    0.512771    0.681171    0.000000
   101  O2    s     0.259799    0.277090    0.303441    0.000000
   102  O2    s     0.250485    0.734440    0.301211    0.000000
   103  O2    s     0.744833    0.278518    0.672283    0.000000
   104  O2    s     0.751073    0.735772    0.680132    0.000000
   105  O2    s     0.158994    0.235846    0.122842    0.000000
   106  O2    s     0.339185    0.743634    0.107652    0.000000
   107  O2    s     0.844052    0.265006    0.856363    0.000000
   108  O2    s     0.650958    0.747560    0.860044    0.000000
   109  O2    s     0.853849    0.732326    0.861122    0.000000
   110  O2    s     0.646153    0.276850    0.856076    0.000000
   111  O3    s     0.147708    0.743598    0.122344    0.000000
   112  O2    s     0.356127    0.273465    0.116253    0.000000
   113  O2    s     0.639902    0.511928    0.033139    0.000000
   114  O2    s     0.859419    0.495220    0.034716    0.000000
   115  O2    s     0.361951    0.505111    0.938131    0.000000
   116  O3    s     0.132438    0.462381    0.950129    0.000000
   117  O2    s     0.745967    0.282432    0.039270    0.000000
   118  O2    s     0.753219    0.723947    0.039842    0.000000
   119  O2    s     0.253912    0.282569    0.937003    0.000000
   120  O3    s     0.247468    0.707166    0.915852    0.000000
--------------------------------------------------------------------------------

  Final Cartesian lattice vectors (Angstroms) :

       17.217091   -0.040541   -0.085944
       -0.017415    7.626810   -0.023919
       -0.051863   -0.034036   10.196699


  Final cell parameters and derivatives :

--------------------------------------------------------------------------------
       a           17.217353 Angstrom     dE/de1(xx)     0.011558 eV/strain
       b            7.626868 Angstrom     dE/de2(yy)     0.016489 eV/strain
       c           10.196888 Angstrom     dE/de3(zz)    -0.039859 eV/strain
       alpha       90.370267 Degrees      dE/de4(yz)    -0.000689 eV/strain
       beta        90.576966 Degrees      dE/de5(xz)     0.002412 eV/strain
       gamma       90.264838 Degrees      dE/de6(xy)     0.001633 eV/strain
--------------------------------------------------------------------------------

  Primitive cell volume =          1338.888385 Angs**3

  Density of cell =      1.899081 g/cm**3

  Non-primitive cell volume =          1338.888385 Angs**3


  Final internal derivatives :

--------------------------------------------------------------------------------
   No.  Atomic          a             b             c           Radius
        Label          (eV)          (eV)          (eV)        (eV/Angs)
--------------------------------------------------------------------------------
      1 Ge    c       0.000000      0.000000      0.000000      0.000000
      2 Ge    c      -0.002994      0.003039      0.008981      0.000000
      3 Si    c       0.016044     -0.000210      0.004132      0.000000
      4 Si    c       0.016819      0.000702     -0.000654      0.000000
      5 Si    c      -0.016937     -0.000855      0.000153      0.000000
      6 Si    c      -0.012719     -0.000627      0.007112      0.000000
      7 Si    c       0.014174      0.000720      0.005656      0.000000
      8 Si    c       0.015847      0.000259     -0.002610      0.000000
      9 Si    c      -0.015801      0.000967      0.001727      0.000000
     10 Si    c      -0.005929     -0.002642     -0.007975      0.000000
     11 Si    c       0.001885      0.001522     -0.009438      0.000000
     12 Si    c       0.006092     -0.002544      0.008201      0.000000
     13 Si    c      -0.004724      0.002075      0.009139      0.000000
     14 Si    c       0.005923      0.001315      0.008543      0.000000
     15 Si    c      -0.003968     -0.001492      0.009181      0.000000
     16 Si    c      -0.008252      0.002654     -0.008178      0.000000
     17 Si    c       0.004611     -0.002045     -0.009139      0.000000
     18 Si    c      -0.005768     -0.001936     -0.008933      0.000000
     19 Si    c       0.004642      0.002103     -0.009171      0.000000
     20 Si    c       0.007039     -0.002556      0.008433      0.000000
     21 Si    c       0.004582      0.002147      0.008455      0.000000
     22 Si    c      -0.002309     -0.002375      0.009334      0.000000
     23 Si    c      -0.006734      0.003186     -0.008170      0.000000
     24 Si    c       0.004723     -0.002523     -0.009444      0.000000
     25 O3    c       0.007837      0.003869     -0.000188      0.000000
     26 O2    c      -0.003127     -0.001610      0.000693      0.000000
     27 O2    c      -0.004798      0.002395     -0.000461      0.000000
     28 O2    c       0.003628     -0.001755     -0.000936      0.000000
     29 O2    c      -0.003533     -0.002508     -0.000938      0.000000
     30 O2    c       0.002539      0.002074     -0.001423      0.000000
     31 O3    c       0.006635     -0.003678     -0.000726      0.000000
     32 O2    c      -0.002193      0.001824      0.000723      0.000000
     33 O3    c       0.001129     -0.000552     -0.006673      0.000000
     34 O2    c      -0.001239      0.000687     -0.003663      0.000000
     35 O3    c      -0.007335     -0.000625     -0.010158      0.000000
     36 O2    c       0.002378      0.000245     -0.005913      0.000000
     37 O2    c      -0.002019     -0.000893     -0.003534      0.000000
     38 O2    c      -0.000100      0.000505     -0.000799      0.000000
     39 O2    c       0.003412      0.002626     -0.000205      0.000000
     40 O2    c      -0.002826     -0.002404      0.000270      0.000000
     41 O2    c      -0.004538      0.002821      0.000073      0.000000
     42 O3    c       0.003054     -0.003017     -0.001905      0.000000
     43 O2    c      -0.005473     -0.002693     -0.000644      0.000000
     44 O2    c       0.005745      0.002032     -0.001051      0.000000
     45 O2    c       0.005517     -0.002798     -0.000789      0.000000
     46 O2    c      -0.004085      0.001969     -0.000044      0.000000
     47 O2    c      -0.003208      0.000687     -0.003384      0.000000
     48 O2    c       0.002941     -0.000986     -0.005357      0.000000
     49 O2    c      -0.001742     -0.000238      0.000759      0.000000
     50 O2    c       0.002064      0.000381      0.001563      0.000000
     51 O2    c       0.001755      0.000429     -0.001708      0.000000
     52 O2    c      -0.001883     -0.000110     -0.001706      0.000000
     53 O2    c       0.001530     -0.000353      0.002329      0.000000
     54 O2    c       0.002386      0.000466      0.002331      0.000000
     55 O2    c      -0.001939     -0.000461     -0.002274      0.000000
     56 O2    c      -0.000624      0.000608     -0.002161      0.000000
     57 O2    c       0.002614      0.003474     -0.000888      0.000000
     58 O2    c      -0.000644     -0.002837      0.000627      0.000000
     59 O2    c      -0.003460      0.002810      0.000718      0.000000
     60 O2    c       0.004206     -0.002900     -0.000834      0.000000
     61 O2    c      -0.005010     -0.002615      0.000212      0.000000
     62 O2    c       0.004225      0.002734     -0.000313      0.000000
     63 O3    c       0.005054     -0.005256      0.000676      0.000000
     64 O2    c      -0.004207      0.002932      0.000631      0.000000
     65 O2    c      -0.002094     -0.000458      0.001604      0.000000
     66 O2    c       0.002269      0.000194      0.001686      0.000000
     67 O2    c       0.002314      0.000272     -0.001523      0.000000
     68 O3    c      -0.004376     -0.000230     -0.001759      0.000000
     69 O2    c       0.000914     -0.000419      0.002298      0.000000
     70 O2    c       0.001746      0.000313      0.002139      0.000000
     71 O2    c      -0.002075     -0.000101     -0.002267      0.000000
     72 O3    c      -0.003876      0.000059     -0.003738      0.000000
     73 O3    s      -0.003946     -0.002033     -0.002481      0.000000
     74 O2    s       0.001030      0.000534     -0.001814      0.000000
     75 O2    s       0.001715     -0.000776      0.003054      0.000000
     76 O2    s      -0.001794      0.000620      0.002943      0.000000
     77 O2    s       0.001246      0.000738      0.003166      0.000000
     78 O2    s      -0.001321     -0.000599      0.003086      0.000000
     79 O3    s      -0.003544      0.001772     -0.002202      0.000000
     80 O2    s       0.001182     -0.000443     -0.002252      0.000000
     81 O3    s      -0.000789      0.000524      0.004043      0.000000
     82 O2    s       0.000603     -0.000440      0.001202      0.000000
     83 O3    s       0.005226      0.000466      0.003498      0.000000
     84 O2    s      -0.001111     -0.000226      0.001207      0.000000
     85 O2    s       0.000488      0.000570      0.001405      0.000000
     86 O2    s       0.000297     -0.000384      0.000729      0.000000
     87 O2    s      -0.001746     -0.000676     -0.001593      0.000000
     88 O2    s       0.001600      0.000639     -0.001787      0.000000
     89 O2    s       0.002420     -0.000846      0.002442      0.000000
     90 O3    s      -0.002635      0.001309      0.003613      0.000000
     91 O2    s       0.002320      0.000957      0.002571      0.000000
     92 O2    s      -0.002640     -0.000821      0.003247      0.000000
     93 O2    s      -0.002171      0.000924     -0.001559      0.000000
     94 O2    s       0.001938     -0.000647     -0.001620      0.000000
     95 O2    s       0.001173     -0.000587      0.000733      0.000000
     96 O2    s      -0.001171      0.000674      0.001155      0.000000
     97 O2    s      -0.001436     -0.000173     -0.000949      0.000000
     98 O2    s       0.000757     -0.000027     -0.002264      0.000000
     99 O2    s       0.001069     -0.000131      0.002471      0.000000
    100 O2    s      -0.000999      0.000046      0.002336      0.000000
    101 O2    s      -0.000337     -0.000834     -0.002960      0.000000
    102 O2    s      -0.000382      0.000752     -0.003227      0.000000
    103 O2    s       0.000314     -0.000667      0.003062      0.000000
    104 O2    s       0.000019      0.000591      0.002841      0.000000
    105 O2    s      -0.000493     -0.001253      0.000208      0.000000
    106 O2    s      -0.000963      0.000982     -0.000169      0.000000
    107 O2    s       0.000757     -0.001058      0.000105      0.000000
    108 O2    s      -0.001271      0.001183      0.000294      0.000000
    109 O2    s       0.002001      0.001009      0.000227      0.000000
    110 O2    s      -0.001446     -0.001062      0.000198      0.000000
    111 O3    s      -0.002677      0.002784     -0.000261      0.000000
    112 O2    s       0.001433     -0.001200     -0.000240      0.000000
    113 O2    s      -0.001476      0.000159     -0.002226      0.000000
    114 O2    s       0.001329     -0.000123     -0.002287      0.000000
    115 O2    s       0.001481      0.000149      0.002224      0.000000
    116 O3    s       0.000177     -0.000122      0.002269      0.000000
    117 O2    s      -0.000308     -0.000614     -0.002986      0.000000
    118 O2    s      -0.000176      0.000709     -0.002661      0.000000
    119 O2    s       0.000530     -0.000727      0.002922      0.000000
    120 O3    s       0.001810      0.000842      0.004365      0.000000
--------------------------------------------------------------------------------
  Maximum abs         0.016937      0.005256      0.010158      0.000000
--------------------------------------------------------------------------------


  Born effective charge tensors : 

-------------------------------------------------------------------------------
  Atom             x           y             z
-------------------------------------------------------------------------------
    1 Ge    x       4.3350     -0.0766     -0.3981
            y       0.0730      3.8989      0.0091
            z      -0.3631     -0.0060      4.6119
-------------------------------------------------------------------------------
    2 Ge    x       4.0728     -0.3518      0.1577
            y      -0.3081      4.1673     -0.2904
            z       0.2250     -0.0112      3.2623
-------------------------------------------------------------------------------
    3 Si    x       3.4465     -0.0842      0.3183
            y       0.0635      3.2641      0.0248
            z       0.3088     -0.0800      3.8446
-------------------------------------------------------------------------------
    4 Si    x       3.7622      0.0539     -0.2076
            y      -0.0499      3.2905     -0.0307
            z      -0.9910      0.0251      3.9390
-------------------------------------------------------------------------------
    5 Si    x       3.4532      0.0629      0.0675
            y      -0.0546      3.2539     -0.0198
            z       0.6126      0.0170      3.7662
-------------------------------------------------------------------------------
    6 Si    x       3.4874      0.0629     -0.3121
            y      -0.0815      3.2783     -0.0170
            z      -0.4150      0.0141      3.1464
-------------------------------------------------------------------------------
    7 Si    x       3.6126      0.0630      0.4880
            y      -0.0641      3.3215     -0.0024
            z       0.5130      0.0681      3.5728
-------------------------------------------------------------------------------
    8 Si    x       3.4879     -0.0757     -0.1036
            y       0.0569      3.2495      0.0171
            z      -0.5949     -0.0003      3.0534
-------------------------------------------------------------------------------
    9 Si    x       3.6516     -0.3227      0.0261
            y       0.0056      3.5070      0.0572
            z       0.6147     -0.0952      2.9819
-------------------------------------------------------------------------------
   10 Si    x       3.4443      0.4205     -0.2701
            y       0.3445      3.5592     -0.3630
            z      -0.2805     -0.1700      2.9903
-------------------------------------------------------------------------------
   11 Si    x       3.1890      0.2933      0.0615
            y       0.2168      3.4876      0.1428
            z       0.1518      0.0882      2.8138
-------------------------------------------------------------------------------
   12 Si    x       3.2018     -0.2841     -0.1046
            y      -0.2201      3.4481      0.1536
            z      -0.0871      0.0499      2.7817
-------------------------------------------------------------------------------
   13 Si    x       3.1986     -0.2842      0.1237
            y      -0.2199      3.4578     -0.1612
            z       0.1003     -0.0719      2.8120
-------------------------------------------------------------------------------
   14 Si    x       3.2011      0.2512     -0.0818
            y       0.2590      3.4345     -0.1513
            z      -0.0703     -0.0721      2.7912
-------------------------------------------------------------------------------
   15 Si    x       3.1915      0.2563      0.0871
            y       0.2721      3.4496      0.1658
            z       0.1103      0.0702      2.8095
-------------------------------------------------------------------------------
   16 Si    x       3.5251     -0.3861     -0.1858
            y      -0.4219      3.6184      0.2723
            z      -0.2540      0.0889      3.2759
-------------------------------------------------------------------------------
   17 Si    x       3.1964     -0.2379      0.0690
            y      -0.2870      3.4495     -0.1793
            z       0.1138     -0.0683      2.8196
-------------------------------------------------------------------------------
   18 Si    x       3.2364      0.2500     -0.1576
            y       0.2250      3.4132     -0.1782
            z      -0.1663     -0.0794      2.7474
-------------------------------------------------------------------------------
   19 Si    x       3.2313      0.2408      0.1484
            y       0.2146      3.3977      0.1792
            z       0.1259      0.0654      2.7236
-------------------------------------------------------------------------------
   20 Si    x       3.2528     -0.2976     -0.1559
            y      -0.1954      3.3735      0.1778
            z      -0.1421      0.0592      2.7346
-------------------------------------------------------------------------------
   21 Si    x       3.6039      0.3259     -0.0282
            y       0.1361      3.4870     -0.2109
            z      -0.0728     -0.0762      2.8110
-------------------------------------------------------------------------------
   22 Si    x       3.3774      0.2795      0.1918
            y      -0.0407      3.7031      0.1345
            z       0.1655     -0.0120      2.7493
-------------------------------------------------------------------------------
   23 Si    x       3.2116     -0.2955     -0.1801
            y      -0.1565      3.4330      0.1889
            z      -0.1219      0.0782      2.7471
-------------------------------------------------------------------------------
   24 Si    x       3.2193     -0.2800      0.1468
            y      -0.1559      3.4321     -0.1757
            z       0.1304     -0.0916      2.7482
-------------------------------------------------------------------------------
   25 O3    x      -2.1357     -0.9695      0.5645
            y      -0.9844     -2.2791      0.5458
            z       0.5949      0.5377     -1.6640
-------------------------------------------------------------------------------
   26 O2    x      -1.7510     -0.7466     -0.3605
            y      -0.7714     -1.9986     -0.3778
            z      -0.3771     -0.3547     -1.3409
-------------------------------------------------------------------------------
   27 O2    x      -1.7207      0.7177      0.2291
            y       0.7318     -1.9624     -0.2549
            z       0.3231     -0.2510     -1.3360
-------------------------------------------------------------------------------
   28 O2    x      -1.7223      0.7290     -0.2869
            y       0.7461     -1.9659      0.3213
            z      -0.3534      0.3053     -1.3489
-------------------------------------------------------------------------------
   29 O2    x      -1.6725     -0.7160      0.2528
            y      -0.6898     -2.0074      0.2842
            z       0.3444      0.2819     -1.3345
-------------------------------------------------------------------------------
   30 O2    x      -1.6721     -0.7255     -0.2764
            y      -0.7102     -2.0036     -0.2931
            z      -0.3588     -0.2974     -1.3420
-------------------------------------------------------------------------------
   31 O3    x      -2.0942      0.9559      0.5502
            y       0.9300     -2.3227     -0.5229
            z       0.5774     -0.5127     -1.6317
-------------------------------------------------------------------------------
   32 O2    x      -1.6780      0.7215     -0.3448
            y       0.7012     -2.0067      0.3389
            z      -0.3586      0.3417     -1.3609
-------------------------------------------------------------------------------
   33 O3    x      -2.1589      0.0174      1.1474
            y      -0.0043     -1.2022      0.0011
            z       1.4935     -0.0288     -3.3047
-------------------------------------------------------------------------------
   34 O2    x      -1.6284      0.0146     -0.8116
            y       0.0025     -1.0903      0.0158
            z      -1.0262      0.0414     -2.7608
-------------------------------------------------------------------------------
   35 O3    x      -2.0473      0.0018     -0.9248
            y       0.0102     -1.2176     -0.0092
            z      -0.9614     -0.0223     -2.8597
-------------------------------------------------------------------------------
   36 O2    x      -1.7367      0.0132      0.6954
            y       0.0098     -1.1048     -0.0053
            z       0.6957     -0.0094     -2.2181
-------------------------------------------------------------------------------
   37 O2    x      -1.7565      0.0551     -0.6873
            y       0.0256     -1.1485      0.0304
            z      -0.6657      0.0399     -2.1004
-------------------------------------------------------------------------------
   38 O2    x      -1.7476     -0.0099      0.7499
            y      -0.0055     -1.1208      0.0123
            z       0.7473      0.0205     -2.2172
-------------------------------------------------------------------------------
   39 O2    x      -1.6714     -0.7076      0.3926
            y      -0.6407     -2.0082      0.4107
            z       0.3778      0.3758     -1.2683
-------------------------------------------------------------------------------
   40 O2    x      -1.6650     -0.6882     -0.3704
            y      -0.6226     -2.0035     -0.3795
            z      -0.3441     -0.3512     -1.2781
-------------------------------------------------------------------------------
   41 O2    x      -1.6716      0.7228      0.3040
            y       0.6392     -1.9907     -0.3351
            z       0.3495     -0.3198     -1.2370
-------------------------------------------------------------------------------
   42 O3    x      -2.0050      0.9396     -0.3194
            y       0.8385     -2.5249      0.2952
            z      -0.4042      0.2768     -1.3572
-------------------------------------------------------------------------------
   43 O2    x      -1.7118     -0.7148      0.2656
            y      -0.6729     -1.9572      0.3063
            z       0.3168      0.2894     -1.2390
-------------------------------------------------------------------------------
   44 O2    x      -1.8354     -0.6753     -0.2792
            y      -0.6606     -1.8313     -0.3192
            z      -0.3347     -0.2653     -1.2374
-------------------------------------------------------------------------------
   45 O2    x      -1.7087      0.7199      0.3818
            y       0.6761     -1.9562     -0.3893
            z       0.3494     -0.3572     -1.2759
-------------------------------------------------------------------------------
   46 O2    x      -1.7107      0.7154     -0.3921
            y       0.6759     -1.9808      0.4116
            z      -0.3652      0.3724     -1.2821
-------------------------------------------------------------------------------
   47 O2    x      -1.8228     -0.0153     -0.5996
            y      -0.0121     -1.1626     -0.0061
            z      -0.3347     -0.0036     -1.7125
-------------------------------------------------------------------------------
   48 O2    x      -1.8571      0.0038      0.5570
            y      -0.0192     -1.1754     -0.0155
            z       0.2835     -0.0067     -1.6970
-------------------------------------------------------------------------------
   49 O2    x      -1.2135      0.0432      0.0481
            y       0.0684     -2.5221     -0.0114
            z       0.0718     -0.0069     -1.0731
-------------------------------------------------------------------------------
   50 O2    x      -1.1612      0.0312     -0.0494
            y       0.0788     -2.5768      0.0389
            z      -0.0758      0.0108     -1.0660
-------------------------------------------------------------------------------
   51 O2    x      -1.1601     -0.0240      0.0637
            y      -0.0479     -2.5529     -0.0167
            z       0.0720     -0.0102     -1.0672
-------------------------------------------------------------------------------
   52 O2    x      -1.1534     -0.0139     -0.0641
            y      -0.0401     -2.5607     -0.0148
            z      -0.0766     -0.0045     -1.0691
-------------------------------------------------------------------------------
   53 O2    x      -2.3865     -0.0534      0.0090
            y      -0.0211     -1.2399      0.0772
            z       0.0203      0.0449     -1.0955
-------------------------------------------------------------------------------
   54 O2    x      -2.3746     -0.0664      0.0577
            y      -0.0362     -1.2656     -0.0725
            z       0.0610     -0.0473     -1.1000
-------------------------------------------------------------------------------
   55 O2    x      -2.3879      0.0331      0.0062
            y       0.0136     -1.2395     -0.0668
            z      -0.0105     -0.0445     -1.0720
-------------------------------------------------------------------------------
   56 O2    x      -2.4083      0.0372     -0.0011
            y       0.0225     -1.2456      0.0634
            z       0.0006      0.0464     -1.0592
-------------------------------------------------------------------------------
   57 O2    x      -1.2273     -0.1459     -0.0673
            y      -0.0971     -1.3072     -0.0545
            z      -0.0527     -0.0701     -2.0158
-------------------------------------------------------------------------------
   58 O2    x      -1.1753     -0.1147      0.0395
            y      -0.0743     -1.2983     -0.0216
            z       0.0246     -0.0191     -2.0964
-------------------------------------------------------------------------------
   59 O2    x      -1.1772      0.1253     -0.0136
            y       0.0960     -1.2771      0.0012
            z      -0.0111      0.0109     -2.0622
-------------------------------------------------------------------------------
   60 O2    x      -1.1807      0.1318      0.0211
            y       0.1051     -1.2816      0.0157
            z       0.0127      0.0092     -2.0639
-------------------------------------------------------------------------------
   61 O2    x      -1.2013     -0.1302     -0.0242
            y      -0.1195     -1.2693      0.0188
            z      -0.0304      0.0224     -2.0509
-------------------------------------------------------------------------------
   62 O2    x      -1.1816     -0.1234      0.0178
            y      -0.1142     -1.2748      0.0005
            z       0.0214      0.0001     -2.0717
-------------------------------------------------------------------------------
   63 O3    x      -1.3638      0.1640     -0.1658
            y       0.1419     -1.4814      0.0937
            z      -0.1306      0.0343     -2.5438
-------------------------------------------------------------------------------
   64 O2    x      -1.1943      0.1303      0.0053
            y       0.1130     -1.2717     -0.0189
            z       0.0097     -0.0187     -2.0707
-------------------------------------------------------------------------------
   65 O2    x      -1.2093     -0.0247      0.0876
            y      -0.0473     -2.5181     -0.0102
            z       0.0971     -0.0007     -1.0263
-------------------------------------------------------------------------------
   66 O2    x      -1.2171     -0.0259     -0.0840
            y      -0.0532     -2.5176     -0.0109
            z      -0.0932     -0.0043     -1.0252
-------------------------------------------------------------------------------
   67 O2    x      -1.2256      0.0102      0.0814
            y       0.0491     -2.4810      0.0450
            z       0.0976      0.0339     -1.0335
-------------------------------------------------------------------------------
   68 O3    x      -1.4592      0.1721     -0.1097
            y       0.2112     -3.1064      0.0947
            z      -0.1379      0.0957     -1.1187
-------------------------------------------------------------------------------
   69 O2    x      -2.4082      0.0453      0.0098
            y       0.0227     -1.2366      0.0660
            z       0.0086      0.0433     -1.0447
-------------------------------------------------------------------------------
   70 O2    x      -2.4165      0.0496      0.0028
            y       0.0265     -1.2342     -0.0653
            z       0.0050     -0.0372     -1.0345
-------------------------------------------------------------------------------
   71 O2    x      -2.4565     -0.1280      0.0371
            y      -0.0828     -1.2325     -0.0513
            z       0.0150     -0.0163     -1.0521
-------------------------------------------------------------------------------
   72 O3    x      -3.0690     -0.0657     -0.0458
            y      -0.0194     -1.3628      0.0908
            z      -0.0811      0.0356     -1.2167
-------------------------------------------------------------------------------




  Elastic Constant Matrix: (Units=GPa)

-------------------------------------------------------------------------------
  Indices      1         2         3         4         5         6    
-------------------------------------------------------------------------------
       1     52.7143   21.5839   26.6494    0.2789   -4.3802   -3.5952
       2     21.5839   62.8663   27.4243    0.9810   -5.5099   -4.4365
       3     26.6494   27.4243   25.5091   -0.4772    0.3737   -1.4395
       4      0.2789    0.9810   -0.4772   11.5622   -0.7454    0.7928
       5     -4.3802   -5.5099    0.3737   -0.7454   25.3871   -1.6206
       6     -3.5952   -4.4365   -1.4395    0.7928   -1.6206   22.0374
-------------------------------------------------------------------------------


  Elastic Compliance Matrix: (Units=1/GPa)

-------------------------------------------------------------------------------
  Indices      1         2         3         4         5         6    
-------------------------------------------------------------------------------
       1    0.046953  0.012919 -0.062796 -0.004531  0.012157  0.007216
       2    0.012919  0.035461 -0.051489 -0.005210  0.010969  0.006877
       3   -0.062796 -0.051489  0.160043  0.011739 -0.024813 -0.012403
       4   -0.004531 -0.005210  0.011739  0.087824  0.000227 -0.004164
       5    0.012157  0.010969 -0.024813  0.000227  0.044613  0.005843
       6    0.007216  0.006877 -0.012403 -0.004164  0.005843  0.047709
-------------------------------------------------------------------------------

  Mechanical properties :

-------------------------------------------------------------------------------
  Convention :                    Reuss         Voigt         Hill
-------------------------------------------------------------------------------
  Bulk  Modulus (GPa)     =      25.17417      32.48943      28.83180
  Shear Modulus (GPa)     =       7.82990      16.15948      11.99469
-------------------------------------------------------------------------------
  Velocity S-wave (km/s)  =       2.03052       2.91704       2.51318
  Velocity P-wave (km/s)  =       4.33051       5.33418       4.85833
-------------------------------------------------------------------------------
  Compressibility (1/GPa) =    0.03972326
-------------------------------------------------------------------------------
  Stress axis :                     x             y             z
-------------------------------------------------------------------------------
  Youngs Moduli (GPa)     =      21.29785      28.20026       6.24833
-------------------------------------------------------------------------------
  Poissons Ratio (x)      =                    -0.36431       0.39237
  Poissons Ratio (y)      =      -0.27514                     0.32172
  Poissons Ratio (z)      =       1.33742       1.45201
-------------------------------------------------------------------------------


  Piezoelectric Strain Matrix: (Units=C/m**2)

-------------------------------------------------------------------------------
  Indices      1         2         3         4         5         6    
-------------------------------------------------------------------------------
       x     0.29308   0.59410  -0.33202  -0.00848  -0.41695   0.14178
       y     0.44011   0.00119  -0.06388  -0.17047   0.08894   0.41833
       z    -0.52572  -0.97990   1.59967   0.09748  -0.46953   0.12529
-------------------------------------------------------------------------------


  Piezoelectric Stress Matrix: (Units=10**-11 C/N)

-------------------------------------------------------------------------------
  Indices      1         2         3         4         5         6    
-------------------------------------------------------------------------------
       x     3.82780   3.83944  -9.36435  -0.97509   0.05430   1.46817
       y     2.95634   1.37574  -4.73182  -1.94435   1.33219   2.51637
       z   -14.30421 -12.87018  35.07236   3.41983  -7.70252  -2.75460
-------------------------------------------------------------------------------


  Static dielectric constant tensor : 

-------------------------------------------------------------------------------
              x         y         z
-------------------------------------------------------------------------------
       x     3.78407  -0.03476  -0.07183
       y    -0.03476   3.93483  -0.03043
       z    -0.07183  -0.03043   3.22740
--------------------------------------------------------------------------------

  High frequency dielectric constant tensor : 

-------------------------------------------------------------------------------
              x         y         z
-------------------------------------------------------------------------------
       x     1.68501  -0.00017  -0.00056
       y    -0.00017   1.69256  -0.00064
       z    -0.00056  -0.00064   1.62243
-------------------------------------------------------------------------------

  Static refractive indices : 

-------------------------------------------------------------------------------
    1 =    1.79349      2 =    1.94600      3 =    1.98564
-------------------------------------------------------------------------------

  High frequency refractive indices : 

-------------------------------------------------------------------------------
    1 =    1.27374      2 =    1.29808      3 =    1.30099
-------------------------------------------------------------------------------


  Time to end of optimisation =      12.1464 seconds


  Peak dynamic memory used =       5.01 MB 


  Timing analysis for GULP :

--------------------------------------------------------------------------------
  Task / Subroutine                                          Time (Seconds)
--------------------------------------------------------------------------------
  Calculation of reciprocal space energy and derivatives          0.6627
  Calculation of real space energy and derivatives                7.3042
  Calculation of three-body energy and derivatives                0.8108
  Calculation and manipulation of Hessian matrix                  3.8517
  Calculation of matrix inversion                                 0.0205
  Global summation overhead                                       0.0002
--------------------------------------------------------------------------------
  Total CPU time                                                 12.1464
--------------------------------------------------------------------------------


  Dump file written as c00015.vasp.grs
  CIF file written as c00015.vasp.cif


  Job Finished at 10:49.17  7th October    2025                               

