|===============================================================================
|
|  DFTB+ release 24.1
|
|  Copyright (C) 2006 - 2024  DFTB+ developers group
|
|===============================================================================
|
|  When publishing results obtained with DFTB+, please cite the following
|  reference:
|
|  * DFTB+, a software package for efficient approximate density functional
|    theory based atomistic simulations, J. Chem. Phys. 152, 124101 (2020).
|    [doi: 10.1063/1.5143190]
|
|  You should also cite additional publications crediting the parametrization
|  data you use. Please consult the documentation of the SK-files for the
|  references.
|
|===============================================================================

Reading input file 'dftb_in.hsd'
Parser version: 14

--------------------------------------------------------------------------------
Reading SK-files:
./SKFiles/Ge-Ge.skf
./SKFiles/Ge-Si.skf
./SKFiles/Ge-O.skf
./SKFiles/Si-Si.skf
./SKFiles/Si-O.skf
./SKFiles/O-O.skf
Done.


Processed input in HSD format written to 'dftb_pin.hsd'

Starting initialization...
--------------------------------------------------------------------------------
WARNING!
-> Dipole printed for extended system : value printed is not well defined
MPI processes:               1
OpenMP threads:              8
BLACS orbital grid size:     1 x 1
BLACS atom grid size:        1 x 1
Chosen random seed:          171449728
Current stacksize:           unlimited
Mode:                        Static calculation
Self consistent charges:     Yes
SCC-tolerance:                 0.100000E-07
Max. scc iterations:                    500
Shell resolved Hubbard:      No
Spin polarisation:           No
Nr. of up electrons:           192.000000
Nr. of down electrons:         192.000000
Periodic boundaries:         Yes
Electronic solver:           Relatively robust
Mixer:                       Broyden mixer
Mixing parameter:                  0.200000
Maximal SCC-cycles:                     500
Nr. of chrg. vec. in memory:            500
Electronic temperature:              0.100000E-07 H      0.272114E-06 eV
Initial charges:             Set automatically (system chrg:   0.000E+00)
Included shells:            Ge:  s, p, d
                            Si:  s, p, d
                             O:  s, p
K-points and weights:           1:  0.500000  0.500000  0.500000     1.000000

K-points in absolute space:     1:  0.025319  0.017606  0.037774

Extra options:
                             Mulliken analysis
Force type                   original

--------------------------------------------------------------------------------

***  Geometry step: 0

 iSCC Total electronic   Diff electronic      SCC error    
    1    0.00000000E+00    0.00000000E+00    0.14260921E+01
    2   -0.19744974E+03   -0.19744974E+03    0.96698244E+00
    3   -0.19779143E+03   -0.34169552E+00    0.37976852E-01
    4   -0.19807901E+03   -0.28757683E+00    0.23497977E-01
    5   -0.19808055E+03   -0.15459623E-02    0.33903570E-02
    6   -0.19808066E+03   -0.10329812E-03    0.12569540E-02
    7   -0.19808066E+03   -0.22740329E-05    0.29226513E-03
    8   -0.19808066E+03   -0.53522714E-06    0.38052958E-04
    9   -0.19808066E+03   -0.32209869E-07    0.15754456E-04
   10   -0.19808066E+03   -0.17760726E-09    0.29576482E-05
   11   -0.19808066E+03   -0.48316906E-10    0.30415651E-06
   12   -0.19808066E+03   -0.24442670E-11    0.13552471E-06
   13   -0.19808066E+03   -0.85265128E-13    0.18635228E-07
   14   -0.19808066E+03    0.56843419E-13    0.43279562E-08

Total Energy:                     -190.3509454859 H        -5179.7128 eV
Extrapolated to 0K:               -190.3509454859 H        -5179.7128 eV
Total Mermin free energy:         -190.3509454859 H        -5179.7128 eV
Force related energy:             -190.3509454859 H        -5179.7128 eV

Volume:                              0.913789E+04 au^3   0.135410E+04 A^3
Pressure:                            0.258306E-02 au     0.759963E+11 Pa
>> Charges saved for restart in charges.bin

total energy  -1.9035095E+02 H       energy change -1.9035095E+02 H
gradient norm  2.3291185E+00 H/a0    max. gradient  1.3963641E+00 H/a0
step length    0.0000000E+00 a0      max. step      0.0000000E+00 a0

--------------------------------------------------------------------------------

***  Geometry step: 1

 iSCC Total electronic   Diff electronic      SCC error    
    1   -0.19808066E+03    0.00000000E+00    0.13992423E+00
    2   -0.19737697E+03    0.70369279E+00    0.67252811E-01
    3   -0.19739479E+03   -0.17824738E-01    0.22744840E-01
    4   -0.19739796E+03   -0.31691156E-02    0.20968304E-02
    5   -0.19739805E+03   -0.83725412E-04    0.86154825E-03
    6   -0.19739805E+03   -0.44259020E-05    0.24802523E-03
    7   -0.19739805E+03   -0.16705030E-06    0.42794068E-04
    8   -0.19739805E+03   -0.21283711E-07    0.97512064E-05
    9   -0.19739805E+03   -0.11118004E-08    0.37975816E-05
   10   -0.19739805E+03   -0.22367885E-10    0.89041129E-06
   11   -0.19739805E+03   -0.10516032E-11    0.13345311E-06
   12   -0.19739805E+03   -0.25579538E-12    0.28463143E-07
   13   -0.19739805E+03    0.00000000E+00    0.37996437E-08

Total Energy:                     -191.0560977859 H        -5198.9009 eV
Extrapolated to 0K:               -191.0560977859 H        -5198.9009 eV
Total Mermin free energy:         -191.0560977859 H        -5198.9009 eV
Force related energy:             -191.0560977859 H        -5198.9009 eV

Volume:                              0.972605E+04 au^3   0.144125E+04 A^3
Pressure:                            0.185103E-02 au     0.544592E+11 Pa
>> Charges saved for restart in charges.bin

total energy  -1.9105610E+02 H       energy change -7.0515230E-01 H
gradient norm  1.4890232E+00 H/a0    max. gradient  2.7312052E-01 H/a0
step length    8.0810933E-01 a0      max. step      4.8448152E-01 a0

--------------------------------------------------------------------------------

***  Geometry step: 2

 iSCC Total electronic   Diff electronic      SCC error    
    1   -0.19739805E+03    0.00000000E+00    0.48016360E-01
    2   -0.19703562E+03    0.36242599E+00    0.24676482E-01
    3   -0.19703909E+03   -0.34626013E-02    0.71823275E-02
    4   -0.19703975E+03   -0.66764630E-03    0.92486817E-03
    5   -0.19703977E+03   -0.18708037E-04    0.22056086E-03
    6   -0.19703977E+03   -0.12419117E-05    0.10725287E-03
    7   -0.19703977E+03   -0.21653221E-07    0.17909158E-04
    8   -0.19703977E+03   -0.26797977E-08    0.20821733E-05
    9   -0.19703977E+03   -0.23811708E-09    0.84439591E-06
   10   -0.19703977E+03   -0.26716407E-11    0.27306984E-06
   11   -0.19703977E+03   -0.85265128E-13    0.57728021E-07
   12   -0.19703977E+03    0.85265128E-13    0.14469241E-07
   13   -0.19703977E+03   -0.14210855E-12    0.17017490E-08

Total Energy:                     -191.8587275762 H        -5220.7416 eV
Extrapolated to 0K:               -191.8587275762 H        -5220.7416 eV
Total Mermin free energy:         -191.8587275762 H        -5220.7416 eV
Force related energy:             -191.8587275762 H        -5220.7416 eV

Volume:                              0.988735E+04 au^3   0.146515E+04 A^3
Pressure:                            0.137727E-02 au     0.405207E+11 Pa
>> Charges saved for restart in charges.bin

total energy  -1.9185873E+02 H       energy change -8.0262979E-01 H
gradient norm  9.7343851E-01 H/a0    max. gradient  1.9487116E-01 H/a0
step length    7.4028004E-01 a0      max. step      1.5266012E-01 a0

--------------------------------------------------------------------------------

***  Geometry step: 3

 iSCC Total electronic   Diff electronic      SCC error    
    1   -0.19703977E+03    0.00000000E+00    0.73023811E-01
    2   -0.19665240E+03    0.38737199E+00    0.30114710E-01
    3   -0.19665692E+03   -0.45180656E-02    0.10636570E-01
    4   -0.19665766E+03   -0.74364116E-03    0.12361177E-02
    5   -0.19665770E+03   -0.37450699E-04    0.23898101E-03
    6   -0.19665770E+03   -0.17416978E-05    0.12413645E-03
    7   -0.19665770E+03   -0.33110240E-07    0.20438163E-04
    8   -0.19665770E+03   -0.32125627E-08    0.49042206E-05
    9   -0.19665770E+03   -0.39352699E-09    0.17405183E-05
   10   -0.19665770E+03   -0.84696694E-11    0.54869719E-06
   11   -0.19665770E+03   -0.14210855E-12    0.11989043E-06
   12   -0.19665770E+03   -0.56843419E-13    0.19627203E-07
   13   -0.19665770E+03    0.28421709E-13    0.24001330E-08

Total Energy:                     -192.4456065986 H        -5236.7114 eV
Extrapolated to 0K:               -192.4456065986 H        -5236.7114 eV
Total Mermin free energy:         -192.4456065986 H        -5236.7114 eV
Force related energy:             -192.4456065986 H        -5236.7114 eV

Volume:                              0.100121E+05 au^3   0.148364E+04 A^3
Pressure:                            0.993611E-03 au     0.292330E+11 Pa
>> Charges saved for restart in charges.bin

total energy  -1.9244561E+02 H       energy change -5.8687902E-01 H
gradient norm  6.3084842E-01 H/a0    max. gradient  1.1566467E-01 H/a0
step length    7.9878422E-01 a0      max. step      1.8990633E-01 a0

--------------------------------------------------------------------------------

***  Geometry step: 4

 iSCC Total electronic   Diff electronic      SCC error    
    1   -0.19665770E+03    0.00000000E+00    0.58565861E-01
    2   -0.19625579E+03    0.40191011E+00    0.35015526E-01
    3   -0.19625868E+03   -0.28860168E-02    0.59142406E-02
    4   -0.19625934E+03   -0.65881162E-03    0.87026380E-03
    5   -0.19625938E+03   -0.40859286E-04    0.26700998E-03
    6   -0.19625938E+03   -0.11916644E-05    0.89289000E-04
    7   -0.19625938E+03   -0.20036850E-07    0.14316373E-04
    8   -0.19625938E+03   -0.20790765E-08    0.28643373E-05
    9   -0.19625938E+03   -0.22046720E-09    0.10466161E-05
   10   -0.19625938E+03   -0.33821834E-11    0.27829755E-06
   11   -0.19625938E+03   -0.28421709E-12    0.82212437E-07
   12   -0.19625938E+03    0.56843419E-13    0.24073343E-07
   13   -0.19625938E+03    0.00000000E+00    0.38375982E-08

Total Energy:                     -192.7992669107 H        -5246.3350 eV
Extrapolated to 0K:               -192.7992669107 H        -5246.3350 eV
Total Mermin free energy:         -192.7992669107 H        -5246.3350 eV
Force related energy:             -192.7992669107 H        -5246.3350 eV

Volume:                              0.101393E+05 au^3   0.150249E+04 A^3
Pressure:                            0.692132E-03 au     0.203632E+11 Pa
>> Charges saved for restart in charges.bin

total energy  -1.9279927E+02 H       energy change -3.5366031E-01 H
gradient norm  4.7988646E-01 H/a0    max. gradient  2.6230428E-01 H/a0
step length    7.6551705E-01 a0      max. step      1.2932688E-01 a0

--------------------------------------------------------------------------------

***  Geometry step: 5

 iSCC Total electronic   Diff electronic      SCC error    
    1   -0.19625938E+03    0.00000000E+00    0.63317349E-01
    2   -0.19580808E+03    0.45129741E+00    0.38677432E-01
    3   -0.19580994E+03   -0.18552016E-02    0.66899895E-02
    4   -0.19581042E+03   -0.48411471E-03    0.12011653E-02
    5   -0.19581045E+03   -0.30844189E-04    0.30418860E-03
    6   -0.19581045E+03   -0.75467474E-06    0.99071281E-04
    7   -0.19581045E+03   -0.16569999E-07    0.30462341E-04
    8   -0.19581045E+03   -0.13310171E-08    0.64643919E-05
    9   -0.19581045E+03   -0.15847945E-09    0.20098621E-05
   10   -0.19581045E+03   -0.63380412E-11    0.28107093E-06
   11   -0.19581045E+03   -0.31263880E-12    0.33699350E-07
   12   -0.19581045E+03    0.00000000E+00    0.97182538E-08

Total Energy:                     -193.0095745354 H        -5252.0577 eV
Extrapolated to 0K:               -193.0095745354 H        -5252.0577 eV
Total Mermin free energy:         -193.0095745354 H        -5252.0577 eV
Force related energy:             -193.0095745354 H        -5252.0577 eV

Volume:                              0.103359E+05 au^3   0.153162E+04 A^3
Pressure:                            0.422169E-03 au     0.124206E+11 Pa
>> Charges saved for restart in charges.bin

total energy  -1.9300957E+02 H       energy change -2.1030762E-01 H
gradient norm  3.2274630E-01 H/a0    max. gradient  1.5765189E-01 H/a0
step length    7.1835640E-01 a0      max. step      2.4084003E-01 a0

--------------------------------------------------------------------------------

***  Geometry step: 6

 iSCC Total electronic   Diff electronic      SCC error    
    1   -0.19581045E+03    0.00000000E+00    0.53592552E-01
    2   -0.19546098E+03    0.34947409E+00    0.30231586E-01
    3   -0.19546257E+03   -0.15927101E-02    0.41326902E-02
    4   -0.19546295E+03   -0.37521554E-03    0.72535619E-03
    5   -0.19546297E+03   -0.17343343E-04    0.23245196E-03
    6   -0.19546297E+03   -0.61704966E-06    0.85572482E-04
    7   -0.19546297E+03   -0.99371391E-08    0.21598763E-04
    8   -0.19546297E+03   -0.85029228E-09    0.55497501E-05
    9   -0.19546297E+03   -0.10135182E-09    0.18020044E-05
   10   -0.19546297E+03   -0.30127012E-11    0.21719136E-06
   11   -0.19546297E+03   -0.28421709E-13    0.29841868E-07
   12   -0.19546297E+03   -0.14210855E-12    0.83076226E-08

Total Energy:                     -193.1079740949 H        -5254.7353 eV
Extrapolated to 0K:               -193.1079740949 H        -5254.7353 eV
Total Mermin free energy:         -193.1079740949 H        -5254.7353 eV
Force related energy:             -193.1079740949 H        -5254.7353 eV

Volume:                              0.104852E+05 au^3   0.155374E+04 A^3
Pressure:                            0.242327E-03 au     0.712950E+10 Pa
>> Charges saved for restart in charges.bin

total energy  -1.9310797E+02 H       energy change -9.8399559E-02 H
gradient norm  1.9299462E-01 H/a0    max. gradient  9.5754784E-02 H/a0
step length    5.9768774E-01 a0      max. step      1.1286074E-01 a0

--------------------------------------------------------------------------------

***  Geometry step: 7

 iSCC Total electronic   Diff electronic      SCC error    
    1   -0.19546297E+03    0.00000000E+00    0.40500536E-01
    2   -0.19524261E+03    0.22035424E+00    0.19826516E-01
    3   -0.19524365E+03   -0.10349864E-02    0.31624141E-02
    4   -0.19524384E+03   -0.19650269E-03    0.51011675E-03
    5   -0.19524385E+03   -0.68511613E-05    0.15224803E-03
    6   -0.19524385E+03   -0.28274161E-06    0.39672322E-04
    7   -0.19524385E+03   -0.68603185E-08    0.10963763E-04
    8   -0.19524385E+03   -0.37826453E-09    0.31341248E-05
    9   -0.19524385E+03   -0.32400749E-10    0.10853453E-05
   10   -0.19524385E+03   -0.26432190E-11    0.22714693E-06
   11   -0.19524385E+03   -0.11368684E-12    0.20874181E-07
   12   -0.19524385E+03    0.56843419E-13    0.40229406E-08

Total Energy:                     -193.1464044962 H        -5255.7811 eV
Extrapolated to 0K:               -193.1464044962 H        -5255.7811 eV
Total Mermin free energy:         -193.1464044962 H        -5255.7811 eV
Force related energy:             -193.1464044962 H        -5255.7811 eV

Volume:                              0.105825E+05 au^3   0.156816E+04 A^3
Pressure:                            0.140642E-03 au     0.413783E+10 Pa
>> Charges saved for restart in charges.bin

total energy  -1.9314640E+02 H       energy change -3.8430401E-02 H
gradient norm  1.5904663E-01 H/a0    max. gradient  8.3506130E-02 H/a0
step length    4.7207478E-01 a0      max. step      8.8045990E-02 a0

--------------------------------------------------------------------------------

***  Geometry step: 8

 iSCC Total electronic   Diff electronic      SCC error    
    1   -0.19524385E+03    0.00000000E+00    0.20061860E-01
    2   -0.19513229E+03    0.11155892E+00    0.80312756E-02
    3   -0.19513270E+03   -0.40748990E-03    0.21248343E-02
    4   -0.19513277E+03   -0.70118390E-04    0.37070648E-03
    5   -0.19513277E+03   -0.18521501E-05    0.91553403E-04
    6   -0.19513277E+03   -0.10247021E-06    0.24342529E-04
    7   -0.19513277E+03   -0.54699854E-08    0.77484249E-05
    8   -0.19513277E+03   -0.23862867E-09    0.24891579E-05
    9   -0.19513277E+03   -0.10118129E-10    0.80936417E-06
   10   -0.19513277E+03   -0.96633812E-12    0.13735317E-06
   11   -0.19513277E+03   -0.56843419E-13    0.19827536E-07
   12   -0.19513277E+03    0.00000000E+00    0.30423593E-08

Total Energy:                     -193.1677917576 H        -5256.3631 eV
Extrapolated to 0K:               -193.1677917576 H        -5256.3631 eV
Total Mermin free energy:         -193.1677917576 H        -5256.3631 eV
Force related energy:             -193.1677917576 H        -5256.3631 eV

Volume:                              0.106442E+05 au^3   0.157731E+04 A^3
Pressure:                            0.830435E-04 au     0.244322E+10 Pa
>> Charges saved for restart in charges.bin

total energy  -1.9316779E+02 H       energy change -2.1387261E-02 H
gradient norm  1.2294272E-01 H/a0    max. gradient  3.5334762E-02 H/a0
step length    3.4947107E-01 a0      max. step      7.4274070E-02 a0

--------------------------------------------------------------------------------

***  Geometry step: 9

 iSCC Total electronic   Diff electronic      SCC error    
    1   -0.19513277E+03    0.00000000E+00    0.20084647E-01
    2   -0.19511629E+03    0.16475845E-01    0.11853462E-01
    3   -0.19511668E+03   -0.38275277E-03    0.40381678E-02
    4   -0.19511673E+03   -0.51490448E-04    0.45630249E-03
    5   -0.19511673E+03   -0.19771191E-05    0.54898164E-04
    6   -0.19511673E+03   -0.22842985E-06    0.19657559E-04
    7   -0.19511673E+03   -0.35227572E-08    0.63070820E-05
    8   -0.19511673E+03   -0.13079671E-09    0.19265963E-05
    9   -0.19511673E+03   -0.61959327E-11    0.36545414E-06
   10   -0.19511673E+03   -0.76738615E-12    0.10963659E-06
   11   -0.19511673E+03    0.56843419E-13    0.20782503E-07
   12   -0.19511673E+03   -0.28421709E-13    0.24371944E-08

Total Energy:                     -193.1865494949 H        -5256.8735 eV
Extrapolated to 0K:               -193.1865494949 H        -5256.8735 eV
Total Mermin free energy:         -193.1865494949 H        -5256.8735 eV
Force related energy:             -193.1865494949 H        -5256.8735 eV

Volume:                              0.106683E+05 au^3   0.158087E+04 A^3
Pressure:                            0.642209E-04 au     0.188944E+10 Pa
>> Charges saved for restart in charges.bin

total energy  -1.9318655E+02 H       energy change -1.8757737E-02 H
gradient norm  1.0959888E-01 H/a0    max. gradient  2.9667578E-02 H/a0
step length    3.2199639E-01 a0      max. step      5.5729095E-02 a0

--------------------------------------------------------------------------------

***  Geometry step: 10

 iSCC Total electronic   Diff electronic      SCC error    
    1   -0.19511673E+03    0.00000000E+00    0.31181578E-01
    2   -0.19515561E+03   -0.38883492E-01    0.17837276E-01
    3   -0.19515618E+03   -0.56719504E-03    0.28591922E-02
    4   -0.19515630E+03   -0.11859578E-03    0.51027241E-03
    5   -0.19515631E+03   -0.61557266E-05    0.17808105E-03
    6   -0.19515631E+03   -0.20118125E-06    0.56845978E-04
    7   -0.19515631E+03   -0.46280206E-08    0.10918610E-04
    8   -0.19515631E+03   -0.24041924E-09    0.29664179E-05
    9   -0.19515631E+03   -0.24101610E-10    0.73926765E-06
   10   -0.19515631E+03   -0.14210855E-11    0.13535423E-06
   11   -0.19515631E+03   -0.19895197E-12    0.13210681E-07
   12   -0.19515631E+03    0.56843419E-13    0.32914920E-08

Total Energy:                     -193.2102493447 H        -5257.5184 eV
Extrapolated to 0K:               -193.2102493447 H        -5257.5184 eV
Total Mermin free energy:         -193.2102493447 H        -5257.5184 eV
Force related energy:             -193.2102493447 H        -5257.5184 eV

Volume:                              0.106866E+05 au^3   0.158359E+04 A^3
Pressure:                            0.657621E-04 au     0.193479E+10 Pa
>> Charges saved for restart in charges.bin

total energy  -1.9321025E+02 H       energy change -2.3699850E-02 H
gradient norm  9.8347230E-02 H/a0    max. gradient  3.2067000E-02 H/a0
step length    4.5317023E-01 a0      max. step      7.2290400E-02 a0

--------------------------------------------------------------------------------

***  Geometry step: 11

 iSCC Total electronic   Diff electronic      SCC error    
    1   -0.19515631E+03    0.00000000E+00    0.26886072E-01
    2   -0.19521124E+03   -0.54931549E-01    0.15788031E-01
    3   -0.19521174E+03   -0.50154039E-03    0.26172225E-02
    4   -0.19521186E+03   -0.12275961E-03    0.49262206E-03
    5   -0.19521187E+03   -0.56787534E-05    0.19820001E-03
    6   -0.19521187E+03   -0.21220438E-06    0.59450430E-04
    7   -0.19521187E+03   -0.63915593E-08    0.12884892E-04
    8   -0.19521187E+03   -0.22689051E-09    0.27102397E-05
    9   -0.19521187E+03   -0.22595259E-10    0.58022725E-06
   10   -0.19521187E+03   -0.27000624E-11    0.10393647E-06
   11   -0.19521187E+03   -0.56843419E-13    0.14091196E-07
   12   -0.19521187E+03    0.28421709E-13    0.24909723E-08

Total Energy:                     -193.2262324739 H        -5257.9533 eV
Extrapolated to 0K:               -193.2262324739 H        -5257.9533 eV
Total Mermin free energy:         -193.2262324739 H        -5257.9533 eV
Force related energy:             -193.2262324739 H        -5257.9533 eV

Volume:                              0.106987E+05 au^3   0.158538E+04 A^3
Pressure:                            0.755809E-04 au     0.222367E+10 Pa
>> Charges saved for restart in charges.bin

total energy  -1.9322623E+02 H       energy change -1.5983129E-02 H
gradient norm  8.1903556E-02 H/a0    max. gradient  2.0214759E-02 H/a0
step length    3.9371555E-01 a0      max. step      5.5016824E-02 a0

--------------------------------------------------------------------------------

***  Geometry step: 12

 iSCC Total electronic   Diff electronic      SCC error    
    1   -0.19521187E+03    0.00000000E+00    0.24022427E-01
    2   -0.19524505E+03   -0.33179291E-01    0.14359668E-01
    3   -0.19524525E+03   -0.20522930E-03    0.14070506E-02
    4   -0.19524531E+03   -0.61207264E-04    0.43246713E-03
    5   -0.19524532E+03   -0.26015126E-05    0.19083625E-03
    6   -0.19524532E+03   -0.40739337E-07    0.47507118E-04
    7   -0.19524532E+03   -0.17494699E-08    0.71492012E-05
    8   -0.19524532E+03   -0.12354917E-09    0.11690414E-05
    9   -0.19524532E+03   -0.10459189E-10    0.22532071E-06
   10   -0.19524532E+03   -0.59685590E-12    0.45943558E-07
   11   -0.19524532E+03   -0.85265128E-13    0.72744393E-08

Total Energy:                     -193.2377341961 H        -5258.2663 eV
Extrapolated to 0K:               -193.2377341961 H        -5258.2663 eV
Total Mermin free energy:         -193.2377341961 H        -5258.2663 eV
Force related energy:             -193.2377341961 H        -5258.2663 eV

Volume:                              0.107226E+05 au^3   0.158893E+04 A^3
Pressure:                            0.785213E-04 au     0.231018E+10 Pa
>> Charges saved for restart in charges.bin

total energy  -1.9323773E+02 H       energy change -1.1501722E-02 H
gradient norm  7.2901975E-02 H/a0    max. gradient  1.6184039E-02 H/a0
step length    3.4189563E-01 a0      max. step      5.0286524E-02 a0

--------------------------------------------------------------------------------

***  Geometry step: 13

 iSCC Total electronic   Diff electronic      SCC error    
    1   -0.19524532E+03    0.00000000E+00    0.22823297E-01
    2   -0.19525480E+03   -0.94862910E-02    0.13196247E-01
    3   -0.19525495E+03   -0.14568869E-03    0.16229017E-02
    4   -0.19525499E+03   -0.45159586E-04    0.31873219E-03
    5   -0.19525500E+03   -0.19261703E-05    0.13303664E-03
    6   -0.19525500E+03   -0.26586832E-07    0.46760292E-04
    7   -0.19525500E+03   -0.66262373E-09    0.65258095E-05
    8   -0.19525500E+03   -0.88277829E-10    0.90340165E-06
    9   -0.19525500E+03   -0.61390892E-11    0.26964464E-06
   10   -0.19525500E+03   -0.25579538E-12    0.31607084E-07
   11   -0.19525500E+03    0.56843419E-13    0.60637371E-08

Total Energy:                     -193.2475503694 H        -5258.5334 eV
Extrapolated to 0K:               -193.2475503694 H        -5258.5334 eV
Total Mermin free energy:         -193.2475503694 H        -5258.5334 eV
Force related energy:             -193.2475503694 H        -5258.5334 eV

Volume:                              0.107641E+05 au^3   0.159508E+04 A^3
Pressure:                            0.717769E-04 au     0.211175E+10 Pa
>> Charges saved for restart in charges.bin

total energy  -1.9324755E+02 H       energy change -9.8161733E-03 H
gradient norm  6.3458046E-02 H/a0    max. gradient  1.2943575E-02 H/a0
step length    3.2777342E-01 a0      max. step      5.2278545E-02 a0

--------------------------------------------------------------------------------

***  Geometry step: 14

 iSCC Total electronic   Diff electronic      SCC error    
    1   -0.19525500E+03    0.00000000E+00    0.17182124E-01
    2   -0.19524300E+03    0.11999920E-01    0.98468715E-02
    3   -0.19524309E+03   -0.90346486E-04    0.13239507E-02
    4   -0.19524311E+03   -0.26655526E-04    0.22942698E-03
    5   -0.19524311E+03   -0.11913449E-05    0.99490345E-04
    6   -0.19524311E+03   -0.32979813E-07    0.34261118E-04
    7   -0.19524311E+03   -0.68735062E-09    0.65247918E-05
    8   -0.19524311E+03   -0.46725290E-10    0.93906909E-06
    9   -0.19524311E+03   -0.43485215E-11    0.17791851E-06
   10   -0.19524311E+03   -0.36948222E-12    0.24770730E-07
   11   -0.19524311E+03   -0.56843419E-13    0.33126422E-08

Total Energy:                     -193.2544576106 H        -5258.7214 eV
Extrapolated to 0K:               -193.2544576106 H        -5258.7214 eV
Total Mermin free energy:         -193.2544576106 H        -5258.7214 eV
Force related energy:             -193.2544576106 H        -5258.7214 eV

Volume:                              0.108148E+05 au^3   0.160259E+04 A^3
Pressure:                            0.610168E-04 au     0.179518E+10 Pa
>> Charges saved for restart in charges.bin

total energy  -1.9325446E+02 H       energy change -6.9072411E-03 H
gradient norm  5.6412763E-02 H/a0    max. gradient  1.2037052E-02 H/a0
step length    2.8497836E-01 a0      max. step      4.7150732E-02 a0

--------------------------------------------------------------------------------

***  Geometry step: 15

 iSCC Total electronic   Diff electronic      SCC error    
    1   -0.19524311E+03    0.00000000E+00    0.88700100E-02
    2   -0.19521437E+03    0.28747884E-01    0.52002991E-02
    3   -0.19521441E+03   -0.44910611E-04    0.76499609E-03
    4   -0.19521442E+03   -0.11392179E-04    0.17721348E-03
    5   -0.19521442E+03   -0.54646489E-06    0.45128827E-04
    6   -0.19521442E+03   -0.20952626E-07    0.17856238E-04
    7   -0.19521442E+03   -0.47111826E-09    0.47368924E-05
    8   -0.19521442E+03   -0.17706725E-10    0.10373036E-05
    9   -0.19521442E+03   -0.20179414E-11    0.17003148E-06
   10   -0.19521442E+03   -0.19895197E-12    0.28399732E-07
   11   -0.19521442E+03    0.00000000E+00    0.33789198E-08

Total Energy:                     -193.2592135168 H        -5258.8508 eV
Extrapolated to 0K:               -193.2592135168 H        -5258.8508 eV
Total Mermin free energy:         -193.2592135168 H        -5258.8508 eV
Force related energy:             -193.2592135168 H        -5258.8508 eV

Volume:                              0.108672E+05 au^3   0.161035E+04 A^3
Pressure:                            0.456986E-04 au     0.134450E+10 Pa
>> Charges saved for restart in charges.bin

total energy  -1.9325921E+02 H       energy change -4.7559062E-03 H
gradient norm  4.9685686E-02 H/a0    max. gradient  8.6963642E-03 H/a0
step length    2.3779934E-01 a0      max. step      4.4799591E-02 a0

--------------------------------------------------------------------------------

***  Geometry step: 16

 iSCC Total electronic   Diff electronic      SCC error    
    1   -0.19521442E+03    0.00000000E+00    0.10349001E-01
    2   -0.19518314E+03    0.31285554E-01    0.59555302E-02
    3   -0.19518317E+03   -0.35491512E-04    0.11445572E-02
    4   -0.19518318E+03   -0.69397035E-05    0.16325518E-03
    5   -0.19518318E+03   -0.32286675E-06    0.21523364E-04
    6   -0.19518318E+03   -0.19681409E-07    0.67711194E-05
    7   -0.19518318E+03   -0.33571723E-09    0.18421994E-05
    8   -0.19518318E+03   -0.86686214E-11    0.62828677E-06
    9   -0.19518318E+03   -0.65369932E-12    0.17925155E-06
   10   -0.19518318E+03    0.28421709E-13    0.37966761E-07
   11   -0.19518318E+03   -0.28421709E-13    0.41110928E-08

Total Energy:                     -193.2635557864 H        -5258.9689 eV
Extrapolated to 0K:               -193.2635557864 H        -5258.9689 eV
Total Mermin free energy:         -193.2635557864 H        -5258.9689 eV
Force related energy:             -193.2635557864 H        -5258.9689 eV

Volume:                              0.109187E+05 au^3   0.161798E+04 A^3
Pressure:                            0.284894E-04 au     0.838186E+09 Pa
>> Charges saved for restart in charges.bin

total energy  -1.9326356E+02 H       energy change -4.3422697E-03 H
gradient norm  5.1135312E-02 H/a0    max. gradient  1.0532777E-02 H/a0
step length    2.2841319E-01 a0      max. step      4.3362050E-02 a0

--------------------------------------------------------------------------------

***  Geometry step: 17

 iSCC Total electronic   Diff electronic      SCC error    
    1   -0.19518318E+03    0.00000000E+00    0.11712623E-01
    2   -0.19516890E+03    0.14280217E-01    0.66195560E-02
    3   -0.19516894E+03   -0.42687275E-04    0.13224178E-02
    4   -0.19516895E+03   -0.75592269E-05    0.12335678E-03
    5   -0.19516895E+03   -0.37965782E-06    0.26020309E-04
    6   -0.19516895E+03   -0.25900732E-07    0.80590879E-05
    7   -0.19516895E+03   -0.47029403E-09    0.16209805E-05
    8   -0.19516895E+03   -0.97202246E-11    0.29239572E-06
    9   -0.19516895E+03   -0.73896445E-12    0.73320586E-07
   10   -0.19516895E+03   -0.28421709E-13    0.21219030E-07
   11   -0.19516895E+03   -0.28421709E-13    0.35768419E-08

Total Energy:                     -193.2686583209 H        -5259.1078 eV
Extrapolated to 0K:               -193.2686583209 H        -5259.1078 eV
Total Mermin free energy:         -193.2686583209 H        -5259.1078 eV
Force related energy:             -193.2686583209 H        -5259.1078 eV

Volume:                              0.109647E+05 au^3   0.162480E+04 A^3
Pressure:                            0.188362E-04 au     0.554181E+09 Pa
>> Charges saved for restart in charges.bin

total energy  -1.9326866E+02 H       energy change -5.1025345E-03 H
gradient norm  5.8095078E-02 H/a0    max. gradient  1.2186973E-02 H/a0
step length    2.5475949E-01 a0      max. step      4.7155926E-02 a0

--------------------------------------------------------------------------------

***  Geometry step: 18

 iSCC Total electronic   Diff electronic      SCC error    
    1   -0.19516895E+03    0.00000000E+00    0.15179384E-01
    2   -0.19517023E+03   -0.12760363E-02    0.88726174E-02
    3   -0.19517033E+03   -0.10228362E-03    0.23262655E-02
    4   -0.19517034E+03   -0.15048787E-04    0.24873519E-03
    5   -0.19517035E+03   -0.93466608E-06    0.41226674E-04
    6   -0.19517035E+03   -0.48812979E-07    0.12431968E-04
    7   -0.19517035E+03   -0.81155349E-09    0.17555492E-05
    8   -0.19517035E+03   -0.31889158E-10    0.60107702E-06
    9   -0.19517035E+03   -0.15631940E-11    0.17991760E-06
   10   -0.19517035E+03   -0.17053026E-12    0.42939039E-07
   11   -0.19517035E+03    0.00000000E+00    0.68797950E-08

Total Energy:                     -193.2753465151 H        -5259.2898 eV
Extrapolated to 0K:               -193.2753465151 H        -5259.2898 eV
Total Mermin free energy:         -193.2753465151 H        -5259.2898 eV
Force related energy:             -193.2753465151 H        -5259.2898 eV

Volume:                              0.110146E+05 au^3   0.163220E+04 A^3
Pressure:                            0.144547E-04 au     0.425273E+09 Pa
>> Charges saved for restart in charges.bin

total energy  -1.9327535E+02 H       energy change -6.6881942E-03 H
gradient norm  6.0771974E-02 H/a0    max. gradient  1.4008954E-02 H/a0
step length    3.5661523E-01 a0      max. step      6.3725882E-02 a0

--------------------------------------------------------------------------------

***  Geometry step: 19

 iSCC Total electronic   Diff electronic      SCC error    
    1   -0.19517035E+03    0.00000000E+00    0.15215027E-01
    2   -0.19518680E+03   -0.16450594E-01    0.89599779E-02
    3   -0.19518695E+03   -0.15237256E-03    0.29093560E-02
    4   -0.19518697E+03   -0.18067689E-04    0.28137198E-03
    5   -0.19518697E+03   -0.10099690E-05    0.52922033E-04
    6   -0.19518697E+03   -0.58679376E-07    0.15791628E-04
    7   -0.19518697E+03   -0.11580994E-08    0.23056103E-05
    8   -0.19518697E+03   -0.35981884E-10    0.44731380E-06
    9   -0.19518697E+03   -0.17621460E-11    0.10351207E-06
   10   -0.19518697E+03   -0.19895197E-12    0.21537491E-07
   11   -0.19518697E+03   -0.11368684E-12    0.22990747E-08

Total Energy:                     -193.2813669843 H        -5259.4536 eV
Extrapolated to 0K:               -193.2813669843 H        -5259.4536 eV
Total Mermin free energy:         -193.2813669843 H        -5259.4536 eV
Force related energy:             -193.2813669843 H        -5259.4536 eV

Volume:                              0.110556E+05 au^3   0.163827E+04 A^3
Pressure:                            0.162905E-04 au     0.479283E+09 Pa
>> Charges saved for restart in charges.bin

total energy  -1.9328137E+02 H       energy change -6.0204692E-03 H
gradient norm  5.3426697E-02 H/a0    max. gradient  1.1334499E-02 H/a0
step length    3.7130858E-01 a0      max. step      7.1017807E-02 a0

--------------------------------------------------------------------------------

***  Geometry step: 20

 iSCC Total electronic   Diff electronic      SCC error    
    1   -0.19518697E+03    0.00000000E+00    0.11695798E-01
    2   -0.19520940E+03   -0.22429252E-01    0.61284003E-02
    3   -0.19520956E+03   -0.16219779E-03    0.21098327E-02
    4   -0.19520958E+03   -0.17738960E-04    0.21544936E-03
    5   -0.19520958E+03   -0.76818742E-06    0.45417115E-04
    6   -0.19520958E+03   -0.53940767E-07    0.13716692E-04
    7   -0.19520958E+03   -0.14105694E-08    0.25828310E-05
    8   -0.19520958E+03   -0.32457592E-10    0.79674070E-06
    9   -0.19520958E+03   -0.19610980E-11    0.25412026E-06
   10   -0.19520958E+03   -0.17053026E-12    0.62197578E-07
   11   -0.19520958E+03   -0.28421709E-13    0.74171624E-08

Total Energy:                     -193.2862828665 H        -5259.5874 eV
Extrapolated to 0K:               -193.2862828665 H        -5259.5874 eV
Total Mermin free energy:         -193.2862828665 H        -5259.5874 eV
Force related energy:             -193.2862828665 H        -5259.5874 eV

Volume:                              0.110906E+05 au^3   0.164346E+04 A^3
Pressure:                            0.209681E-04 au     0.616902E+09 Pa
>> Charges saved for restart in charges.bin

total energy  -1.9328628E+02 H       energy change -4.9158822E-03 H
gradient norm  4.2306263E-02 H/a0    max. gradient  8.1464900E-03 H/a0
step length    3.5915570E-01 a0      max. step      7.0432823E-02 a0

--------------------------------------------------------------------------------

***  Geometry step: 21

 iSCC Total electronic   Diff electronic      SCC error    
    1   -0.19520958E+03    0.00000000E+00    0.12171876E-01
    2   -0.19522475E+03   -0.15172596E-01    0.69256574E-02
    3   -0.19522487E+03   -0.11615124E-03    0.21291448E-02
    4   -0.19522488E+03   -0.13813469E-04    0.21656449E-03
    5   -0.19522488E+03   -0.61015751E-06    0.39009297E-04
    6   -0.19522488E+03   -0.39577657E-07    0.15788717E-04
    7   -0.19522488E+03   -0.12290684E-08    0.44716285E-05
    8   -0.19522488E+03   -0.27313263E-10    0.12794188E-05
    9   -0.19522488E+03   -0.15916157E-11    0.29078389E-06
   10   -0.19522488E+03   -0.22737368E-12    0.44393062E-07
   11   -0.19522488E+03   -0.85265128E-13    0.50068159E-08

Total Energy:                     -193.2898596304 H        -5259.6847 eV
Extrapolated to 0K:               -193.2898596304 H        -5259.6847 eV
Total Mermin free energy:         -193.2898596304 H        -5259.6847 eV
Force related energy:             -193.2898596304 H        -5259.6847 eV

Volume:                              0.111254E+05 au^3   0.164861E+04 A^3
Pressure:                            0.231659E-04 au     0.681565E+09 Pa
>> Charges saved for restart in charges.bin

total energy  -1.9328986E+02 H       energy change -3.5767640E-03 H
gradient norm  3.6867685E-02 H/a0    max. gradient  8.1901535E-03 H/a0
step length    3.2073826E-01 a0      max. step      6.1015999E-02 a0

--------------------------------------------------------------------------------

***  Geometry step: 22

 iSCC Total electronic   Diff electronic      SCC error    
    1   -0.19522488E+03    0.00000000E+00    0.12872327E-01
    2   -0.19522879E+03   -0.39103437E-02    0.72836738E-02
    3   -0.19522885E+03   -0.58890792E-04    0.17516913E-02
    4   -0.19522886E+03   -0.89877403E-05    0.16142376E-03
    5   -0.19522886E+03   -0.47278479E-06    0.39178650E-04
    6   -0.19522886E+03   -0.23351021E-07    0.15808714E-04
    7   -0.19522886E+03   -0.73058004E-09    0.44479575E-05
    8   -0.19522886E+03   -0.18673063E-10    0.11696129E-05
    9   -0.19522886E+03   -0.10800250E-11    0.20077298E-06
   10   -0.19522886E+03   -0.19895197E-12    0.21667882E-07
   11   -0.19522886E+03    0.28421709E-13    0.44653095E-08

Total Energy:                     -193.2922143565 H        -5259.7488 eV
Extrapolated to 0K:               -193.2922143565 H        -5259.7488 eV
Total Mermin free energy:         -193.2922143565 H        -5259.7488 eV
Force related energy:             -193.2922143565 H        -5259.7488 eV

Volume:                              0.111589E+05 au^3   0.165358E+04 A^3
Pressure:                            0.221186E-04 au     0.650753E+09 Pa
>> Charges saved for restart in charges.bin

total energy  -1.9329221E+02 H       energy change -2.3547260E-03 H
gradient norm  3.6117819E-02 H/a0    max. gradient  7.6866118E-03 H/a0
step length    2.5482946E-01 a0      max. step      4.8795581E-02 a0

--------------------------------------------------------------------------------

***  Geometry step: 23

 iSCC Total electronic   Diff electronic      SCC error    
    1   -0.19522886E+03    0.00000000E+00    0.83290454E-02
    2   -0.19522276E+03    0.60961135E-02    0.46647558E-02
    3   -0.19522279E+03   -0.21930780E-04    0.62817489E-03
    4   -0.19522279E+03   -0.45310087E-05    0.10446028E-03
    5   -0.19522279E+03   -0.23462613E-06    0.29031230E-04
    6   -0.19522279E+03   -0.86737941E-08    0.10565271E-04
    7   -0.19522279E+03   -0.21901769E-09    0.27885433E-05
    8   -0.19522279E+03   -0.65085715E-11    0.70083285E-06
    9   -0.19522279E+03   -0.65369932E-12    0.10260821E-06
   10   -0.19522279E+03   -0.56843419E-13    0.18317270E-07
   11   -0.19522279E+03   -0.11368684E-12    0.30864364E-08

Total Energy:                     -193.2936809960 H        -5259.7887 eV
Extrapolated to 0K:               -193.2936809960 H        -5259.7887 eV
Total Mermin free energy:         -193.2936809960 H        -5259.7887 eV
Force related energy:             -193.2936809960 H        -5259.7887 eV

Volume:                              0.111865E+05 au^3   0.165766E+04 A^3
Pressure:                            0.182553E-04 au     0.537089E+09 Pa
>> Charges saved for restart in charges.bin

total energy  -1.9329368E+02 H       energy change -1.4666395E-03 H
gradient norm  2.8499773E-02 H/a0    max. gradient  8.1059037E-03 H/a0
step length    1.5775728E-01 a0      max. step      3.0986474E-02 a0

--------------------------------------------------------------------------------

***  Geometry step: 24

 iSCC Total electronic   Diff electronic      SCC error    
    1   -0.19522279E+03    0.00000000E+00    0.51684519E-02
    2   -0.19521279E+03    0.10004338E-01    0.29976509E-02
    3   -0.19521281E+03   -0.25093426E-04    0.78051724E-03
    4   -0.19521281E+03   -0.40965109E-05    0.80474541E-04
    5   -0.19521282E+03   -0.15875708E-06    0.13516185E-04
    6   -0.19521282E+03   -0.64886194E-08    0.50997432E-05
    7   -0.19521282E+03   -0.94274810E-10    0.16947893E-05
    8   -0.19521282E+03   -0.40927262E-11    0.50293091E-06
    9   -0.19521282E+03   -0.36948222E-12    0.11207263E-06
   10   -0.19521282E+03    0.00000000E+00    0.20677499E-07
   11   -0.19521282E+03   -0.56843419E-13    0.32301055E-08

Total Energy:                     -193.2947355001 H        -5259.8174 eV
Extrapolated to 0K:               -193.2947355001 H        -5259.8174 eV
Total Mermin free energy:         -193.2947355001 H        -5259.8174 eV
Force related energy:             -193.2947355001 H        -5259.8174 eV

Volume:                              0.112092E+05 au^3   0.166103E+04 A^3
Pressure:                            0.126891E-04 au     0.373328E+09 Pa
>> Charges saved for restart in charges.bin

total energy  -1.9329474E+02 H       energy change -1.0545041E-03 H
gradient norm  2.2080575E-02 H/a0    max. gradient  5.5153867E-03 H/a0
step length    1.0240330E-01 a0      max. step      2.4467597E-02 a0

--------------------------------------------------------------------------------

***  Geometry step: 25

 iSCC Total electronic   Diff electronic      SCC error    
    1   -0.19521282E+03    0.00000000E+00    0.41625779E-02
    2   -0.19520869E+03    0.41282567E-02    0.15550769E-02
    3   -0.19520870E+03   -0.17219828E-04    0.54658689E-03
    4   -0.19520871E+03   -0.19767242E-05    0.42203966E-04
    5   -0.19520871E+03   -0.58733463E-07    0.96037862E-05
    6   -0.19520871E+03   -0.28088607E-08    0.30815710E-05
    7   -0.19520871E+03   -0.50334847E-10    0.60173421E-06
    8   -0.19520871E+03   -0.15916157E-11    0.13296299E-06
    9   -0.19520871E+03   -0.28421709E-13    0.33984664E-07
   10   -0.19520871E+03   -0.28421709E-13    0.86870338E-08

Total Energy:                     -193.2954746985 H        -5259.8375 eV
Extrapolated to 0K:               -193.2954746985 H        -5259.8375 eV
Total Mermin free energy:         -193.2954746985 H        -5259.8375 eV
Force related energy:             -193.2954746985 H        -5259.8375 eV

Volume:                              0.112233E+05 au^3   0.166313E+04 A^3
Pressure:                            0.998930E-05 au     0.293895E+09 Pa
>> Charges saved for restart in charges.bin

total energy  -1.9329547E+02 H       energy change -7.3919843E-04 H
gradient norm  2.3563229E-02 H/a0    max. gradient  5.4785232E-03 H/a0
step length    7.2149205E-02 a0      max. step      2.0744507E-02 a0

--------------------------------------------------------------------------------

***  Geometry step: 26

 iSCC Total electronic   Diff electronic      SCC error    
    1   -0.19520871E+03    0.00000000E+00    0.66863841E-02
    2   -0.19520694E+03    0.17704164E-02    0.28857809E-02
    3   -0.19520697E+03   -0.36032693E-04    0.10279433E-02
    4   -0.19520698E+03   -0.40311444E-05    0.69044793E-04
    5   -0.19520698E+03   -0.12764093E-06    0.13553844E-04
    6   -0.19520698E+03   -0.52558562E-08    0.32096184E-05
    7   -0.19520698E+03   -0.13594104E-09    0.89826481E-06
    8   -0.19520698E+03   -0.25863756E-11    0.19053875E-06
    9   -0.19520698E+03   -0.31263880E-12    0.26395796E-07
   10   -0.19520698E+03    0.56843419E-13    0.79049323E-08

Total Energy:                     -193.2965877062 H        -5259.8678 eV
Extrapolated to 0K:               -193.2965877062 H        -5259.8678 eV
Total Mermin free energy:         -193.2965877062 H        -5259.8678 eV
Force related energy:             -193.2965877062 H        -5259.8678 eV

Volume:                              0.112465E+05 au^3   0.166656E+04 A^3
Pressure:                            0.776261E-05 au     0.228384E+09 Pa
>> Charges saved for restart in charges.bin

total energy  -1.9329659E+02 H       energy change -1.1130077E-03 H
gradient norm  2.5355235E-02 H/a0    max. gradient  5.7807573E-03 H/a0
step length    1.2202656E-01 a0      max. step      3.6537362E-02 a0

--------------------------------------------------------------------------------

***  Geometry step: 27

 iSCC Total electronic   Diff electronic      SCC error    
    1   -0.19520698E+03    0.00000000E+00    0.69133429E-02
    2   -0.19520908E+03   -0.21059675E-02    0.32437336E-02
    3   -0.19520912E+03   -0.37554160E-04    0.10388997E-02
    4   -0.19520912E+03   -0.49713719E-05    0.10699954E-03
    5   -0.19520912E+03   -0.20991280E-06    0.13676232E-04
    6   -0.19520912E+03   -0.66460473E-08    0.40148961E-05
    7   -0.19520912E+03   -0.14239276E-09    0.10072179E-05
    8   -0.19520912E+03   -0.42632564E-11    0.28275975E-06
    9   -0.19520912E+03   -0.28421709E-12    0.38341720E-07
   10   -0.19520912E+03    0.28421709E-13    0.11228730E-07
   11   -0.19520912E+03    0.56843419E-13    0.26890841E-08

Total Energy:                     -193.2976704918 H        -5259.8972 eV
Extrapolated to 0K:               -193.2976704918 H        -5259.8972 eV
Total Mermin free energy:         -193.2976704918 H        -5259.8972 eV
Force related energy:             -193.2976704918 H        -5259.8972 eV

Volume:                              0.112771E+05 au^3   0.167109E+04 A^3
Pressure:                            0.685463E-05 au     0.201670E+09 Pa
>> Charges saved for restart in charges.bin

total energy  -1.9329767E+02 H       energy change -1.0827855E-03 H
gradient norm  2.2667627E-02 H/a0    max. gradient  5.3699308E-03 H/a0
step length    1.5770090E-01 a0      max. step      4.3917818E-02 a0

--------------------------------------------------------------------------------

***  Geometry step: 28

 iSCC Total electronic   Diff electronic      SCC error    
    1   -0.19520912E+03    0.00000000E+00    0.46724513E-02
    2   -0.19521428E+03   -0.51549909E-02    0.27032754E-02
    3   -0.19521430E+03   -0.22618394E-04    0.60814049E-03
    4   -0.19521431E+03   -0.38848649E-05    0.87983788E-04
    5   -0.19521431E+03   -0.19943582E-06    0.13769419E-04
    6   -0.19521431E+03   -0.48782738E-08    0.46256735E-05
    7   -0.19521431E+03   -0.90238927E-10    0.97360701E-06
    8   -0.19521431E+03   -0.30127012E-11    0.17621479E-06
    9   -0.19521431E+03   -0.42632564E-12    0.49096432E-07
   10   -0.19521431E+03    0.28421709E-13    0.14208704E-07
   11   -0.19521431E+03    0.28421709E-13    0.31685965E-08

Total Energy:                     -193.2984545715 H        -5259.9186 eV
Extrapolated to 0K:               -193.2984545715 H        -5259.9186 eV
Total Mermin free energy:         -193.2984545715 H        -5259.9186 eV
Force related energy:             -193.2984545715 H        -5259.9186 eV

Volume:                              0.113053E+05 au^3   0.167527E+04 A^3
Pressure:                            0.739437E-05 au     0.217550E+09 Pa
>> Charges saved for restart in charges.bin

total energy  -1.9329845E+02 H       energy change -7.8407978E-04 H
gradient norm  1.7908773E-02 H/a0    max. gradient  4.7325998E-03 H/a0
step length    1.5543356E-01 a0      max. step      3.7406967E-02 a0

--------------------------------------------------------------------------------

***  Geometry step: 29

 iSCC Total electronic   Diff electronic      SCC error    
    1   -0.19521431E+03    0.00000000E+00    0.48777658E-02
    2   -0.19521917E+03   -0.48642567E-02    0.28088597E-02
    3   -0.19521918E+03   -0.10348722E-04    0.49056683E-03
    4   -0.19521918E+03   -0.20325743E-05    0.41727345E-04
    5   -0.19521918E+03   -0.11491616E-06    0.10920025E-04
    6   -0.19521918E+03   -0.19488198E-08    0.33973041E-05
    7   -0.19521918E+03   -0.25977442E-10    0.61891277E-06
    8   -0.19521918E+03   -0.79580786E-12    0.10331930E-06
    9   -0.19521918E+03   -0.17053026E-12    0.28415671E-07
   10   -0.19521918E+03   -0.56843419E-13    0.52728040E-08

Total Energy:                     -193.2989595663 H        -5259.9323 eV
Extrapolated to 0K:               -193.2989595663 H        -5259.9323 eV
Total Mermin free energy:         -193.2989595663 H        -5259.9323 eV
Force related energy:             -193.2989595663 H        -5259.9323 eV

Volume:                              0.113244E+05 au^3   0.167810E+04 A^3
Pressure:                            0.827880E-05 au     0.243571E+09 Pa
>> Charges saved for restart in charges.bin

total energy  -1.9329896E+02 H       energy change -5.0499473E-04 H
gradient norm  1.5629940E-02 H/a0    max. gradient  6.2271007E-03 H/a0
step length    1.1814957E-01 a0      max. step      2.3663479E-02 a0

--------------------------------------------------------------------------------

***  Geometry step: 30

 iSCC Total electronic   Diff electronic      SCC error    
    1   -0.19521918E+03    0.00000000E+00    0.39597043E-02
    2   -0.19522188E+03   -0.26971601E-02    0.22894422E-02
    3   -0.19522189E+03   -0.67083966E-05    0.41354010E-03
    4   -0.19522189E+03   -0.13325480E-05    0.40849781E-04
    5   -0.19522189E+03   -0.70552431E-07    0.51660062E-05
    6   -0.19522189E+03   -0.15100454E-08    0.23150578E-05
    7   -0.19522189E+03   -0.16314061E-10    0.82502320E-06
    8   -0.19522189E+03   -0.42632564E-12    0.14845157E-06
    9   -0.19522189E+03   -0.85265128E-13    0.41152896E-07
   10   -0.19522189E+03    0.00000000E+00    0.83938638E-08

Total Energy:                     -193.2993546106 H        -5259.9431 eV
Extrapolated to 0K:               -193.2993546106 H        -5259.9431 eV
Total Mermin free energy:         -193.2993546106 H        -5259.9431 eV
Force related energy:             -193.2993546106 H        -5259.9431 eV

Volume:                              0.113371E+05 au^3   0.167998E+04 A^3
Pressure:                            0.878547E-05 au     0.258477E+09 Pa
>> Charges saved for restart in charges.bin

total energy  -1.9329935E+02 H       energy change -3.9504429E-04 H
gradient norm  1.5802706E-02 H/a0    max. gradient  6.4888351E-03 H/a0
step length    8.7099646E-02 a0      max. step      1.6883053E-02 a0

--------------------------------------------------------------------------------

***  Geometry step: 31

 iSCC Total electronic   Diff electronic      SCC error    
    1   -0.19522189E+03    0.00000000E+00    0.38194606E-02
    2   -0.19522146E+03    0.42826407E-03    0.21948752E-02
    3   -0.19522147E+03   -0.57447146E-05    0.38251865E-03
    4   -0.19522147E+03   -0.11980669E-05    0.34444666E-04
    5   -0.19522147E+03   -0.55698393E-07    0.12586636E-04
    6   -0.19522147E+03   -0.14233592E-08    0.44658532E-05
    7   -0.19522147E+03   -0.16456170E-10    0.11691473E-05
    8   -0.19522147E+03   -0.68212103E-12    0.15017190E-06
    9   -0.19522147E+03   -0.22737368E-12    0.28158309E-07
   10   -0.19522147E+03    0.00000000E+00    0.37745278E-08

Total Energy:                     -193.2997863660 H        -5259.9548 eV
Extrapolated to 0K:               -193.2997863660 H        -5259.9548 eV
Total Mermin free energy:         -193.2997863660 H        -5259.9548 eV
Force related energy:             -193.2997863660 H        -5259.9548 eV

Volume:                              0.113492E+05 au^3   0.168178E+04 A^3
Pressure:                            0.787759E-05 au     0.231767E+09 Pa
>> Charges saved for restart in charges.bin

total energy  -1.9329979E+02 H       energy change -4.3175544E-04 H
gradient norm  1.5843095E-02 H/a0    max. gradient  4.9134858E-03 H/a0
step length    8.8084127E-02 a0      max. step      1.4839387E-02 a0

--------------------------------------------------------------------------------

***  Geometry step: 32

 iSCC Total electronic   Diff electronic      SCC error    
    1   -0.19522147E+03    0.00000000E+00    0.47865170E-02
    2   -0.19521962E+03    0.18467527E-02    0.27315372E-02
    3   -0.19521963E+03   -0.64769317E-05    0.59456402E-03
    4   -0.19521963E+03   -0.11928628E-05    0.58433392E-04
    5   -0.19521963E+03   -0.50662464E-07    0.22243601E-04
    6   -0.19521963E+03   -0.20569360E-08    0.72159108E-05
    7   -0.19521963E+03   -0.37744030E-10    0.11774068E-05
    8   -0.19521963E+03   -0.21884716E-11    0.17867211E-06
    9   -0.19521963E+03   -0.14210855E-12    0.43273499E-07
   10   -0.19521963E+03    0.00000000E+00    0.53491944E-08

Total Energy:                     -193.3002604869 H        -5259.9677 eV
Extrapolated to 0K:               -193.3002604869 H        -5259.9677 eV
Total Mermin free energy:         -193.3002604869 H        -5259.9677 eV
Force related energy:             -193.3002604869 H        -5259.9677 eV

Volume:                              0.113595E+05 au^3   0.168331E+04 A^3
Pressure:                            0.643715E-05 au     0.189388E+09 Pa
>> Charges saved for restart in charges.bin

total energy  -1.9330026E+02 H       energy change -4.7412090E-04 H
gradient norm  1.6836188E-02 H/a0    max. gradient  3.3825150E-03 H/a0
step length    9.7009415E-02 a0      max. step      2.1215088E-02 a0

--------------------------------------------------------------------------------

***  Geometry step: 33

 iSCC Total electronic   Diff electronic      SCC error    
    1   -0.19521963E+03    0.00000000E+00    0.43557207E-02
    2   -0.19521647E+03    0.31619625E-02    0.24716765E-02
    3   -0.19521647E+03   -0.76024325E-05    0.53198711E-03
    4   -0.19521648E+03   -0.13116897E-05    0.70009383E-04
    5   -0.19521648E+03   -0.65465343E-07    0.26385906E-04
    6   -0.19521648E+03   -0.21135236E-08    0.73852620E-05
    7   -0.19521648E+03   -0.56274985E-10    0.12766439E-05
    8   -0.19521648E+03   -0.27000624E-11    0.24660230E-06
    9   -0.19521648E+03   -0.36948222E-12    0.42447653E-07
   10   -0.19521648E+03    0.56843419E-13    0.70555815E-08

Total Energy:                     -193.3008008338 H        -5259.9824 eV
Extrapolated to 0K:               -193.3008008338 H        -5259.9824 eV
Total Mermin free energy:         -193.3008008338 H        -5259.9824 eV
Force related energy:             -193.3008008338 H        -5259.9824 eV

Volume:                              0.113700E+05 au^3   0.168486E+04 A^3
Pressure:                            0.438700E-05 au     0.129070E+09 Pa
>> Charges saved for restart in charges.bin

total energy  -1.9330080E+02 H       energy change -5.4034693E-04 H
gradient norm  1.8051380E-02 H/a0    max. gradient  3.3901610E-03 H/a0
step length    1.1910179E-01 a0      max. step      2.8851497E-02 a0

--------------------------------------------------------------------------------

***  Geometry step: 34

 iSCC Total electronic   Diff electronic      SCC error    
    1   -0.19521648E+03    0.00000000E+00    0.38041088E-02
    2   -0.19521488E+03    0.15974669E-02    0.19437774E-02
    3   -0.19521489E+03   -0.10149356E-04    0.45282685E-03
    4   -0.19521489E+03   -0.16598450E-05    0.66078409E-04
    5   -0.19521489E+03   -0.85254499E-07    0.25397681E-04
    6   -0.19521489E+03   -0.27262672E-08    0.83094577E-05
    7   -0.19521489E+03   -0.57440275E-10    0.14724780E-05
    8   -0.19521489E+03   -0.31263880E-11    0.28384768E-06
    9   -0.19521489E+03   -0.14210855E-12    0.49109598E-07
   10   -0.19521489E+03   -0.17053026E-12    0.61127441E-08

Total Energy:                     -193.3014082724 H        -5259.9989 eV
Extrapolated to 0K:               -193.3014082724 H        -5259.9989 eV
Total Mermin free energy:         -193.3014082724 H        -5259.9989 eV
Force related energy:             -193.3014082724 H        -5259.9989 eV

Volume:                              0.113810E+05 au^3   0.168649E+04 A^3
Pressure:                            0.309167E-05 au     0.909600E+08 Pa
>> Charges saved for restart in charges.bin

total energy  -1.9330141E+02 H       energy change -6.0743858E-04 H
gradient norm  1.9304947E-02 H/a0    max. gradient  3.8353245E-03 H/a0
step length    1.4820111E-01 a0      max. step      3.6908296E-02 a0

--------------------------------------------------------------------------------

***  Geometry step: 35

 iSCC Total electronic   Diff electronic      SCC error    
    1   -0.19521489E+03    0.00000000E+00    0.40362869E-02
    2   -0.19521586E+03   -0.96629870E-03    0.23476303E-02
    3   -0.19521587E+03   -0.10366741E-04    0.53036245E-03
    4   -0.19521587E+03   -0.19217224E-05    0.64034650E-04
    5   -0.19521587E+03   -0.82953363E-07    0.81374244E-05
    6   -0.19521587E+03   -0.28960301E-08    0.32413388E-05
    7   -0.19521587E+03   -0.30951242E-10    0.10700765E-05
    8   -0.19521587E+03   -0.12221335E-11    0.24718063E-06
    9   -0.19521587E+03   -0.85265128E-13    0.46755942E-07
   10   -0.19521587E+03    0.28421709E-13    0.49683293E-08

Total Energy:                     -193.3020333119 H        -5260.0160 eV
Extrapolated to 0K:               -193.3020333119 H        -5260.0160 eV
Total Mermin free energy:         -193.3020333119 H        -5260.0160 eV
Force related energy:             -193.3020333119 H        -5260.0160 eV

Volume:                              0.113920E+05 au^3   0.168812E+04 A^3
Pressure:                            0.260438E-05 au     0.766236E+08 Pa
>> Charges saved for restart in charges.bin

total energy  -1.9330203E+02 H       energy change -6.2503947E-04 H
gradient norm  1.9322131E-02 H/a0    max. gradient  6.5705210E-03 H/a0
step length    1.5764037E-01 a0      max. step      3.8593322E-02 a0

--------------------------------------------------------------------------------

***  Geometry step: 36

 iSCC Total electronic   Diff electronic      SCC error    
    1   -0.19521587E+03    0.00000000E+00    0.51422389E-02
    2   -0.19522084E+03   -0.49701723E-02    0.29047223E-02
    3   -0.19522085E+03   -0.13503061E-04    0.63888496E-03
    4   -0.19522085E+03   -0.24736078E-05    0.63864590E-04
    5   -0.19522085E+03   -0.94812123E-07    0.14992604E-04
    6   -0.19522085E+03   -0.38323265E-08    0.62695701E-05
    7   -0.19522085E+03   -0.46838977E-10    0.18123310E-05
    8   -0.19522085E+03   -0.19326762E-11    0.41183428E-06
    9   -0.19522085E+03   -0.31263880E-12    0.61261171E-07
   10   -0.19522085E+03    0.14210855E-12    0.74865012E-08

Total Energy:                     -193.3026822804 H        -5260.0336 eV
Extrapolated to 0K:               -193.3026822804 H        -5260.0336 eV
Total Mermin free energy:         -193.3026822804 H        -5260.0336 eV
Force related energy:             -193.3026822804 H        -5260.0336 eV

Volume:                              0.114048E+05 au^3   0.169001E+04 A^3
Pressure:                            0.346349E-05 au     0.101899E+09 Pa
>> Charges saved for restart in charges.bin

total energy  -1.9330268E+02 H       energy change -6.4896855E-04 H
gradient norm  1.7347986E-02 H/a0    max. gradient  7.3919141E-03 H/a0
step length    1.7656981E-01 a0      max. step      3.9633234E-02 a0

--------------------------------------------------------------------------------

***  Geometry step: 37

 iSCC Total electronic   Diff electronic      SCC error    
    1   -0.19522085E+03    0.00000000E+00    0.58378990E-02
    2   -0.19522723E+03   -0.63760171E-02    0.33074346E-02
    3   -0.19522724E+03   -0.11097867E-04    0.77636958E-03
    4   -0.19522724E+03   -0.18643192E-05    0.88695890E-04
    5   -0.19522724E+03   -0.78316845E-07    0.31706369E-04
    6   -0.19522724E+03   -0.37979646E-08    0.11016561E-04
    7   -0.19522724E+03   -0.71111117E-10    0.16786151E-05
    8   -0.19522724E+03   -0.43769433E-11    0.30629025E-06
    9   -0.19522724E+03   -0.31263880E-12    0.60616167E-07
   10   -0.19522724E+03   -0.85265128E-13    0.64004890E-08

Total Energy:                     -193.3032015724 H        -5260.0477 eV
Extrapolated to 0K:               -193.3032015724 H        -5260.0477 eV
Total Mermin free energy:         -193.3032015724 H        -5260.0477 eV
Force related energy:             -193.3032015724 H        -5260.0477 eV

Volume:                              0.114159E+05 au^3   0.169166E+04 A^3
Pressure:                            0.516287E-05 au     0.151897E+09 Pa
>> Charges saved for restart in charges.bin

total energy  -1.9330320E+02 H       energy change -5.1929197E-04 H
gradient norm  1.6732429E-02 H/a0    max. gradient  6.6895136E-03 H/a0
step length    1.4850549E-01 a0      max. step      2.9281877E-02 a0

--------------------------------------------------------------------------------

***  Geometry step: 38

 iSCC Total electronic   Diff electronic      SCC error    
    1   -0.19522724E+03    0.00000000E+00    0.52210640E-02
    2   -0.19523234E+03   -0.50915243E-02    0.29403982E-02
    3   -0.19523235E+03   -0.15427405E-04    0.77696732E-03
    4   -0.19523235E+03   -0.22513690E-05    0.13233409E-03
    5   -0.19523235E+03   -0.94096521E-07    0.44344009E-04
    6   -0.19523235E+03   -0.50816311E-08    0.14119270E-04
    7   -0.19523235E+03   -0.10490453E-09    0.16218619E-05
    8   -0.19523235E+03   -0.77022833E-11    0.33044349E-06
    9   -0.19523235E+03   -0.45474735E-12    0.85871557E-07
   10   -0.19523235E+03    0.00000000E+00    0.82207139E-08

Total Energy:                     -193.3037479834 H        -5260.0626 eV
Extrapolated to 0K:               -193.3037479834 H        -5260.0626 eV
Total Mermin free energy:         -193.3037479834 H        -5260.0626 eV
Force related energy:             -193.3037479834 H        -5260.0626 eV

Volume:                              0.114298E+05 au^3   0.169372E+04 A^3
Pressure:                            0.618545E-05 au     0.181982E+09 Pa
>> Charges saved for restart in charges.bin

total energy  -1.9330375E+02 H       energy change -5.4641098E-04 H
gradient norm  1.8134930E-02 H/a0    max. gradient  5.3250668E-03 H/a0
step length    1.6116916E-01 a0      max. step      3.0446150E-02 a0

--------------------------------------------------------------------------------

***  Geometry step: 39

 iSCC Total electronic   Diff electronic      SCC error    
    1   -0.19523235E+03    0.00000000E+00    0.37172146E-02
    2   -0.19523535E+03   -0.29932849E-02    0.20935972E-02
    3   -0.19523536E+03   -0.18035283E-04    0.67881718E-03
    4   -0.19523537E+03   -0.23717537E-05    0.14611899E-03
    5   -0.19523537E+03   -0.12115137E-06    0.51652892E-04
    6   -0.19523537E+03   -0.49659548E-08    0.14729457E-04
    7   -0.19523537E+03   -0.10382450E-09    0.13943786E-05
    8   -0.19523537E+03   -0.95781161E-11    0.42422609E-06
    9   -0.19523537E+03   -0.51159077E-12    0.10019761E-06
   10   -0.19523537E+03    0.28421709E-13    0.11039070E-07
   11   -0.19523537E+03   -0.56843419E-13    0.18240800E-08

Total Energy:                     -193.3043810354 H        -5260.0798 eV
Extrapolated to 0K:               -193.3043810354 H        -5260.0798 eV
Total Mermin free energy:         -193.3043810354 H        -5260.0798 eV
Force related energy:             -193.3043810354 H        -5260.0798 eV

Volume:                              0.114462E+05 au^3   0.169615E+04 A^3
Pressure:                            0.622322E-05 au     0.183093E+09 Pa
>> Charges saved for restart in charges.bin

total energy  -1.9330438E+02 H       energy change -6.3305206E-04 H
gradient norm  1.9721317E-02 H/a0    max. gradient  4.2747008E-03 H/a0
step length    1.8702733E-01 a0      max. step      3.7167038E-02 a0

--------------------------------------------------------------------------------

***  Geometry step: 40

 iSCC Total electronic   Diff electronic      SCC error    
    1   -0.19523537E+03    0.00000000E+00    0.45769575E-02
    2   -0.19523572E+03   -0.35701836E-03    0.26912789E-02
    3   -0.19523575E+03   -0.24682678E-04    0.84689507E-03
    4   -0.19523575E+03   -0.30532022E-05    0.13751257E-03
    5   -0.19523575E+03   -0.14651758E-06    0.45753977E-04
    6   -0.19523575E+03   -0.62728134E-08    0.14817872E-04
    7   -0.19523575E+03   -0.10209078E-09    0.20890689E-05
    8   -0.19523575E+03   -0.77307050E-11    0.29625290E-06
    9   -0.19523575E+03   -0.68212103E-12    0.93555292E-07
   10   -0.19523575E+03   -0.56843419E-13    0.15044442E-07
   11   -0.19523575E+03    0.56843419E-13    0.20963191E-08

Total Energy:                     -193.3051273193 H        -5260.1001 eV
Extrapolated to 0K:               -193.3051273193 H        -5260.1001 eV
Total Mermin free energy:         -193.3051273193 H        -5260.1001 eV
Force related energy:             -193.3051273193 H        -5260.1001 eV

Volume:                              0.114614E+05 au^3   0.169840E+04 A^3
Pressure:                            0.508784E-05 au     0.149689E+09 Pa
>> Charges saved for restart in charges.bin

total energy  -1.9330513E+02 H       energy change -7.4628388E-04 H
gradient norm  1.9149625E-02 H/a0    max. gradient  4.1121465E-03 H/a0
step length    2.0952030E-01 a0      max. step      4.6667641E-02 a0

--------------------------------------------------------------------------------

***  Geometry step: 41

 iSCC Total electronic   Diff electronic      SCC error    
    1   -0.19523575E+03    0.00000000E+00    0.49017901E-02
    2   -0.19523457E+03    0.11855914E-02    0.23093901E-02
    3   -0.19523459E+03   -0.25426533E-04    0.72036604E-03
    4   -0.19523459E+03   -0.32348640E-05    0.11070124E-03
    5   -0.19523459E+03   -0.15140841E-06    0.20098314E-04
    6   -0.19523459E+03   -0.71175918E-08    0.77138311E-05
    7   -0.19523459E+03   -0.10160761E-09    0.26603917E-05
    8   -0.19523459E+03   -0.26147973E-11    0.37318627E-06
    9   -0.19523459E+03   -0.56843419E-12    0.78234277E-07
   10   -0.19523459E+03   -0.56843419E-13    0.12982646E-07
   11   -0.19523459E+03   -0.56843419E-13    0.16032171E-08

Total Energy:                     -193.3058134183 H        -5260.1188 eV
Extrapolated to 0K:               -193.3058134183 H        -5260.1188 eV
Total Mermin free energy:         -193.3058134183 H        -5260.1188 eV
Force related energy:             -193.3058134183 H        -5260.1188 eV

Volume:                              0.114721E+05 au^3   0.169999E+04 A^3
Pressure:                            0.384486E-05 au     0.113120E+09 Pa
>> Charges saved for restart in charges.bin

total energy  -1.9330581E+02 H       energy change -6.8609893E-04 H
gradient norm  1.6232994E-02 H/a0    max. gradient  3.2150590E-03 H/a0
step length    2.1062534E-01 a0      max. step      5.3218791E-02 a0

--------------------------------------------------------------------------------

***  Geometry step: 42

 iSCC Total electronic   Diff electronic      SCC error    
    1   -0.19523459E+03    0.00000000E+00    0.38116158E-02
    2   -0.19523286E+03    0.17363506E-02    0.21662747E-02
    3   -0.19523287E+03   -0.12700250E-04    0.64242148E-03
    4   -0.19523287E+03   -0.16127322E-05    0.54423472E-04
    5   -0.19523287E+03   -0.77005836E-07    0.91112562E-05
    6   -0.19523287E+03   -0.35244057E-08    0.35209175E-05
    7   -0.19523287E+03   -0.55990768E-10    0.11574487E-05
    8   -0.19523287E+03   -0.14779289E-11    0.28923141E-06
    9   -0.19523287E+03   -0.17053026E-12    0.77568780E-07
   10   -0.19523287E+03   -0.56843419E-13    0.14777819E-07
   11   -0.19523287E+03    0.11368684E-12    0.17279334E-08

Total Energy:                     -193.3062287292 H        -5260.1301 eV
Extrapolated to 0K:               -193.3062287292 H        -5260.1301 eV
Total Mermin free energy:         -193.3062287292 H        -5260.1301 eV
Force related energy:             -193.3062287292 H        -5260.1301 eV

Volume:                              0.114789E+05 au^3   0.170100E+04 A^3
Pressure:                            0.297604E-05 au     0.875580E+08 Pa
>> Charges saved for restart in charges.bin

total energy  -1.9330623E+02 H       energy change -4.1531095E-04 H
gradient norm  1.3876777E-02 H/a0    max. gradient  2.5737827E-03 H/a0
step length    1.4986688E-01 a0      max. step      3.9713398E-02 a0

--------------------------------------------------------------------------------

***  Geometry step: 43

 iSCC Total electronic   Diff electronic      SCC error    
    1   -0.19523287E+03    0.00000000E+00    0.33349885E-02
    2   -0.19523190E+03    0.97204856E-03    0.19041580E-02
    3   -0.19523191E+03   -0.76712998E-05    0.47483404E-03
    4   -0.19523191E+03   -0.11590721E-05    0.67324866E-04
    5   -0.19523191E+03   -0.58013967E-07    0.25754614E-04
    6   -0.19523191E+03   -0.25663667E-08    0.86061701E-05
    7   -0.19523191E+03   -0.46071591E-10    0.12222940E-05
    8   -0.19523191E+03   -0.30411229E-11    0.25185606E-06
    9   -0.19523191E+03   -0.22737368E-12    0.45527462E-07
   10   -0.19523191E+03   -0.56843419E-13    0.82365474E-08

Total Energy:                     -193.3065485779 H        -5260.1388 eV
Extrapolated to 0K:               -193.3065485779 H        -5260.1388 eV
Total Mermin free energy:         -193.3065485779 H        -5260.1388 eV
Force related energy:             -193.3065485779 H        -5260.1388 eV

Volume:                              0.114843E+05 au^3   0.170180E+04 A^3
Pressure:                            0.254436E-05 au     0.748575E+08 Pa
>> Charges saved for restart in charges.bin

total energy  -1.9330655E+02 H       energy change -3.1984867E-04 H
gradient norm  1.3246642E-02 H/a0    max. gradient  2.8244503E-03 H/a0
step length    1.1567975E-01 a0      max. step      3.0004908E-02 a0

--------------------------------------------------------------------------------

***  Geometry step: 44

 iSCC Total electronic   Diff electronic      SCC error    
    1   -0.19523191E+03    0.00000000E+00    0.33946936E-02
    2   -0.19523203E+03   -0.12336269E-03    0.16807267E-02
    3   -0.19523204E+03   -0.71300673E-05    0.36683777E-03
    4   -0.19523204E+03   -0.12559937E-05    0.86657337E-04
    5   -0.19523204E+03   -0.61350931E-07    0.33687230E-04
    6   -0.19523204E+03   -0.28182967E-08    0.87028302E-05
    7   -0.19523204E+03   -0.40785153E-10    0.73369768E-06
    8   -0.19523204E+03   -0.38653525E-11    0.18915956E-06
    9   -0.19523204E+03   -0.19895197E-12    0.54191316E-07
   10   -0.19523204E+03    0.56843419E-13    0.41064592E-08

Total Energy:                     -193.3068678465 H        -5260.1475 eV
Extrapolated to 0K:               -193.3068678465 H        -5260.1475 eV
Total Mermin free energy:         -193.3068678465 H        -5260.1475 eV
Force related energy:             -193.3068678465 H        -5260.1475 eV

Volume:                              0.114902E+05 au^3   0.170267E+04 A^3
Pressure:                            0.236430E-05 au     0.695600E+08 Pa
>> Charges saved for restart in charges.bin

total energy  -1.9330687E+02 H       energy change -3.1926859E-04 H
gradient norm  1.3277406E-02 H/a0    max. gradient  2.8799236E-03 H/a0
step length    1.1370980E-01 a0      max. step      2.6786797E-02 a0

--------------------------------------------------------------------------------

***  Geometry step: 45

 iSCC Total electronic   Diff electronic      SCC error    
    1   -0.19523204E+03    0.00000000E+00    0.34400100E-02
    2   -0.19523379E+03   -0.17472080E-02    0.20025389E-02
    3   -0.19523380E+03   -0.79768183E-05    0.42164296E-03
    4   -0.19523380E+03   -0.13900387E-05    0.94479512E-04
    5   -0.19523380E+03   -0.72609964E-07    0.35808200E-04
    6   -0.19523380E+03   -0.39240149E-08    0.95940413E-05
    7   -0.19523380E+03   -0.52722271E-10    0.83882445E-06
    8   -0.19523380E+03   -0.46327386E-11    0.16383286E-06
    9   -0.19523380E+03   -0.19895197E-12    0.44036050E-07
   10   -0.19523380E+03   -0.56843419E-13    0.32177594E-08

Total Energy:                     -193.3072113859 H        -5260.1569 eV
Extrapolated to 0K:               -193.3072113859 H        -5260.1569 eV
Total Mermin free energy:         -193.3072113859 H        -5260.1569 eV
Force related energy:             -193.3072113859 H        -5260.1569 eV

Volume:                              0.114969E+05 au^3   0.170366E+04 A^3
Pressure:                            0.266006E-05 au     0.782618E+08 Pa
>> Charges saved for restart in charges.bin

total energy  -1.9330721E+02 H       energy change -3.4353943E-04 H
gradient norm  1.3604570E-02 H/a0    max. gradient  2.9179476E-03 H/a0
step length    1.3007588E-01 a0      max. step      2.6851653E-02 a0

--------------------------------------------------------------------------------

***  Geometry step: 46

 iSCC Total electronic   Diff electronic      SCC error    
    1   -0.19523380E+03    0.00000000E+00    0.28178303E-02
    2   -0.19523609E+03   -0.22891155E-02    0.16986561E-02
    3   -0.19523610E+03   -0.85207349E-05    0.49841006E-03
    4   -0.19523610E+03   -0.11671079E-05    0.78540772E-04
    5   -0.19523610E+03   -0.68559757E-07    0.29315380E-04
    6   -0.19523610E+03   -0.33479637E-08    0.97576806E-05
    7   -0.19523610E+03   -0.65341510E-10    0.95434881E-06
    8   -0.19523610E+03   -0.32400749E-11    0.13457039E-06
    9   -0.19523610E+03   -0.34106051E-12    0.37875297E-07
   10   -0.19523610E+03    0.00000000E+00    0.64944379E-08

Total Energy:                     -193.3075492497 H        -5260.1660 eV
Extrapolated to 0K:               -193.3075492497 H        -5260.1660 eV
Total Mermin free energy:         -193.3075492497 H        -5260.1660 eV
Force related energy:             -193.3075492497 H        -5260.1660 eV

Volume:                              0.115041E+05 au^3   0.170473E+04 A^3
Pressure:                            0.303855E-05 au     0.893973E+08 Pa
>> Charges saved for restart in charges.bin

total energy  -1.9330755E+02 H       energy change -3.3786380E-04 H
gradient norm  1.3290056E-02 H/a0    max. gradient  2.4516407E-03 H/a0
step length    1.4299931E-01 a0      max. step      2.8118542E-02 a0

--------------------------------------------------------------------------------

***  Geometry step: 47

 iSCC Total electronic   Diff electronic      SCC error    
    1   -0.19523610E+03    0.00000000E+00    0.32437389E-02
    2   -0.19523858E+03   -0.24813270E-02    0.19282208E-02
    3   -0.19523859E+03   -0.11012036E-04    0.64160435E-03
    4   -0.19523859E+03   -0.12139640E-05    0.72791479E-04
    5   -0.19523859E+03   -0.67022796E-07    0.26442269E-04
    6   -0.19523859E+03   -0.35137191E-08    0.88534755E-05
    7   -0.19523859E+03   -0.92938990E-10    0.12200149E-05
    8   -0.19523859E+03   -0.27569058E-11    0.20234138E-06
    9   -0.19523859E+03   -0.25579538E-12    0.36609303E-07
   10   -0.19523859E+03    0.28421709E-13    0.77761730E-08

Total Energy:                     -193.3078692990 H        -5260.1748 eV
Extrapolated to 0K:               -193.3078692990 H        -5260.1748 eV
Total Mermin free energy:         -193.3078692990 H        -5260.1748 eV
Force related energy:             -193.3078692990 H        -5260.1748 eV

Volume:                              0.115098E+05 au^3   0.170558E+04 A^3
Pressure:                            0.352915E-05 au     0.103831E+09 Pa
>> Charges saved for restart in charges.bin

total energy  -1.9330787E+02 H       energy change -3.2004930E-04 H
gradient norm  1.2568281E-02 H/a0    max. gradient  2.0060502E-03 H/a0
step length    1.4984727E-01 a0      max. step      3.1102398E-02 a0

--------------------------------------------------------------------------------

***  Geometry step: 48

 iSCC Total electronic   Diff electronic      SCC error    
    1   -0.19523859E+03    0.00000000E+00    0.28759616E-02
    2   -0.19523986E+03   -0.12712237E-02    0.16781128E-02
    3   -0.19523987E+03   -0.69766386E-05    0.51785130E-03
    4   -0.19523987E+03   -0.84097314E-06    0.54315022E-04
    5   -0.19523987E+03   -0.41924068E-07    0.19745007E-04
    6   -0.19523987E+03   -0.24433007E-08    0.68805557E-05
    7   -0.19523987E+03   -0.44195758E-10    0.84938163E-06
    8   -0.19523987E+03   -0.17337243E-11    0.16787920E-06
    9   -0.19523987E+03   -0.14210855E-12    0.35470634E-07
   10   -0.19523987E+03   -0.56843419E-13    0.50726392E-08

Total Energy:                     -193.3081178897 H        -5260.1815 eV
Extrapolated to 0K:               -193.3081178897 H        -5260.1815 eV
Total Mermin free energy:         -193.3081178897 H        -5260.1815 eV
Force related energy:             -193.3081178897 H        -5260.1815 eV

Volume:                              0.115126E+05 au^3   0.170599E+04 A^3
Pressure:                            0.373466E-05 au     0.109878E+09 Pa
>> Charges saved for restart in charges.bin

total energy  -1.9330812E+02 H       energy change -2.4859072E-04 H
gradient norm  1.0896160E-02 H/a0    max. gradient  1.7694924E-03 H/a0
step length    1.0399976E-01 a0      max. step      2.4006263E-02 a0

--------------------------------------------------------------------------------

***  Geometry step: 49

 iSCC Total electronic   Diff electronic      SCC error    
    1   -0.19523987E+03    0.00000000E+00    0.30842837E-02
    2   -0.19523982E+03    0.46077631E-04    0.17191432E-02
    3   -0.19523983E+03   -0.55051009E-05    0.40153344E-03
    4   -0.19523983E+03   -0.85276955E-06    0.51156338E-04
    5   -0.19523983E+03   -0.37040280E-07    0.18270510E-04
    6   -0.19523983E+03   -0.24085409E-08    0.57888820E-05
    7   -0.19523983E+03   -0.31633363E-10    0.81925655E-06
    8   -0.19523983E+03   -0.13073986E-11    0.14496215E-06
    9   -0.19523983E+03   -0.11368684E-12    0.32989364E-07
   10   -0.19523983E+03   -0.28421709E-13    0.34242613E-08

Total Energy:                     -193.3083177948 H        -5260.1870 eV
Extrapolated to 0K:               -193.3083177948 H        -5260.1870 eV
Total Mermin free energy:         -193.3083177948 H        -5260.1870 eV
Force related energy:             -193.3083177948 H        -5260.1870 eV

Volume:                              0.115139E+05 au^3   0.170618E+04 A^3
Pressure:                            0.367902E-05 au     0.108241E+09 Pa
>> Charges saved for restart in charges.bin

total energy  -1.9330832E+02 H       energy change -1.9990503E-04 H
gradient norm  9.4399404E-03 H/a0    max. gradient  1.9807365E-03 H/a0
step length    7.6441400E-02 a0      max. step      2.0102512E-02 a0

--------------------------------------------------------------------------------

***  Geometry step: 50

 iSCC Total electronic   Diff electronic      SCC error    
    1   -0.19523983E+03    0.00000000E+00    0.23721869E-02
    2   -0.19523901E+03    0.82034886E-03    0.13694989E-02
    3   -0.19523901E+03   -0.32420159E-05    0.34134896E-03
    4   -0.19523901E+03   -0.55112690E-06    0.29915649E-04
    5   -0.19523901E+03   -0.19515596E-07    0.11134352E-04
    6   -0.19523901E+03   -0.80422069E-09    0.37628084E-05
    7   -0.19523901E+03   -0.14779289E-10    0.62700969E-06
    8   -0.19523901E+03   -0.65369932E-12    0.12682938E-06
    9   -0.19523901E+03   -0.85265128E-13    0.27718146E-07
   10   -0.19523901E+03   -0.85265128E-13    0.33473353E-08

Total Energy:                     -193.3084602601 H        -5260.1908 eV
Extrapolated to 0K:               -193.3084602601 H        -5260.1908 eV
Total Mermin free energy:         -193.3084602601 H        -5260.1908 eV
Force related energy:             -193.3084602601 H        -5260.1908 eV

Volume:                              0.115135E+05 au^3   0.170612E+04 A^3
Pressure:                            0.340020E-05 au     0.100037E+09 Pa
>> Charges saved for restart in charges.bin

total energy  -1.9330846E+02 H       energy change -1.4246535E-04 H
gradient norm  9.0993382E-03 H/a0    max. gradient  1.7409385E-03 H/a0
[...]
>> Charges saved for restart in charges.bin

total energy  -1.9331925E+02 H       energy change -1.2064600E-06 H
gradient norm  7.6451471E-04 H/a0    max. gradient  2.1987181E-04 H/a0
step length    6.5147926E-03 a0      max. step      1.5401095E-03 a0

--------------------------------------------------------------------------------

***  Geometry step: 161

 iSCC Total electronic   Diff electronic      SCC error    
    1   -0.19522506E+03    0.00000000E+00    0.30198646E-03
    2   -0.19522487E+03    0.18211572E-03    0.97215827E-04
    3   -0.19522487E+03   -0.86707871E-07    0.38257635E-04
    4   -0.19522487E+03   -0.81396081E-08    0.62289626E-05
    5   -0.19522487E+03   -0.23050006E-09    0.50020172E-06
    6   -0.19522487E+03   -0.17791990E-10    0.14588527E-06
    7   -0.19522487E+03   -0.34106051E-12    0.20778710E-07
    8   -0.19522487E+03    0.28421709E-13    0.22544615E-08

Total Energy:                     -193.3192518211 H        -5260.4845 eV
Extrapolated to 0K:               -193.3192518211 H        -5260.4845 eV
Total Mermin free energy:         -193.3192518211 H        -5260.4845 eV
Force related energy:             -193.3192518211 H        -5260.4845 eV

Volume:                              0.112884E+05 au^3   0.167277E+04 A^3
Pressure:                           -0.320285E-07 au    -0.942312E+06 Pa
>> Charges saved for restart in charges.bin

total energy  -1.9331925E+02 H       energy change -1.0345347E-06 H
gradient norm  6.6076030E-04 H/a0    max. gradient  1.6629574E-04 H/a0
step length    7.8518717E-03 a0      max. step      1.6313320E-03 a0

--------------------------------------------------------------------------------

***  Geometry step: 162

 iSCC Total electronic   Diff electronic      SCC error    
    1   -0.19522487E+03    0.00000000E+00    0.92304838E-04
    2   -0.19522482E+03    0.52213585E-04    0.48096804E-04
    3   -0.19522482E+03   -0.96678718E-08    0.13646101E-04
    4   -0.19522482E+03   -0.13415047E-08    0.13468140E-05
    5   -0.19522482E+03   -0.50363269E-10    0.47940258E-06
    6   -0.19522482E+03   -0.21316282E-11    0.10538837E-06
    7   -0.19522482E+03   -0.28421709E-13    0.14431249E-07
    8   -0.19522482E+03   -0.28421709E-13    0.28844771E-08

Total Energy:                     -193.3192523757 H        -5260.4845 eV
Extrapolated to 0K:               -193.3192523757 H        -5260.4845 eV
Total Mermin free energy:         -193.3192523757 H        -5260.4845 eV
Force related energy:             -193.3192523757 H        -5260.4845 eV

Volume:                              0.112885E+05 au^3   0.167278E+04 A^3
Pressure:                           -0.510463E-07 au    -0.150183E+07 Pa
>> Charges saved for restart in charges.bin

total energy  -1.9331925E+02 H       energy change -5.5468109E-07 H
gradient norm  6.3103262E-04 H/a0    max. gradient  1.2218118E-04 H/a0
step length    1.8481411E-03 a0      max. step      7.0319718E-04 a0

--------------------------------------------------------------------------------

***  Geometry step: 163

 iSCC Total electronic   Diff electronic      SCC error    
    1   -0.19522482E+03    0.00000000E+00    0.20738341E-03
    2   -0.19522474E+03    0.77560576E-04    0.81161116E-04
    3   -0.19522474E+03   -0.38227483E-07    0.27695755E-04
    4   -0.19522474E+03   -0.46790944E-08    0.28071298E-05
    5   -0.19522474E+03   -0.12167334E-09    0.39981625E-06
    6   -0.19522474E+03   -0.76170181E-11    0.14802750E-06
    7   -0.19522474E+03   -0.14210855E-12    0.36248235E-07
    8   -0.19522474E+03    0.56843419E-13    0.88097778E-08

Total Energy:                     -193.3192535932 H        -5260.4845 eV
Extrapolated to 0K:               -193.3192535932 H        -5260.4845 eV
Total Mermin free energy:         -193.3192535932 H        -5260.4845 eV
Force related energy:             -193.3192535932 H        -5260.4845 eV

Volume:                              0.112886E+05 au^3   0.167280E+04 A^3
Pressure:                           -0.977950E-07 au    -0.287723E+07 Pa
>> Charges saved for restart in charges.bin

total energy  -1.9331925E+02 H       energy change -1.2174839E-06 H
gradient norm  7.6547942E-04 H/a0    max. gradient  1.6620299E-04 H/a0
step length    4.0824141E-03 a0      max. step      9.0384241E-04 a0

--------------------------------------------------------------------------------

***  Geometry step: 164

 iSCC Total electronic   Diff electronic      SCC error    
    1   -0.19522474E+03    0.00000000E+00    0.37123017E-03
    2   -0.19522478E+03   -0.35281454E-04    0.12212781E-03
    3   -0.19522478E+03   -0.72540587E-07    0.34393786E-04
    4   -0.19522478E+03   -0.79914741E-08    0.42106863E-05
    5   -0.19522478E+03   -0.21179858E-09    0.13315089E-05
    6   -0.19522478E+03   -0.13528734E-10    0.48808234E-06
    7   -0.19522478E+03   -0.22737368E-12    0.70209389E-07
    8   -0.19522478E+03   -0.28421709E-13    0.75121704E-08

Total Energy:                     -193.3192553342 H        -5260.4846 eV
Extrapolated to 0K:               -193.3192553342 H        -5260.4846 eV
Total Mermin free energy:         -193.3192553342 H        -5260.4846 eV
Force related energy:             -193.3192553342 H        -5260.4846 eV

Volume:                              0.112890E+05 au^3   0.167285E+04 A^3
Pressure:                           -0.103520E-06 au    -0.304568E+07 Pa
>> Charges saved for restart in charges.bin

total energy  -1.9331926E+02 H       energy change -1.7409301E-06 H
gradient norm  1.0525207E-03 H/a0    max. gradient  2.4624777E-04 H/a0
step length    1.3415905E-02 a0      max. step      2.4958821E-03 a0

--------------------------------------------------------------------------------

***  Geometry step: 165

 iSCC Total electronic   Diff electronic      SCC error    
    1   -0.19522478E+03    0.00000000E+00    0.37857657E-03
    2   -0.19522484E+03   -0.59655965E-04    0.12447356E-03
    3   -0.19522484E+03   -0.71445669E-07    0.24041312E-04
    4   -0.19522484E+03   -0.81388407E-08    0.34958463E-05
    5   -0.19522484E+03   -0.13548629E-09    0.49651617E-06
    6   -0.19522484E+03   -0.82422957E-11    0.15941688E-06
    7   -0.19522484E+03   -0.22737368E-12    0.43160925E-07
    8   -0.19522484E+03   -0.11368684E-12    0.88635819E-08

Total Energy:                     -193.3192573597 H        -5260.4846 eV
Extrapolated to 0K:               -193.3192573597 H        -5260.4846 eV
Total Mermin free energy:         -193.3192573597 H        -5260.4846 eV
Force related energy:             -193.3192573597 H        -5260.4846 eV

Volume:                              0.112893E+05 au^3   0.167291E+04 A^3
Pressure:                           -0.863826E-07 au    -0.254146E+07 Pa
>> Charges saved for restart in charges.bin

total energy  -1.9331926E+02 H       energy change -2.0255554E-06 H
gradient norm  1.1780080E-03 H/a0    max. gradient  3.6451427E-04 H/a0
step length    1.8260676E-02 a0      max. step      3.9160486E-03 a0

--------------------------------------------------------------------------------

***  Geometry step: 166

 iSCC Total electronic   Diff electronic      SCC error    
    1   -0.19522484E+03    0.00000000E+00    0.40015029E-03
    2   -0.19522496E+03   -0.11977602E-03    0.13268334E-03
    3   -0.19522496E+03   -0.12766111E-06    0.46465265E-04
    4   -0.19522496E+03   -0.14665659E-07    0.46774502E-05
    5   -0.19522496E+03   -0.27162628E-09    0.62380186E-06
    6   -0.19522496E+03   -0.14267698E-10    0.18170465E-06
    7   -0.19522496E+03   -0.36948222E-12    0.48401438E-07
    8   -0.19522496E+03   -0.56843419E-13    0.98183413E-08

Total Energy:                     -193.3192597004 H        -5260.4847 eV
Extrapolated to 0K:               -193.3192597004 H        -5260.4847 eV
Total Mermin free energy:         -193.3192597004 H        -5260.4847 eV
Force related energy:             -193.3192597004 H        -5260.4847 eV

Volume:                              0.112895E+05 au^3   0.167293E+04 A^3
Pressure:                           -0.644508E-07 au    -0.189621E+07 Pa
>> Charges saved for restart in charges.bin

total energy  -1.9331926E+02 H       energy change -2.3406357E-06 H
gradient norm  1.0020391E-03 H/a0    max. gradient  2.3949774E-04 H/a0
step length    2.0612493E-02 a0      max. step      4.5593075E-03 a0

--------------------------------------------------------------------------------

***  Geometry step: 167

 iSCC Total electronic   Diff electronic      SCC error    
    1   -0.19522496E+03    0.00000000E+00    0.20794618E-03
    2   -0.19522496E+03    0.12259668E-05    0.88170173E-04
    3   -0.19522496E+03   -0.39951317E-07    0.29927456E-04
    4   -0.19522496E+03   -0.46065338E-08    0.30638003E-05
    5   -0.19522496E+03   -0.84980911E-10    0.34809648E-06
    6   -0.19522496E+03   -0.52011728E-11    0.91269965E-07
    7   -0.19522496E+03    0.00000000E+00    0.11882479E-07
    8   -0.19522496E+03   -0.28421709E-13    0.41481778E-08

Total Energy:                     -193.3192609495 H        -5260.4847 eV
Extrapolated to 0K:               -193.3192609495 H        -5260.4847 eV
Total Mermin free energy:         -193.3192609495 H        -5260.4847 eV
Force related energy:             -193.3192609495 H        -5260.4847 eV

Volume:                              0.112894E+05 au^3   0.167292E+04 A^3
Pressure:                           -0.540965E-07 au    -0.159157E+07 Pa
>> Charges saved for restart in charges.bin

total energy  -1.9331926E+02 H       energy change -1.2491872E-06 H
gradient norm  6.9551741E-04 H/a0    max. gradient  1.4293934E-04 H/a0
step length    4.8244306E-03 a0      max. step      1.0027214E-03 a0

--------------------------------------------------------------------------------

***  Geometry step: 168

 iSCC Total electronic   Diff electronic      SCC error    
    1   -0.19522496E+03    0.00000000E+00    0.18127013E-03
    2   -0.19522495E+03    0.13290497E-04    0.66798146E-04
    3   -0.19522495E+03   -0.37750397E-07    0.22935651E-04
    4   -0.19522495E+03   -0.45639013E-08    0.31007994E-05
    5   -0.19522495E+03   -0.89130481E-10    0.59565103E-06
    6   -0.19522495E+03   -0.59117156E-11    0.17445611E-06
    7   -0.19522495E+03    0.28421709E-13    0.29699924E-07
    8   -0.19522495E+03   -0.28421709E-13    0.61448109E-08

Total Energy:                     -193.3192617720 H        -5260.4848 eV
Extrapolated to 0K:               -193.3192617720 H        -5260.4848 eV
Total Mermin free energy:         -193.3192617720 H        -5260.4848 eV
Force related energy:             -193.3192617720 H        -5260.4848 eV

Volume:                              0.112893E+05 au^3   0.167291E+04 A^3
Pressure:                           -0.706151E-07 au    -0.207757E+07 Pa
>> Charges saved for restart in charges.bin

total energy  -1.9331926E+02 H       energy change -8.2243122E-07 H
gradient norm  6.1962008E-04 H/a0    max. gradient  1.7424381E-04 H/a0
step length    4.5937256E-03 a0      max. step      1.0200262E-03 a0

--------------------------------------------------------------------------------

***  Geometry step: 169

 iSCC Total electronic   Diff electronic      SCC error    
    1   -0.19522495E+03    0.00000000E+00    0.92409613E-04
    2   -0.19522494E+03    0.26372998E-05    0.37358905E-04
    3   -0.19522494E+03   -0.59773981E-08    0.10333538E-04
    4   -0.19522494E+03   -0.84739327E-09    0.14040497E-05
    5   -0.19522494E+03   -0.22936320E-10    0.44199993E-06
    6   -0.19522494E+03   -0.10800250E-11    0.15159826E-06
    7   -0.19522494E+03   -0.14210855E-12    0.22151133E-07
    8   -0.19522494E+03    0.85265128E-13    0.29471301E-08

Total Energy:                     -193.3192622626 H        -5260.4848 eV
Extrapolated to 0K:               -193.3192622626 H        -5260.4848 eV
Total Mermin free energy:         -193.3192622626 H        -5260.4848 eV
Force related energy:             -193.3192622626 H        -5260.4848 eV

Volume:                              0.112893E+05 au^3   0.167290E+04 A^3
Pressure:                           -0.696669E-07 au    -0.204967E+07 Pa
>> Charges saved for restart in charges.bin

total energy  -1.9331926E+02 H       energy change -4.9064769E-07 H
gradient norm  6.2016063E-04 H/a0    max. gradient  1.7050937E-04 H/a0
step length    1.2170997E-03 a0      max. step      2.9835311E-04 a0

--------------------------------------------------------------------------------

***  Geometry step: 170

 iSCC Total electronic   Diff electronic      SCC error    
    1   -0.19522494E+03    0.00000000E+00    0.22468369E-03
    2   -0.19522493E+03    0.12980252E-04    0.11569164E-03
    3   -0.19522493E+03   -0.54562094E-07    0.34722723E-04
    4   -0.19522493E+03   -0.73167428E-08    0.69361666E-05
    5   -0.19522493E+03   -0.22149038E-09    0.18449207E-05
    6   -0.19522493E+03   -0.15660362E-10    0.57871558E-06
    7   -0.19522493E+03   -0.62527761E-12    0.71113150E-07
    8   -0.19522493E+03    0.17053026E-12    0.66188197E-08

Total Energy:                     -193.3192637176 H        -5260.4848 eV
Extrapolated to 0K:               -193.3192637176 H        -5260.4848 eV
Total Mermin free energy:         -193.3192637176 H        -5260.4848 eV
Force related energy:             -193.3192637176 H        -5260.4848 eV

Volume:                              0.112890E+05 au^3   0.167286E+04 A^3
Pressure:                           -0.739361E-07 au    -0.217528E+07 Pa
>> Charges saved for restart in charges.bin

total energy  -1.9331926E+02 H       energy change -1.4549979E-06 H
gradient norm  7.7042716E-04 H/a0    max. gradient  1.8319423E-04 H/a0
step length    7.6849954E-03 a0      max. step      1.9778399E-03 a0

--------------------------------------------------------------------------------

***  Geometry step: 171

 iSCC Total electronic   Diff electronic      SCC error    
    1   -0.19522493E+03    0.00000000E+00    0.21650225E-03
    2   -0.19522493E+03    0.43307390E-05    0.77176627E-04
    3   -0.19522493E+03   -0.41858158E-07    0.30072563E-04
    4   -0.19522493E+03   -0.41074770E-08    0.42487572E-05
    5   -0.19522493E+03   -0.13795898E-09    0.80667932E-06
    6   -0.19522493E+03   -0.11027623E-10    0.31222170E-06
    7   -0.19522493E+03   -0.19895197E-12    0.52675147E-07
    8   -0.19522493E+03    0.00000000E+00    0.70367987E-08

Total Energy:                     -193.3192650169 H        -5260.4849 eV
Extrapolated to 0K:               -193.3192650169 H        -5260.4849 eV
Total Mermin free energy:         -193.3192650169 H        -5260.4849 eV
Force related energy:             -193.3192650169 H        -5260.4849 eV

Volume:                              0.112888E+05 au^3   0.167283E+04 A^3
Pressure:                           -0.914872E-07 au    -0.269165E+07 Pa
>> Charges saved for restart in charges.bin

total energy  -1.9331927E+02 H       energy change -1.2992626E-06 H
gradient norm  9.7382448E-04 H/a0    max. gradient  2.2680738E-04 H/a0
step length    1.7409435E-02 a0      max. step      3.5791642E-03 a0

--------------------------------------------------------------------------------

***  Geometry step: 172

 iSCC Total electronic   Diff electronic      SCC error    
    1   -0.19522493E+03    0.00000000E+00    0.31875248E-03
    2   -0.19522507E+03   -0.14853510E-03    0.10871115E-03
    3   -0.19522507E+03   -0.83543028E-07    0.37201609E-04
    4   -0.19522507E+03   -0.93563415E-08    0.71319093E-05
    5   -0.19522507E+03   -0.22654945E-09    0.62690705E-06
    6   -0.19522507E+03   -0.17422508E-10    0.24860016E-06
    7   -0.19522507E+03   -0.42632564E-12    0.68613861E-07
    8   -0.19522507E+03    0.28421709E-13    0.12481511E-07
    9   -0.19522507E+03   -0.56843419E-13    0.31331724E-08

Total Energy:                     -193.3192662479 H        -5260.4849 eV
Extrapolated to 0K:               -193.3192662479 H        -5260.4849 eV
Total Mermin free energy:         -193.3192662479 H        -5260.4849 eV
Force related energy:             -193.3192662479 H        -5260.4849 eV

Volume:                              0.112887E+05 au^3   0.167281E+04 A^3
Pressure:                           -0.526185E-07 au    -0.154809E+07 Pa
>> Charges saved for restart in charges.bin

total energy  -1.9331927E+02 H       energy change -1.2310466E-06 H
gradient norm  9.8684802E-04 H/a0    max. gradient  1.8590236E-04 H/a0
step length    2.0677936E-02 a0      max. step      4.6551537E-03 a0

--------------------------------------------------------------------------------

***  Geometry step: 173

 iSCC Total electronic   Diff electronic      SCC error    
    1   -0.19522507E+03    0.00000000E+00    0.15114719E-03
    2   -0.19522505E+03    0.22515643E-04    0.85145004E-04
    3   -0.19522505E+03   -0.91432071E-08    0.14179867E-04
    4   -0.19522505E+03   -0.18204673E-08    0.12762965E-05
    5   -0.19522505E+03   -0.87794660E-10    0.51658692E-06
    6   -0.19522505E+03   -0.14495072E-11    0.14987381E-06
    7   -0.19522505E+03   -0.11368684E-12    0.25212714E-07
    8   -0.19522505E+03    0.56843419E-13    0.47222377E-08

Total Energy:                     -193.3192672076 H        -5260.4849 eV
Extrapolated to 0K:               -193.3192672076 H        -5260.4849 eV
Total Mermin free energy:         -193.3192672076 H        -5260.4849 eV
Force related energy:             -193.3192672076 H        -5260.4849 eV

Volume:                              0.112887E+05 au^3   0.167281E+04 A^3
Pressure:                           -0.349123E-07 au    -0.102715E+07 Pa
>> Charges saved for restart in charges.bin

total energy  -1.9331927E+02 H       energy change -9.5969855E-07 H
gradient norm  6.9913509E-04 H/a0    max. gradient  1.3795848E-04 H/a0
step length    1.6877891E-03 a0      max. step      3.7400040E-04 a0

--------------------------------------------------------------------------------

***  Geometry step: 174

 iSCC Total electronic   Diff electronic      SCC error    
    1   -0.19522505E+03    0.00000000E+00    0.29303788E-03
    2   -0.19522505E+03   -0.14231048E-05    0.16447356E-03
    3   -0.19522505E+03   -0.52549183E-07    0.37974559E-04
    4   -0.19522505E+03   -0.87262890E-08    0.27947912E-05
    5   -0.19522505E+03   -0.35302605E-09    0.55758414E-06
    6   -0.19522505E+03   -0.10174972E-10    0.22731594E-06
    7   -0.19522505E+03   -0.17053026E-12    0.47864485E-07
    8   -0.19522505E+03   -0.11368684E-12    0.10601839E-07
    9   -0.19522505E+03    0.56843419E-13    0.33871559E-08

Total Energy:                     -193.3192684203 H        -5260.4849 eV
Extrapolated to 0K:               -193.3192684203 H        -5260.4849 eV
Total Mermin free energy:         -193.3192684203 H        -5260.4849 eV
Force related energy:             -193.3192684203 H        -5260.4849 eV

Volume:                              0.112886E+05 au^3   0.167280E+04 A^3
Pressure:                           -0.511135E-07 au    -0.150381E+07 Pa
>> Charges saved for restart in charges.bin

total energy  -1.9331927E+02 H       energy change -1.2126363E-06 H
gradient norm  4.9823011E-04 H/a0    max. gradient  8.7776726E-05 H/a0
step length    5.6096429E-03 a0      max. step      1.3812056E-03 a0

Geometry converged

--------------------------------------------------------------------------------
DFTB+ running times                          cpu [s]             wall clock [s]
--------------------------------------------------------------------------------
Pre-SCC initialisation                 +      18.34 (  1.1%)       2.34 (  1.1%)
SCC                                    +    1483.39 ( 89.4%)     186.97 ( 90.5%)
Post-SCC processing                    +     157.98 (  9.5%)      17.28 (  8.4%)
--------------------------------------------------------------------------------
Missing                                +       0.04 (  0.0%)       0.01 (  0.0%)
Total                                  =    1659.75 (100.0%)     206.60 (100.0%)
--------------------------------------------------------------------------------
