   72
Geometry Step: 0
   Ge      1.51640887      3.67434600      7.70763040      3.17002496
   Ge      6.51966213      3.67434600      0.91484460      3.16650621
   Ge      6.51966213     11.35365400      0.91484460      3.16916744
   Ge      1.51640887     11.35365400      7.70763040      3.16913691
   Ge      6.74140887     11.18834600      7.70763040      3.16919451
   Ge      1.29466213     11.18834600      0.91484460      3.16916867
   Ge      1.29466213      3.83965400      0.91484460      3.16684601
   Ge      2.40431475      5.97964120      2.86007496      3.17898783
   Ge      5.63175625      5.97964120      5.76240004      3.17784333
   Ge      5.63175625      9.04835880      5.76240004      3.17876883
   Ge      2.40431475      9.04835880      2.86007496      3.17869506
   Ge      7.62931475     13.49364120      2.86007496      3.17870688
   Ge      0.40675625     13.49364120      5.76240004      3.17866882
   Ge      0.40675625      1.53435880      5.76240004      3.17874167
   Ge      7.62931475      1.53435880      2.86007496      3.17898942
   Ge      2.56407553      5.97964120      5.91760459      3.18128854
   Ge      5.47199547      5.97964120      2.70487041      3.18168216
   Ge      5.47199547      9.04835880      2.70487041      3.18129080
   Ge      2.56407553      9.04835880      5.91760459      3.18125600
   Ge      7.78907553     13.49364120      5.91760459      3.18129526
   Ge      0.24699547     13.49364120      2.70487041      3.18127841
   Ge      0.24699547      1.53435880      2.70487041      3.18160809
   Ge      7.78907553      1.53435880      5.91760459      3.17996600
   Si      6.74140887      3.83965400      7.70763040      3.10937837
    O      5.22500000      3.40534480      0.00000000      6.40244659
    O      5.22500000     11.62265520      0.00000000      6.40190871
    O      0.00000000     10.91934480      0.00000000      6.40193452
    O      0.00000000      4.10865520      0.00000000      6.41688301
    O      1.37088378      2.46609480      6.65223946      6.39374406
    O      6.66518722      2.46609480      1.97023554      6.39419355
    O      6.66518722     12.56190520      1.97023554      6.39360774
    O      1.37088378     12.56190520      6.65223946      6.39360945
    O      6.59588378      9.98009480      6.65223946      6.39366434
    O      1.44018722      9.98009480      1.97023554      6.39363223
    O      1.44018722      5.04790520      1.97023554      6.39414410
    O      6.59588378      5.04790520      6.65223946      6.40590126
    O      1.68921648      5.05992760      6.90746472      6.39677608
    O      6.34685452      5.05992760      1.71501028      6.39735581
    O      6.34685452      9.96807240      1.71501028      6.39668871
    O      1.68921648      9.96807240      6.90746472      6.39666808
    O      6.91421648     12.57392760      6.90746472      6.39669621
    O      1.12185452     12.57392760      1.71501028      6.39666340
    O      1.12185452      2.45407240      1.71501028      6.39727010
    O      6.91421648      2.45407240      6.90746472      6.40866661
    O      2.61250000      3.75700000      0.00000000      6.40075520
    O      7.83750000      3.75700000      0.00000000      6.41644089
    O      7.83750000     11.27100000      0.00000000      6.40024400
    O      2.61250000     11.27100000      0.00000000      6.40022765
    O      3.91513367      5.85340600      2.31599678      6.43679676
    O      4.12093733      5.85340600      6.30647822      6.43736757
    O      4.12093733      9.17459400      6.30647822      6.43684910
    O      3.91513367      9.17459400      2.31599678      6.43681002
    O      9.14013367     13.36740600      2.31599678      6.43684354
    O     -1.10406267     13.36740600      6.30647822      6.43684938
    O     -1.10406267      1.66059400      6.30647822      6.43744205
    O      9.14013367      1.66059400      2.31599678      6.43765853
    O      2.34641400      5.50175080      4.39573775      6.42460336
    O      5.68965700      5.50175080      4.22673724      6.42502584
    O      5.68965700      9.52624920      4.22673724      6.42452291
    O      2.34641400      9.52624920      4.39573775      6.42453410
    O      7.57141400     13.01575080      4.39573775      6.42451634
    O      0.46465700     13.01575080      4.22673724      6.42451660
    O      0.46465700      2.01224920      4.22673724      6.42457783
    O      7.57141400      2.01224920      4.39573775      6.42514368
    O      1.92565329      7.51400000      2.75574301      6.41873018
    O      6.11041771      7.51400000      5.86673199      6.41901837
    O      7.15065329      0.00000000      2.75574301      6.41869461
    O      0.88541771      0.00000000      5.86673199      6.41865769
    O      2.09724095      7.51400000      6.06591116      6.41796775
    O      5.93883005      7.51400000      2.55656384      6.41801339
    O      7.32224095      0.00000000      6.06591116      6.41826184
    O      0.71383005      0.00000000      2.55656384      6.41798608
   72
Geometry Step: 1
   Ge      1.51675923      3.67375307      7.70786291      3.18973867
   Ge      6.51923489      3.67387438      0.91478376      3.17300017
   Ge      6.51932616     11.35424058      0.91476643      3.16364639
   Ge      1.51674504     11.35424129      7.70771182      3.18309401
   Ge      6.74174337     11.18775565      7.70770456      3.19679245
   Ge      1.29432730     11.18775559      0.91476603      3.17378604
   Ge      1.29453482      3.84016723      0.91487529      3.18218651
   Ge      2.40307950      5.97937289      2.85885350      3.18858113
   Ge      5.63262818      5.97959054      5.76339884      3.17711593
   Ge      5.63297905      9.04854291      5.76356914      3.17550886
   Ge      2.40309000      9.04857068      2.85888747      3.18771302
   Ge      7.62808557     13.49342313      2.85888797      3.20399902
   Ge      0.40798301     13.49341610      5.76358671      3.19667422
   Ge      0.40798238      1.53457135      5.76357543      3.18921421
   Ge      7.62808769      1.53458703      2.85888135      3.19550523
   Ge      2.56268528      5.97898424      5.91868926      3.18349265
   Ge      5.47337815      5.97892881      2.70377365      3.18745649
   Ge      5.47338375      9.04901465      2.70377608      3.18721301
   Ge      2.56269030      9.04902596      5.91869867      3.18369409
   Ge      7.78769053     13.49299886      5.91868674      3.21889573
   Ge      0.24838424     13.49297821      2.70377387      3.23261297
   Ge      0.24839732      1.53503895      2.70375690      3.22869719
   Ge      7.78801156      1.53486621      5.91838453      3.21740187
   Si      6.74128605      3.84008879      7.70892187      3.10558990
    O      5.22484657      3.38827584     -0.00006776      6.40857899
    O      5.22499926     11.63970164     -0.00000097      6.40823155
    O      0.00000053     10.90229863      0.00000053      6.43154941
    O     -0.03355804      4.11898336     -0.02373520      6.46400606
    O      1.39506530      2.45691933      6.64706578      6.37766616
    O      6.64098666      2.45681877      1.97552981      6.38665253
    O      6.64099834     12.57106533      1.97539434      6.38051242
    O      1.39507246     12.57106666      6.64707956      6.37000031
    O      6.62007625      9.97093721      6.64708469      6.36799851
    O      1.41599609      9.97093720      1.97539254      6.38825756
    O      1.41605714      5.05714220      1.97549901      6.38625247
    O      6.62427000      5.02686048      6.67335443      6.39180901
    O      1.66865668      5.07563346      6.91206270      6.38120940
    O      6.36733869      5.07573715      1.71051802      6.39165725
    O      6.36742039      9.95238327      1.71039895      6.39301798
    O      1.66865151      9.95238090      6.91207417      6.38101505
    O      6.89365110     12.58962080      6.91207582      6.34664499
    O      1.14241849     12.58962024      1.71040117      6.36698231
    O      1.14240140      2.43822893      1.71049222      6.37352577
    O      6.88879397      2.47345385      6.93259055      6.37704748
    O      2.61263529      3.75697060     -0.00006955      6.40486537
    O      7.87218454      3.75916119     -0.02413134      6.42374774
    O      7.83750014     11.27100029      0.00000017      6.39355588
    O      2.61250013     11.27100035     -0.00000069      6.40545228
    O      3.91340454      5.84501748      2.28731310      6.43064932
    O      4.12254700      5.84499854      6.33519358      6.43387030
    O      4.12265330      9.18298895      6.33516571      6.43603428
    O      3.91341035      9.18298856      2.28731153      6.43171101
    O      9.13841287     13.35901300      2.28731086      6.43165565
    O     -1.10233667     13.35901245      6.33516455      6.43134874
    O     -1.10223584      1.66900829      6.33517434      6.45369733
    O      9.13841574      1.66895902      2.28736941      6.45471047
    O      2.33674419      5.47227057      4.39629915      6.42055654
    O      5.69930835      5.47225666      4.22608303      6.41860839
    O      5.69932799      9.55573484      4.22618521      6.42401915
    O      2.33674379      9.55573038      4.39628920      6.42500312
    O      7.56174318     12.98626723      4.39628394      6.38324477
    O      0.47432667     12.98627067      4.22619052      6.38439669
    O      0.47432608      2.04173402      4.22620206      6.40590201
    O      7.56174440      2.04175197      4.39619720      6.40356240
    O      1.89578232      7.51401017      2.74834535      6.41443113
    O      6.14026669      7.51411729      5.87412726      6.41214248
    O      7.12078305     -0.00001176      2.74834516      6.43298899
    O      0.91528662     -0.00000083      5.87413199      6.43126731
    O      2.06823931      7.51400168      6.07628039      6.41258557
    O      5.96783408      7.51401523      2.54619388      6.41580102
    O      7.29325575     -0.00011128      6.07626522      6.39341681
    O      0.74283199     -0.00000790      2.54619564      6.39655027
   72
Geometry Step: 2
   Ge      1.51474597      3.66774176      7.75241611      3.19055348
   Ge      6.53416442      3.67394758      0.90725707      3.17912756
   Ge      6.51593902     11.35355948      0.91917209      3.17073790
   Ge      1.51470624     11.35847620      7.75276095      3.18494241
   Ge      6.75902888     11.17780155      7.76839573      3.20244860
   Ge      1.29048416     11.18596443      0.91550638      3.18245475
   Ge      1.27380207      3.84364272      0.90411014      3.19330810
   Ge      2.40293801      5.97915754      2.85789715      3.19741466
   Ge      5.64068083      5.97159465      5.77025806      3.19077255
   Ge      5.63025317      9.04552205      5.76105907      3.18973681
   Ge      2.40324306      9.04696567      2.85835150      3.19605487
   Ge      7.61582071     13.54658873      2.85242517      3.21795122
   Ge      0.42003856     13.54711119      5.76758177      3.21687864
   Ge      0.40297778      1.53114713      5.76303880      3.20480685
   Ge      7.63315293      1.53155425      2.85677941      3.20612684
   Ge      2.56338124      5.97938837      5.91622410      3.19870792
   Ge      5.47213746      5.97902862      2.70355765      3.19656671
   Ge      5.47198334      9.04724724      2.70402529      3.19672235
   Ge      2.56370606      9.04685272      5.91586166      3.19816126
   Ge      7.83083375     13.53991672      5.93471408      3.23978092
   Ge      0.20775334     13.53877757      2.68474402      3.24666559
   Ge      0.19118828      1.53984168      2.69074832      3.23698447
   Ge      7.83793150      1.54760153      5.93892219      3.22938486
   Si      6.74934057      3.84361338      7.74136992      3.10063588
    O      5.18955625      3.36903884     -0.02520139      6.40050102
    O      5.18977665     11.65924059     -0.02493023      6.40174779
    O     -0.05742454     10.88695024     -0.04145395      6.42599027
    O     -0.08804905      4.12866461     -0.06326287      6.46167646
    O      1.43495639      2.44697864      6.64294764      6.37349339
    O      6.60199727      2.44510676      1.98205467      6.37313985
    O      6.60282442     12.58554575      1.98383836      6.37167770
    O      1.43414680     12.58351873      6.64134588      6.37009020
    O      6.66025126      9.96142341      6.64391203      6.36989848
    O      1.37844038      9.95773212      1.98352472      6.37761366
    O      1.37879630      5.07149189      1.98418375      6.37851343
    O      6.65745587      5.01034328      6.69244559      6.38993464
    O      1.63554437      5.09638351      6.92273806      6.38301525
    O      6.40023496      5.09866346      1.70204045      6.38439507
    O      6.40062168      9.93069434      1.70142181      6.38343755
    O      1.63507957      9.93290188      6.92330179      6.38168471
    O      6.86208671     12.61157962      6.92264296      6.35837423
    O      1.17299621     12.61628818      1.70456504      6.36729811
    O      1.17375765      2.41427710      1.70314522      6.36875739
    O      6.86150984      2.48664147      6.95779901      6.37942720
    O      2.65245648      3.75453549     -0.02698078      6.40684401
    O      7.92046955      3.76263362     -0.05815159      6.42718942
    O      7.87995926     11.26827934     -0.02836462      6.39767575
    O      2.65244002     11.27378193     -0.02709256      6.40635896
    O      3.91176062      5.83296293      2.24452920      6.42356364
    O      4.12557656      5.83260995      6.37867791      6.42858290
    O      4.12565398      9.19579467      6.37864686      6.42932434
    O      3.91170654      9.19552456      2.24440858      6.42569993
    O      9.19512545     13.35185283      2.25971037      6.42618103
    O     -1.16009206     13.35178283      6.36319984      6.42617784
    O     -1.16058257      1.67709967      6.36347260      6.43541194
    O      9.19573199      1.67666283      2.25973935      6.43537569
    O      2.32282214      5.42836639      4.39810002      6.41470783
    O      5.71375783      5.42811301      4.22726782      6.41395325
    O      5.71376731      9.60025534      4.22714694      6.41489875
    O      2.32273700      9.60015441      4.39808685      6.41590007
    O      7.54774174     12.94328195      4.40259191      6.38269653
    O      0.48820074     12.94335780      4.22255604      6.38353192
    O      0.48776106      2.08654873      4.22253042      6.39523797
    O      7.54808833      2.08683151      4.40272525      6.39499098
    O      1.85090100      7.51481208      2.73781586      6.40762281
    O      6.18560364      7.51457267      5.88535213      6.40620606
    O      7.09072868     -0.05369848      2.74186415      6.41402462
    O      0.94526111     -0.05364443      5.88108642      6.41295867
    O      2.02477410      7.51478429      6.09176448      6.40586799
    O      6.01147326      7.51476626      2.53122537      6.40863886
    O      7.26687696     -0.05315867      6.08727519      6.39579721
    O      0.76878204     -0.05337002      2.53577861      6.39698944
   72
Geometry Step: 3
   Ge      1.49808379      3.67061883      7.78297330      3.19933875
   Ge      6.54970830      3.67367788      0.86208270      3.19222330
   Ge      6.52107549     11.35858283      0.88201456      3.18542187
   Ge      1.49745751     11.36046099      7.78067298      3.19220823
   Ge      6.79157195     11.17128013      7.83007684      3.20704428
   Ge      1.27566263     11.18447497      0.86977436      3.19425001
   Ge      1.25439842      3.85023492      0.85500028      3.20524322
   Ge      2.40964352      5.98461502      2.86392499      3.21630102
   Ge      5.65687895      5.95893535      5.78503776      3.20796113
   Ge      5.62869195      9.04616346      5.76167730      3.21143278
   Ge      2.40971084      9.04415685      2.86419903      3.21564710
   Ge      7.63593819     13.59949084      2.84652381      3.24071844
   Ge      0.40208819     13.59846727      5.77754084      3.23676452
   Ge      0.37688967      1.49964220      5.77718570      3.22637957
   Ge      7.66144593      1.49844696      2.84635626      3.23068796
   Ge      2.56763777      5.98309285      5.91280452      3.21793688
   Ge      5.46659933      5.98420216      2.71191005      3.21900997
   Ge      5.46692012      9.04505232      2.71200089      3.21946864
   Ge      2.56764128      9.04639496      5.91343469      3.21611323
   Ge      7.87177256     13.58039095      5.95390496      3.25907670
   Ge      0.16567836     13.58229047      2.67063389      3.26247691
   Ge      0.13381998      1.51053992      2.67292890      3.25013256
   Ge      7.87678472      1.53238620      5.97448666      3.24101491
   Si      6.76369230      3.85076166      7.80463990      3.09658314
    O      5.18539032      3.34764300     -0.02570036      6.39273955
    O      5.18111130     11.68199190     -0.02893997      6.39421073
    O     -0.10468051     10.87827019     -0.07737679      6.40416021
    O     -0.13853439      4.13480832     -0.10205384      6.44444647
    O      1.48406966      2.44025616      6.64210183      6.36827673
    O      6.55123180      2.42659218      1.99245785      6.36998591
    O      6.56085610     12.61373254      2.00352587      6.37111341
    O      1.47545264     12.59370637      6.63630499      6.36667572
    O      6.71147390      9.96342869      6.65090006      6.36822114
    O      1.32475421      9.94047665      1.99301339      6.37298270
    O      1.32378523      5.08191099      1.98780885      6.37562739
    O      6.68999073      5.00814622      6.70066180      6.38670167
    O      1.58834989      5.10446531      6.94770833      6.37749537
    O      6.44827773      5.12223096      1.68426471      6.38315031
    O      6.44705120      9.89823110      1.68918907      6.38052973
    O      1.58949844      9.92197365      6.94546513      6.37563167
    O      6.83421779     12.63243236      6.92973706      6.36822359
    O      1.20178788     12.66103474      1.70937012      6.37150517
    O      1.21124599      2.37840021      1.69952260      6.37449779
    O      6.84309959      2.47384678      6.96571472      6.38886772
    O      2.67225344      3.75340928     -0.04016036      6.39946607
    O      7.95927479      3.76553489     -0.08645047      6.42451814
    O      7.90612441     11.26658048     -0.04527545      6.39915533
    O      2.67562335     11.27523272     -0.04336057      6.39846710
    O      3.90823777      5.81712927      2.18691034      6.41032229
    O      4.13239328      5.81695319      6.43539727      6.42066983
    O      4.12723804      9.21239215      6.43739625      6.41529553
    O      3.90802269      9.21186379      2.18659014      6.41344599
    O      9.22987726     13.34807679      2.24420117      6.40892093
    O     -1.19521002     13.34818802      6.37875962      6.40994480
    O     -1.20500534      1.68325556      6.38439966      6.41657948
    O      9.23844972      1.68223419      2.23934316      6.41047258
    O      2.30516906      5.36985015      4.39600167      6.39906391
    O      5.73169531      5.37081301      4.22873210      6.40237991
    O      5.73176366      9.65902156      4.22340985      6.39815616
    O      2.30506267      9.65887381      4.39592509      6.40023342
    O      7.53457267     12.90297046      4.40993161      6.37921404
    O      0.50067833     12.90282951      4.21159545      6.38062543
    O      0.50402916      2.13834024      4.20807446      6.39115908
    O      7.53163488      2.13745985      4.41768232      6.39449926
    O      1.79149111      7.51269477      2.72481797      6.39661748
    O      6.24467557      7.50732498      5.89901675      6.39754490
    O      7.06667040     -0.08754493      2.73652572      6.39038291
    O      0.96916347     -0.08743511      5.88691418      6.38808060
    O      1.96721407      7.51254988      6.11146793      6.39325563
    O      6.06931319      7.51260638      2.51232564      6.39642643
    O      7.25310720     -0.07644730      6.09386122      6.39362232
    O      0.78253187     -0.08069743      2.52970255      6.39300239
   72
Geometry Step: 4
   Ge      1.48520994      3.65839336      7.83756139      3.20442977
   Ge      6.58111037      3.66906485      0.83625733      3.20176967
   Ge      6.53685249     11.36433179      0.87726727      3.19727499
   Ge      1.48447834     11.37403209      7.82661664      3.19799770
   Ge      6.81487954     11.17790940      7.89043614      3.20882414
   Ge      1.25338052     11.19476630      0.84447063      3.20573086
   Ge      1.22577152      3.84328325      0.81856279      3.21296490
   Ge      2.40786654      5.98194020      2.86052887      3.24023549
   Ge      5.66664354      5.94738201      5.79157287      3.23111865
   Ge      5.63856612      9.04915765      5.76575167      3.23921802
   Ge      2.41136204      9.03988398      2.86409880      3.24139058
   Ge      7.65163771     13.63769420      2.84781355      3.25798677
   Ge      0.39238575     13.62963258      5.77980156      3.25916775
   Ge      0.36182727      1.48841035      5.78017344      3.24976742
   Ge      7.67810460      1.48313757      2.84781370      3.25021709
   Ge      2.56584997      5.97412295      5.91658004      3.24686788
   Ge      5.46858304      5.98054316      2.71422443      3.24173260
   Ge      5.46444050      9.04005168      2.71371071      3.24480512
   Ge      2.56112246      9.05024525      5.91415213      3.24645517
   Ge      7.88548839     13.61663449      5.96383005      3.28206930
   Ge      0.14167537     13.62712302      2.66730598      3.28120867
   Ge      0.11810750      1.48598037      2.66403440      3.27013949
   Ge      7.88474092      1.51686995      5.99054199      3.26163110
   Si      6.78240883      3.85283864      7.87181054      3.08976016
    O      5.15203781      3.32461998     -0.04788998      6.38138021
    O      5.14186468     11.70751644     -0.05531766      6.38537278
    O     -0.14979206     10.87039060     -0.11226922      6.39140955
    O     -0.18995347      4.13888063     -0.14388092      6.42827911
    O      1.52237779      2.42133403      6.63101483      6.36893356
    O      6.50898100      2.40887865      2.00280467      6.36331334
    O      6.52357365     12.63620146      2.01852870      6.36595891
    O      1.50611509     12.61543786      6.62206900      6.36980587
    O      6.75985855      9.96436068      6.65713739      6.36957400
    O      1.26524344      9.93512091      1.99182764      6.36742606
    O      1.26897477      5.09104936      1.99063208      6.36940421
    O      6.73125907      4.99763148      6.71845775      6.38830932
    O      1.54680719      5.13250862      6.95942950      6.37791651
    O      6.49616330      5.14799869      1.66829391      6.37547798
    O      6.49941326      9.87540615      1.66893390      6.37106876
    O      1.54608396      9.89848804      6.96044884      6.37639043
    O      6.81201797     12.64729651      6.93836769      6.37112039
    O      1.23243161     12.68614446      1.70274990      6.36756812
    O      1.24305163      2.35297212      1.69318477      6.36537247
    O      6.82593969      2.46433586      6.97643343      6.39197420
    O      2.70264038      3.75164227     -0.06134022      6.38914797
    O      8.00123037      3.76843501     -0.11795878      6.41210061
    O      7.95388525     11.26364791     -0.07748839      6.39337054
    O      2.70742112     11.27712154     -0.06606203      6.39213690
    O      3.90529410      5.79910607      2.11877771      6.39654618
    O      4.14004652      5.80071441      6.49781243      6.41111937
    O      4.13145644      9.23079729      6.50568064      6.40545438
    O      3.90504816      9.23007056      2.11846474      6.39716622
    O      9.24875534     13.34466673      2.22731897      6.40437263
    O     -1.21244355     13.34462813      6.39607224      6.40824108
    O     -1.22221774      1.69086097      6.41174548      6.41247008
    O      9.25092809      1.69044517      2.21020651      6.40472840
    O      2.28640913      5.30271310      4.40160206      6.38490973
    O      5.75006626      5.30812425      4.23723085      6.38827878
    O      5.75140438      9.72593826      4.23027765      6.38222646
    O      2.28645122      9.72601469      4.40218607      6.38338382
    O      7.52561837     12.87634649      4.41750061      6.36946641
    O      0.50986740     12.87570588      4.21007740      6.37122085
    O      0.51720237      2.17859195      4.20634050      6.37744952
    O      7.51942223      2.17554321      4.42708343      6.38152050
    O      1.72456616      7.51554557      2.71160741      6.37894810
    O      6.30770326      7.50694244      5.91212766      6.38659033
    O      7.04402163     -0.12284741      2.73164155      6.37490346
    O      0.99213009     -0.12285011      5.89276270      6.37721038
    O      1.90269787      7.51586466      6.13244579      6.38103021
    O      6.13368110      7.51531293      2.49256980      6.37908464
    O      7.24617791     -0.10462011      6.09837833      6.37768793
    O      0.78986752     -0.11246656      2.52625749      6.37041543
   72
Geometry Step: 5
   Ge      1.46699575      3.65250580      7.84140486      3.22308493
   Ge      6.59987258      3.65684099      0.81919961      3.21804346
   Ge      6.54518512     11.38011652      0.86729573      3.21372684
   Ge      1.46289019     11.38257827      7.82361291      3.21480546
   Ge      6.84026086     11.18665394      7.92528439      3.22126999
   Ge      1.23862558     11.20686627      0.82383914      3.21956721
   Ge      1.20038664      3.83503919      0.79008210      3.22511451
   Ge      2.40117849      5.97623655      2.85826028      3.26811992
   Ge      5.67814436      5.93942780      5.80404360      3.25397360
   Ge      5.64769924      9.05499830      5.77820847      3.26379232
   Ge      2.40430102      9.04857249      2.86207121      3.27005333
   Ge      7.65706893     13.65423908      2.85460728      3.27641268
   Ge      0.38926193     13.64458577      5.77747821      3.27257142
   Ge      0.36071606      1.48223560      5.77696751      3.26448659
   Ge      7.67537273      1.47679948      2.85707401      3.27006315
   Ge      2.56529615      5.97340303      5.92190583      3.26986309
   Ge      5.47287904      5.97594089      2.71636031      3.27257099
   Ge      5.46822068      9.04599466      2.71544630      3.27774248
   Ge      2.55946856      9.05372095      5.91963899      3.27018704
   Ge      7.90412643     13.64049962      5.97481358      3.29165524
   Ge      0.11746903     13.65239179      2.66327204      3.29186418
   Ge      0.09862628      1.47870720      2.65802249      3.28378037
   Ge      7.90166630      1.51122443      6.00186908      3.27312521
   Si      6.81019832      3.84936537      7.92318462      3.09130300
    O      5.15138011      3.29781218     -0.04360621      6.37916173
    O      5.14158083     11.73691686     -0.04969426      6.38383989
    O     -0.18800661     10.86132785     -0.14210024      6.38299959
    O     -0.23818423      4.14147716     -0.18387456      6.41754865
    O      1.55597384      2.40891858      6.62720772      6.35369022
    O      6.47423889      2.39472651      2.00874569      6.35317829
    O      6.49185390     12.65844774      2.03130809      6.35671753
    O      1.53331727     12.63192571      6.61467831      6.35416835
    O      6.80713342      9.96985610      6.66938250      6.36212799
    O      1.21156069      9.92999360      1.99015179      6.36013406
    O      1.21386023      5.09279446      1.98586420      6.36351059
    O      6.77362118      4.98434799      6.74093201      6.38541039
    O      1.50003606      5.14562203      6.98308777      6.36393888
    O      6.54511807      5.16937960      1.64880955      6.36974606
    O      6.54832076      9.84846293      1.65207405      6.36375257
    O      1.49944364      9.88516555      6.98345450      6.36068093
    O      6.79565736     12.66064478      6.94947116      6.36963356
    O      1.25559194     12.71173897      1.69688050      6.36481298
    O      1.26911177      2.33376677      1.68328829      6.35945916
    O      6.80945277      2.46236015      6.99503114      6.39289430
    O      2.70935926      3.75177921     -0.06583346      6.38560073
    O      8.03793573      3.77069410     -0.14522139      6.41864555
    O      7.98724936     11.26189554     -0.09935290      6.40042997
    O      2.71459086     11.27687160     -0.07118687      6.38902617
    O      3.90428858      5.78194411      2.04957521      6.38002018
    O      4.14565149      5.78562171      6.56095492      6.39644439
    O      4.13676728      9.24716642      6.57149078      6.38903172
    O      3.90218619      9.24797115      2.04800504      6.38028202
    O      9.28468400     13.34333237      2.21054411      6.39263446
    O     -1.24894694     13.34396045      6.41190969      6.40110944
    O     -1.25807001      1.69765458      6.43902085      6.40473125
    O      9.28588995      1.69793405      2.18038010      6.39440863
    O      2.26945668      5.23571805      4.40076961      6.37039324
    O      5.76675644      5.24365614      4.23797353      6.37434284
    O      5.76843797      9.79244036      4.22947053      6.36689136
    O      2.26956291      9.79363172      4.40003090      6.36761468
    O      7.52067774     12.86072561      4.42459253      6.36153891
    O      0.51490002     12.85898614      4.20579267      6.36337432
    O      0.52529831      2.20969675      4.20278340      6.36643044
    O      7.51132119      2.20533744      4.43361726      6.36976584
    O      1.65725063      7.51286593      2.70017694      6.36335063
    O      6.36987695      7.50436528      5.92320910      6.37155828