********************************************************************************
*                       GENERAL UTILITY LATTICE PROGRAM                        *
*                                 Julian Gale                                  *
*                       Curtin Institute for Computation                       *
*                    School of Molecular and Life Sciences                     *
*                    Curtin University, Western Australia                      *
********************************************************************************
* Version = 6.1.2 * Last modified =   3rd November 2022                        *
********************************************************************************
*  optimise     - perform optimisation run                                     *
*  conp         - constant pressure calculation                                *
*  property     - calculate properties for final geometry                      *
********************************************************************************

  Job Started  at 11:47.10 31st October    2025                               

  Number of CPUs =     1


  Total number of configurations input =      1

********************************************************************************
*  Input for Configuration =   1 : c00047.vasp                                 *
********************************************************************************

  Formula = Ge4Si20O48                                                  

  Number of irreducible atoms/shells =     120


  Total number atoms/shells =     120

  Dimensionality = 3               :  Bulk   



  Cartesian lattice vectors (Angstroms) :

       17.182800    0.000000    0.000000
        0.000000    7.513760    0.000000
        0.000000    0.000000   10.447700

  Cell parameters (Angstroms/Degrees):

  a =      17.1828    alpha =  90.0000
  b =       7.5138    beta  =  90.0000
  c =      10.4477    gamma =  90.0000

  Initial cell volume =        1348.875752 Angs**3

  Temperature of configuration =   0.00     K 

  Pressure of configuration =         0.000 GPa 

  Fractional coordinates of asymmetric unit :

--------------------------------------------------------------------------------
   No.  Atomic       x           y          z         Charge      Occupancy
        Label      (Frac)      (Frac)     (Frac)        (e)         (Frac)  
--------------------------------------------------------------------------------
      1 Ge    c    0.052090    0.000000    0.372270     4.00000    1.000000    
      2 Ge    c    0.447910 *  0.000000 *  0.372270 *   4.00000    1.000000    
      3 Ge    c    0.160190 *  0.293910 *  0.273440 *   4.00000    1.000000    
      4 Ge    c    0.660660 *  0.705910 *  0.017440 *   4.00000    1.000000    
      5 Si    c    0.947910 *  0.000000 *  0.627730 *   4.00000    1.000000    
      6 Si    c    0.552090 *  0.000000 *  0.627730 *   4.00000    1.000000    
      7 Si    c    0.556730 *  0.000000 *  0.122130 *   4.00000    1.000000    
      8 Si    c    0.943270 *  0.000000 *  0.122130 *   4.00000    1.000000    
      9 Si    c    0.443270 *  0.000000 *  0.877870 *   4.00000    1.000000    
     10 Si    c    0.056730 *  0.000000 *  0.877870 *   4.00000    1.000000    
     11 Si    c    0.339810 *  0.706090 *  0.273440 *   4.00000    1.000000    
     12 Si    c    0.839810 *  0.293910 *  0.726560 *   4.00000    1.000000    
     13 Si    c    0.660190 *  0.706090 *  0.726560 *   4.00000    1.000000    
     14 Si    c    0.839810 *  0.706090 *  0.726560 *   4.00000    1.000000    
     15 Si    c    0.660190 *  0.293910 *  0.726560 *   4.00000    1.000000    
     16 Si    c    0.160190 *  0.706090 *  0.273440 *   4.00000    1.000000    
     17 Si    c    0.339810 *  0.293910 *  0.273440 *   4.00000    1.000000    
     18 Si    c    0.660660 *  0.294090 *  0.017440 *   4.00000    1.000000    
     19 Si    c    0.839340 *  0.705910 *  0.017440 *   4.00000    1.000000    
     20 Si    c    0.339340 *  0.294090 *  0.982560 *   4.00000    1.000000    
     21 Si    c    0.160660 *  0.705910 *  0.982560 *   4.00000    1.000000    
     22 Si    c    0.339340 *  0.705910 *  0.982560 *   4.00000    1.000000    
     23 Si    c    0.160660 *  0.294090 *  0.982560 *   4.00000    1.000000    
     24 Si    c    0.839340 *  0.294090 *  0.017440 *   4.00000    1.000000    
     25 O1    c    0.106570 *  0.174340 *  0.366200 *   1.73396    1.000000    
     26 O3    c    0.393430 *  0.825660 *  0.366200 *   1.33043    1.000000    
     27 O2    c    0.893430 *  0.174340 *  0.633800 *   0.87073    1.000000    
     28 O2    c    0.606570 *  0.825660 *  0.633800 *   0.87073    1.000000    
     29 O2    c    0.893430 *  0.825660 *  0.633800 *   0.87073    1.000000    
     30 O2    c    0.606570 *  0.174340 *  0.633800 *   0.87073    1.000000    
     31 O3    c    0.106570 *  0.825660 *  0.366200 *   1.33043    1.000000    
     32 O3    c    0.393430 *  0.174340 *  0.366200 *   1.33043    1.000000    
     33 O3    c    0.000000 *  0.000000 *  0.500000 *   1.33043    1.000000    
     34 O3    c    0.500000 *  0.000000 *  0.500000 *   1.33043    1.000000    
     35 O3    c    0.994520 *  0.000000 *  0.250840 *   1.33043    1.000000    
     36 O3    c    0.505480 *  0.000000 *  0.250840 *   1.33043    1.000000    
     37 O2    c    0.005480 *  0.000000 *  0.749160 *   0.87073    1.000000    
     38 O2    c    0.494520 *  0.000000 *  0.749160 *   0.87073    1.000000    
     39 O2    c    0.610230 *  0.175520 *  0.115390 *   0.87073    1.000000    
     40 O2    c    0.889770 *  0.824480 *  0.115390 *   0.87073    1.000000    
     41 O2    c    0.389770 *  0.175520 *  0.884610 *   0.87073    1.000000    
     42 O2    c    0.110230 *  0.824480 *  0.884610 *   0.87073    1.000000    
     43 O2    c    0.389770 *  0.824480 *  0.884610 *   0.87073    1.000000    
     44 O2    c    0.110230 *  0.175520 *  0.884610 *   0.87073    1.000000    
     45 O3    c    0.610230 *  0.824480 *  0.115390 *   1.33043    1.000000    
     46 O2    c    0.889770 *  0.175520 *  0.115390 *   0.87073    1.000000    
     47 O2    c    0.500000 *  0.000000 *  0.000000 *   0.87073    1.000000    
     48 O2    c    0.000000 *  0.000000 *  0.000000 *   0.87073    1.000000    
     49 O3    c    0.151750 *  0.500000 *  0.313330 *   1.33043    1.000000    
     50 O2    c    0.348250 *  0.500000 *  0.313330 *   0.87073    1.000000    
     51 O2    c    0.848250 *  0.500000 *  0.686670 *   0.87073    1.000000    
     52 O2    c    0.651750 *  0.500000 *  0.686670 *   0.87073    1.000000    
     53 O3    c    0.250000 *  0.234950 *  0.285720 *   1.33043    1.000000    
     54 O2    c    0.250000 *  0.765050 *  0.285720 *   0.87073    1.000000    
     55 O2    c    0.750000 *  0.234950 *  0.714280 *   0.87073    1.000000    
     56 O2    c    0.750000 *  0.765050 *  0.714280 *   0.87073    1.000000    
     57 O3    c    0.131410 *  0.268650 *  0.127790 *   1.33043    1.000000    
     58 O2    c    0.368590 *  0.731350 *  0.127790 *   0.87073    1.000000    
     59 O2    c    0.868590 *  0.268650 *  0.872210 *   0.87073    1.000000    
     60 O3    c    0.631410 *  0.731350 *  0.872210 *   1.33043    1.000000    
     61 O2    c    0.868590 *  0.731350 *  0.872210 *   0.87073    1.000000    
     62 O2    c    0.631410 *  0.268650 *  0.872210 *   0.87073    1.000000    
     63 O2    c    0.131410 *  0.731350 *  0.127790 *   0.87073    1.000000    
     64 O2    c    0.368590 *  0.268650 *  0.127790 *   0.87073    1.000000    
     65 O3    c    0.653920 *  0.500000 *  0.058200 *   1.33043    1.000000    
     66 O2    c    0.846080 *  0.500000 *  0.058200 *   0.87073    1.000000    
     67 O2    c    0.346080 *  0.500000 *  0.941800 *   0.87073    1.000000    
     68 O2    c    0.153920 *  0.500000 *  0.941800 *   0.87073    1.000000    
     69 O2    c    0.750000 *  0.231060 *  0.027050 *   0.87073    1.000000    
     70 O3    c    0.750000 *  0.768940 *  0.027050 *   1.33043    1.000000    
     71 O2    c    0.250000 *  0.231060 *  0.972950 *   0.87073    1.000000    
     72 O2    c    0.250000 *  0.768940 *  0.972950 *   0.87073    1.000000    
     73 O1    s    0.106570 *  0.174340 *  0.366200 *  -3.73396    1.000000    
     74 O3    s    0.393430 *  0.825660 *  0.366200 *  -3.33043    1.000000    
     75 O2    s    0.893430 *  0.174340 *  0.633800 *  -2.87073    1.000000    
     76 O2    s    0.606570 *  0.825660 *  0.633800 *  -2.87073    1.000000    
     77 O2    s    0.893430 *  0.825660 *  0.633800 *  -2.87073    1.000000    
     78 O2    s    0.606570 *  0.174340 *  0.633800 *  -2.87073    1.000000    
     79 O3    s    0.106570 *  0.825660 *  0.366200 *  -3.33043    1.000000    
     80 O3    s    0.393430 *  0.174340 *  0.366200 *  -3.33043    1.000000    
     81 O3    s    0.000000 *  0.000000 *  0.500000 *  -3.33043    1.000000    
     82 O3    s    0.500000 *  0.000000 *  0.500000 *  -3.33043    1.000000    
     83 O3    s    0.994520 *  0.000000 *  0.250840 *  -3.33043    1.000000    
     84 O3    s    0.505480 *  0.000000 *  0.250840 *  -3.33043    1.000000    
     85 O2    s    0.005480 *  0.000000 *  0.749160 *  -2.87073    1.000000    
     86 O2    s    0.494520 *  0.000000 *  0.749160 *  -2.87073    1.000000    
     87 O2    s    0.610230 *  0.175520 *  0.115390 *  -2.87073    1.000000    
     88 O2    s    0.889770 *  0.824480 *  0.115390 *  -2.87073    1.000000    
     89 O2    s    0.389770 *  0.175520 *  0.884610 *  -2.87073    1.000000    
     90 O2    s    0.110230 *  0.824480 *  0.884610 *  -2.87073    1.000000    
     91 O2    s    0.389770 *  0.824480 *  0.884610 *  -2.87073    1.000000    
     92 O2    s    0.110230 *  0.175520 *  0.884610 *  -2.87073    1.000000    
     93 O3    s    0.610230 *  0.824480 *  0.115390 *  -3.33043    1.000000    
     94 O2    s    0.889770 *  0.175520 *  0.115390 *  -2.87073    1.000000    
     95 O2    s    0.500000 *  0.000000 *  0.000000 *  -2.87073    1.000000    
     96 O2    s    0.000000 *  0.000000 *  0.000000 *  -2.87073    1.000000    
     97 O3    s    0.151750 *  0.500000 *  0.313330 *  -3.33043    1.000000    
     98 O2    s    0.348250 *  0.500000 *  0.313330 *  -2.87073    1.000000    
     99 O2    s    0.848250 *  0.500000 *  0.686670 *  -2.87073    1.000000    
    100 O2    s    0.651750 *  0.500000 *  0.686670 *  -2.87073    1.000000    
    101 O3    s    0.250000 *  0.234950 *  0.285720 *  -3.33043    1.000000    
    102 O2    s    0.250000 *  0.765050 *  0.285720 *  -2.87073    1.000000    
    103 O2    s    0.750000 *  0.234950 *  0.714280 *  -2.87073    1.000000    
    104 O2    s    0.750000 *  0.765050 *  0.714280 *  -2.87073    1.000000    
    105 O3    s    0.131410 *  0.268650 *  0.127790 *  -3.33043    1.000000    
    106 O2    s    0.368590 *  0.731350 *  0.127790 *  -2.87073    1.000000    
    107 O2    s    0.868590 *  0.268650 *  0.872210 *  -2.87073    1.000000    
    108 O3    s    0.631410 *  0.731350 *  0.872210 *  -3.33043    1.000000    
    109 O2    s    0.868590 *  0.731350 *  0.872210 *  -2.87073    1.000000    
    110 O2    s    0.631410 *  0.268650 *  0.872210 *  -2.87073    1.000000    
    111 O2    s    0.131410 *  0.731350 *  0.127790 *  -2.87073    1.000000    
    112 O2    s    0.368590 *  0.268650 *  0.127790 *  -2.87073    1.000000    
    113 O3    s    0.653920 *  0.500000 *  0.058200 *  -3.33043    1.000000    
    114 O2    s    0.846080 *  0.500000 *  0.058200 *  -2.87073    1.000000    
    115 O2    s    0.346080 *  0.500000 *  0.941800 *  -2.87073    1.000000    
    116 O2    s    0.153920 *  0.500000 *  0.941800 *  -2.87073    1.000000    
    117 O2    s    0.750000 *  0.231060 *  0.027050 *  -2.87073    1.000000    
    118 O3    s    0.750000 *  0.768940 *  0.027050 *  -3.33043    1.000000    
    119 O2    s    0.250000 *  0.231060 *  0.972950 *  -2.87073    1.000000    
    120 O2    s    0.250000 *  0.768940 *  0.972950 *  -2.87073    1.000000    
--------------------------------------------------------------------------------



********************************************************************************
*  General input information                                                   *
********************************************************************************

  Species output for all configurations : 

--------------------------------------------------------------------------------
  Species    Type    Atomic    Atomic    Charge       Radii (Angs)     Library
                     Number     Mass       (e)     Cova   Ionic  VDW   Symbol
--------------------------------------------------------------------------------
    Ge       Core       32      72.61   4.000000   1.170  0.000  1.750 Ge       
    Si       Core       14      28.09   4.000000   1.200  0.000  2.100 Si       
    O1       Core        8      16.00   1.733957   0.730  0.000  1.360 O1       
    O2       Core        8      16.00   0.870733   0.730  0.000  1.360 O2       
    O3       Core        8      16.00   1.330431   0.730  0.000  1.360 O3       
    O1       Shell       8       0.00  -3.733957   0.730  0.000  0.000 O1       
    O2       Shell       8       0.00  -2.870733   0.730  0.000  0.000 O2       
    O3       Shell       8       0.00  -3.330431   0.730  0.000  0.000 O3       
--------------------------------------------------------------------------------


  Lattice summation method               =    Ewald          (3-D)
                                         =    Parry          (2-D)
                                         =    Saunders et al (1-D)
  Accuracy factor for lattice sums       =   12.000


  Analytic derivatives to be used

  Time limit = Infinity

  Maximum range for interatomic potentials =    100000.000000 Angstroms

  General interatomic potentials :

--------------------------------------------------------------------------------
Atom  Types   Potential      Parameter       Value         Units   Cutoffs(Ang)
  1     2                                                            Min /  Max 
--------------------------------------------------------------------------------
Si   c O1   s Buckingham    Buckingham A     1315.2478    eV        0.000 16.000
                            Buckingham rho  0.31775900    Ang       
                            Buckingham C     10.141118    eV*Ang^6  
--------------------------------------------------------------------------------
Si   c O2   s Buckingham    Buckingham A     1315.2478    eV        0.000 16.000
                            Buckingham rho  0.31775900    Ang       
                            Buckingham C     10.141118    eV*Ang^6  
--------------------------------------------------------------------------------
Si   c O3   s Buckingham    Buckingham A     1315.2478    eV        0.000 16.000
                            Buckingham rho  0.31775900    Ang       
                            Buckingham C     10.141118    eV*Ang^6  
--------------------------------------------------------------------------------
Ge   c O1   s Buckingham    Buckingham A     1497.3996    eV        0.000 16.000
                            Buckingham rho  0.32564600    Ang       
                            Buckingham C     16.808599    eV*Ang^6  
--------------------------------------------------------------------------------
Ge   c O2   s Buckingham    Buckingham A     1497.3996    eV        0.000 16.000
                            Buckingham rho  0.32564600    Ang       
                            Buckingham C     16.808599    eV*Ang^6  
--------------------------------------------------------------------------------
Ge   c O3   s Buckingham    Buckingham A     1497.3996    eV        0.000 16.000
                            Buckingham rho  0.32564600    Ang       
                            Buckingham C     16.808599    eV*Ang^6  
--------------------------------------------------------------------------------
O1   s O1   s Buckingham    Buckingham A     22764.000    eV        0.000 16.000
                            Buckingham rho  0.14900000    Ang       
                            Buckingham C     10.937044    eV*Ang^6  
--------------------------------------------------------------------------------
O1   s O2   s Buckingham    Buckingham A     22764.000    eV        0.000 16.000
                            Buckingham rho  0.14900000    Ang       
                            Buckingham C     10.937044    eV*Ang^6  
--------------------------------------------------------------------------------
O1   s O3   s Buckingham    Buckingham A     22764.000    eV        0.000 16.000
                            Buckingham rho  0.14900000    Ang       
                            Buckingham C     10.937044    eV*Ang^6  
--------------------------------------------------------------------------------
O2   s O2   s Buckingham    Buckingham A     22764.000    eV        0.000 16.000
                            Buckingham rho  0.14900000    Ang       
                            Buckingham C     10.937044    eV*Ang^6  
--------------------------------------------------------------------------------
O2   s O3   s Buckingham    Buckingham A     22764.000    eV        0.000 16.000
                            Buckingham rho  0.14900000    Ang       
                            Buckingham C     10.937044    eV*Ang^6  
--------------------------------------------------------------------------------
O3   s O3   s Buckingham    Buckingham A     22764.000    eV        0.000 16.000
                            Buckingham rho  0.14900000    Ang       
                            Buckingham C     10.937044    eV*Ang^6  
--------------------------------------------------------------------------------
O1   c O1   s Spring (c-s)  Spring k 2       180.31577    eV*Ang^-2 0.000  0.800
                            Spring k 4       0.0000000    eV*Ang^-4 
--------------------------------------------------------------------------------
O2   c O2   s Spring (c-s)  Spring k 2       75.969800    eV*Ang^-2 0.000  0.800
                            Spring k 4       0.0000000    eV*Ang^-4 
--------------------------------------------------------------------------------
O3   c O3   s Spring (c-s)  Spring k 2       128.14270    eV*Ang^-2 0.000  0.800
                            Spring k 4       0.0000000    eV*Ang^-4 
--------------------------------------------------------------------------------

  General Three-body potentials :

--------------------------------------------------------------------------------
  Atoms       Potential      Parameter       Value         Units   Cutoffs(Ang)
  1 / 2 / 3                                                          Min /  Max 
--------------------------------------------------------------------------------
Si    core    Harmonic      Three-body cnst  1.2614000    eV*rad^-2 0.000  1.900
O1    shel                  Three-body angl  109.47000    degrees   0.000  1.900
O1    shel                  Three-body k4    0.0000000    eV*rad^-4 0.000  3.500
                            Three-body k3    0.0000000    eV*rad^-3 
--------------------------------------------------------------------------------
Si    core    Harmonic      Three-body cnst  1.2614000    eV*rad^-2 0.000  1.900
O1    shel                  Three-body angl  109.47000    degrees   0.000  1.900
õ(1   shel                  Three-body k4    0.0000000    eV*rad^-4 0.000  3.500
                            Three-body k3    0.0000000    eV*rad^-3 
--------------------------------------------------------------------------------
Si    core    Harmonic      Three-body cnst  1.2614000    eV*rad^-2 0.000  1.900
õ(1   shel                  Three-body angl  109.47000    degrees   0.000  1.900
õ(1   shel                  Three-body k4    0.0000000    eV*rad^-4 0.000  3.500
                            Three-body k3    0.0000000    eV*rad^-3 
--------------------------------------------------------------------------------
Si    core    Harmonic      Three-body cnst  1.2614000    eV*rad^-2 0.000  1.900
O1    shel                  Three-body angl  109.47000    degrees   0.000  1.900
O2    shel                  Three-body k4    0.0000000    eV*rad^-4 0.000  3.500
                            Three-body k3    0.0000000    eV*rad^-3 
--------------------------------------------------------------------------------
Si    core    Harmonic      Three-body cnst  1.2614000    eV*rad^-2 0.000  1.900
O1    shel                  Three-body angl  109.47000    degrees   0.000  1.900
õ(2   shel                  Three-body k4    0.0000000    eV*rad^-4 0.000  3.500
                            Three-body k3    0.0000000    eV*rad^-3 
--------------------------------------------------------------------------------
Si    core    Harmonic      Three-body cnst  1.2614000    eV*rad^-2 0.000  1.900
O2    shel                  Three-body angl  109.47000    degrees   0.000  1.900
õ(1   shel                  Three-body k4    0.0000000    eV*rad^-4 0.000  3.500
                            Three-body k3    0.0000000    eV*rad^-3 
--------------------------------------------------------------------------------
Si    core    Harmonic      Three-body cnst  1.2614000    eV*rad^-2 0.000  1.900
õ(1   shel                  Three-body angl  109.47000    degrees   0.000  1.900
õ(2   shel                  Three-body k4    0.0000000    eV*rad^-4 0.000  3.500
                            Three-body k3    0.0000000    eV*rad^-3 
--------------------------------------------------------------------------------
Si    core    Harmonic      Three-body cnst  1.2614000    eV*rad^-2 0.000  1.900
O2    shel                  Three-body angl  109.47000    degrees   0.000  1.900
O2    shel                  Three-body k4    0.0000000    eV*rad^-4 0.000  3.500
                            Three-body k3    0.0000000    eV*rad^-3 
--------------------------------------------------------------------------------
Si    core    Harmonic      Three-body cnst  1.2614000    eV*rad^-2 0.000  1.900
O2    shel                  Three-body angl  109.47000    degrees   0.000  1.900
õ(2   shel                  Three-body k4    0.0000000    eV*rad^-4 0.000  3.500
                            Three-body k3    0.0000000    eV*rad^-3 
--------------------------------------------------------------------------------
Si    core    Harmonic      Three-body cnst  1.2614000    eV*rad^-2 0.000  1.900
õ(2   shel                  Three-body angl  109.47000    degrees   0.000  1.900
õ(2   shel                  Three-body k4    0.0000000    eV*rad^-4 0.000  3.500
                            Three-body k3    0.0000000    eV*rad^-3 
--------------------------------------------------------------------------------

********************************************************************************
*  Output for configuration   1 : c00047.vasp                                  *
********************************************************************************


  Components of energy : 

--------------------------------------------------------------------------------
  Interatomic potentials     =         768.32008182 eV    
  Three-body potentials      =           0.01185916 eV    
  Monopole - monopole (real) =       -2676.00317478 eV    
  Monopole - monopole (recip)=       -1115.35404472 eV    
  Monopole - monopole (total)=       -3791.35721950 eV    
--------------------------------------------------------------------------------
  Total lattice energy       =       -3023.02527852 eV    
--------------------------------------------------------------------------------
  Total lattice energy       =         -291675.7282 kJ/(mole unit cells)
--------------------------------------------------------------------------------


  Number of variables =      363

  Maximum number of calculations  =          1000
  Maximum Hessian update interval =            10
  Maximum step size               =   0.100000000
  Maximum parameter tolerance     =   0.000010000
  Maximum function  tolerance     =   0.000010000
  Maximum gradient  tolerance     =   0.001000000
  Maximum gradient  component     =   0.010000000

  Symmetry not applied to optimisation

  Cell parameters to be optimised using strains

  Newton-Raphson optimiser to be used

  BFGS hessian update to be used

  Lower half triangular hessian to be used

  Minimiser to switch to RFO
  When gradient norm is less than     0.050000

  Dumpfile to be written after every cycle

  Start of bulk optimisation :

  Cycle:      0 Energy:     -3023.025279  Gnorm:      4.458793  CPU:    0.126
  ** Hessian calculated **
  Cycle:      1 Energy:     -3054.252292  Gnorm:      1.010615  CPU:    0.276
  ** Hessian calculated **
  Cycle:      2 Energy:     -3059.016384  Gnorm:      0.504262  CPU:    0.576
  ** Hessian calculated **
  Cycle:      3 Energy:     -3060.238404  Gnorm:      0.301515  CPU:    0.830
  ** Hessian calculated **
  Cycle:      4 Energy:     -3060.462728  Gnorm:      0.169811  CPU:    1.068
  Cycle:      5 Energy:     -3060.539556  Gnorm:      0.116366  CPU:    1.186
  Cycle:      6 Energy:     -3060.615976  Gnorm:      0.094691  CPU:    1.328
  Cycle:      7 Energy:     -3060.692289  Gnorm:      0.074615  CPU:    1.470
  Cycle:      8 Energy:     -3060.738995  Gnorm:      0.060520  CPU:    1.595
  Cycle:      9 Energy:     -3060.766750  Gnorm:      0.044191  CPU:    1.716
  ** Hessian has required structure
  Cycle:     10 Energy:     -3060.772859  Gnorm:      0.053443  CPU:    1.886
  ** Hessian has required structure
  Cycle:     11 Energy:     -3060.779296  Gnorm:      0.049941  CPU:    2.058
  ** Hessian has required structure
  Cycle:     12 Energy:     -3060.785359  Gnorm:      0.055691  CPU:    2.238
  ** Hessian has required structure
  Cycle:     13 Energy:     -3060.792137  Gnorm:      0.059918  CPU:    2.420
  ** Hessian has wrong structure
  ** Imaginary eigenvectors =   4
  ** Hessian has wrong structure
  ** Imaginary eigenvectors =   4
  Cycle:     14 Energy:     -3060.810827  Gnorm:      0.062843  CPU:    3.183
  ** Hessian has wrong structure
  ** Imaginary eigenvectors =   2
  ** Hessian has wrong structure
  ** Imaginary eigenvectors =   2
  Cycle:     15 Energy:     -3060.833748  Gnorm:      0.066324  CPU:    3.868
  ** Hessian has wrong structure
  ** Imaginary eigenvectors =   1
  ** Hessian has required structure
  Cycle:     16 Energy:     -3060.994591  Gnorm:      0.059442  CPU:    4.550
  ** Hessian has required structure
  Cycle:     17 Energy:     -3061.124674  Gnorm:      0.036782  CPU:    4.752
  ** Hessian has required structure
  Cycle:     18 Energy:     -3061.187669  Gnorm:      0.057016  CPU:    4.959
  ** Hessian has required structure
  Cycle:     19 Energy:     -3061.216946  Gnorm:      0.044839  CPU:    5.164
  ** Hessian has required structure
  Cycle:     20 Energy:     -3061.242959  Gnorm:      0.026537  CPU:    5.369
  ** Hessian has required structure
  Cycle:     21 Energy:     -3061.259524  Gnorm:      0.023623  CPU:    5.572
  ** Hessian has required structure
  Cycle:     22 Energy:     -3061.273967  Gnorm:      0.026424  CPU:    5.774
  ** Hessian has required structure
  Cycle:     23 Energy:     -3061.286495  Gnorm:      0.021804  CPU:    5.977
  ** Hessian has required structure
  Cycle:     24 Energy:     -3061.294127  Gnorm:      0.018159  CPU:    6.182
  ** Hessian has required structure
  Cycle:     25 Energy:     -3061.299293  Gnorm:      0.023170  CPU:    6.381
  ** Hessian has required structure
  Cycle:     26 Energy:     -3061.312714  Gnorm:      0.015375  CPU:    6.692
  ** Hessian has required structure
  Cycle:     27 Energy:     -3061.319266  Gnorm:      0.007861  CPU:    6.910
  ** Hessian has required structure
  Cycle:     28 Energy:     -3061.321029  Gnorm:      0.007570  CPU:    7.110
  ** Hessian has required structure
  Cycle:     29 Energy:     -3061.322432  Gnorm:      0.002432  CPU:    7.290
  ** Hessian has required structure
  Cycle:     30 Energy:     -3061.322925  Gnorm:      0.002614  CPU:    7.490
  ** Hessian has required structure
  Cycle:     31 Energy:     -3061.323242  Gnorm:      0.002691  CPU:    7.688
  ** Hessian has required structure
  Cycle:     32 Energy:     -3061.323476  Gnorm:      0.002058  CPU:    7.910
  ** Hessian has required structure
  Cycle:     33 Energy:     -3061.323620  Gnorm:      0.001085  CPU:    8.136
  ** Hessian has required structure
  Cycle:     34 Energy:     -3061.323678  Gnorm:      0.000756  CPU:    8.340
  ** Hessian has required structure
  Cycle:     35 Energy:     -3061.323700  Gnorm:      0.000475  CPU:    8.540
  ** Hessian has required structure
  Cycle:     36 Energy:     -3061.323714  Gnorm:      0.000237  CPU:    8.866
  ** Hessian has required structure
  Cycle:     37 Energy:     -3061.323716  Gnorm:      0.000166  CPU:    9.035
  ** Hessian has required structure
  Cycle:     38 Energy:     -3061.323718  Gnorm:      0.000116  CPU:    9.210
  ** Hessian has required structure
  Cycle:     39 Energy:     -3061.323718  Gnorm:      0.000081  CPU:    9.380
  ** Hessian has required structure


  **** Optimisation achieved ****


  Final energy =   -3061.32371864 eV      
  Final Gnorm  =       0.00005685

  Components of energy : 

--------------------------------------------------------------------------------
  Interatomic potentials     =         815.72886730 eV    
  Three-body potentials      =           0.19546603 eV    
  Monopole - monopole (real) =       -2167.23092087 eV    
  Monopole - monopole (recip)=       -1710.01713110 eV    
  Monopole - monopole (total)=       -3877.24805197 eV    
--------------------------------------------------------------------------------
  Total lattice energy       =       -3061.32371864 eV    
--------------------------------------------------------------------------------
  Total lattice energy       =         -295370.9422 kJ/(mole unit cells)
--------------------------------------------------------------------------------

  Final fractional coordinates of atoms :

--------------------------------------------------------------------------------
   No.  Atomic        x           y          z          Radius
        Label       (Frac)      (Frac)     (Frac)       (Angs) 
--------------------------------------------------------------------------------
     1  Ge    c     0.052090    0.000000    0.372270    0.000000
     2  Ge    c     0.453474    0.027230    0.371077    0.000000
     3  Ge    c     0.170935    0.289168    0.287515    0.000000
     4  Ge    c     0.672161    0.707955    0.049640    0.000000
     5  Si    c     0.949959    0.004765    0.627692    0.000000
     6  Si    c     0.556633    0.007184    0.631841    0.000000
     7  Si    c     0.559643    0.000968    0.115599    0.000000
     8  Si    c     0.957030    0.008397    0.102394    0.000000
     9  Si    c     0.449243    0.013171    0.874123    0.000000
    10  Si    c     0.066679    0.999942    0.859827    0.000000
    11  Si    c     0.336408    0.736283    0.286562    0.000000
    12  Si    c     0.841920    0.303919    0.726044    0.000000
    13  Si    c     0.666955    0.713656    0.734196    0.000000
    14  Si    c     0.843256    0.703491    0.732210    0.000000
    15  Si    c     0.664402    0.308679    0.729926    0.000000
    16  Si    c     0.155846    0.697222    0.279049    0.000000
    17  Si    c     0.352287    0.336393    0.294882    0.000000
    18  Si    c     0.665226    0.305233    0.038820    0.000000
    19  Si    c     0.852104    0.695267    0.044970    0.000000
    20  Si    c     0.352728    0.323291    0.984584    0.000000
    21  Si    c     0.160678    0.693503    0.973516    0.000000
    22  Si    c     0.340720    0.722943    0.979660    0.000000
    23  Si    c     0.173785    0.290133    0.973981    0.000000
    24  Si    c     0.844012    0.300240    0.035772    0.000000
    25  O1    c     0.119837    0.161743    0.392633    0.000000
    26  O3    c     0.380576    0.871095    0.380127    0.000000
    27  O2    c     0.898055    0.176649    0.646634    0.000000
    28  O2    c     0.609368    0.837436    0.653510    0.000000
    29  O2    c     0.901195    0.830974    0.657641    0.000000
    30  O2    c     0.606554    0.185274    0.646848    0.000000
    31  O3    c     0.100001    0.804008    0.372470    0.000000
    32  O3    c     0.412784    0.231649    0.382970    0.000000
    33  O3    c     0.975208    0.999948    0.477175    0.000000
    34  O3    c     0.526035    0.996729    0.483553    0.000000
    35  O3    c     0.018459    0.041952    0.214354    0.000000
    36  O3    c     0.491422    0.008250    0.216065    0.000000
    37  O2    c     0.030096    0.009096    0.712809    0.000000
    38  O2    c     0.480938    0.011377    0.725020    0.000000
    39  O2    c     0.614069    0.173291    0.123333    0.000000
    40  O2    c     0.915450    0.818860    0.116920    0.000000
    41  O2    c     0.410488    0.201007    0.902668    0.000000
    42  O2    c     0.107769    0.811953    0.878329    0.000000
    43  O2    c     0.386664    0.856913    0.887461    0.000000
    44  O2    c     0.128217    0.158200    0.875338    0.000000
    45  O3    c     0.614642    0.838312    0.143996    0.000000
    46  O2    c     0.892198    0.158399    0.115267    0.000000
    47  O2    c     0.522336    0.980125    0.969000    0.000000
    48  O2    c     0.996226    0.022933    0.959642    0.000000
    49  O3    c     0.136584    0.497945    0.301589    0.000000
    50  O2    c     0.366935    0.542137    0.315991    0.000000
    51  O2    c     0.866406    0.504144    0.697704    0.000000
    52  O2    c     0.642078    0.511292    0.710033    0.000000
    53  O3    c     0.266606    0.282009    0.336118    0.000000
    54  O2    c     0.245060    0.743798    0.315007    0.000000
    55  O2    c     0.752315    0.274881    0.682131    0.000000
    56  O2    c     0.755360    0.739839    0.684160    0.000000
    57  O3    c     0.162162    0.227874    0.122483    0.000000
    58  O2    c     0.351956    0.780234    0.132394    0.000000
    59  O2    c     0.850144    0.261456    0.880196    0.000000
    60  O3    c     0.664138    0.766192    0.886261    0.000000
    61  O2    c     0.848873    0.736400    0.888828    0.000000
    62  O2    c     0.656491    0.260304    0.883358    0.000000
    63  O2    c     0.142147    0.747284    0.124386    0.000000
    64  O2    c     0.362419    0.284711    0.139841    0.000000
    65  O3    c     0.637958    0.498169    0.069511    0.000000
    66  O2    c     0.876755    0.494319    0.068641    0.000000
    67  O2    c     0.372723    0.526766    0.956369    0.000000
    68  O2    c     0.142333    0.487632    0.952267    0.000000
    69  O2    c     0.755220    0.286910    0.081016    0.000000
    70  O3    c     0.767414    0.726481    0.101709    0.000000
    71  O2    c     0.264722    0.283570    0.938753    0.000000
    72  O2    c     0.250302    0.730518    0.940573    0.000000
    73  O1    s     0.118599    0.159300    0.382720    0.000000
    74  O3    s     0.381765    0.869394    0.369599    0.000000
    75  O2    s     0.897348    0.172334    0.653587    0.000000
    76  O2    s     0.610059    0.842122    0.660204    0.000000
    77  O2    s     0.899949    0.835684    0.662941    0.000000
    78  O2    s     0.607728    0.180115    0.654630    0.000000
    79  O3    s     0.101838    0.809171    0.362775    0.000000
    80  O3    s     0.409957    0.225715    0.373135    0.000000
    81  O3    s     0.979242    0.000422    0.483795    0.000000
    82  O3    s     0.522829    0.000550    0.489254    0.000000
    83  O3    s     0.014286    0.034806    0.214627    0.000000
    84  O3    s     0.495880    0.009047    0.218135    0.000000
    85  O2    s     0.025771    0.007649    0.719631    0.000000
    86  O2    s     0.485391    0.011165    0.731321    0.000000
    87  O2    s     0.614038    0.169987    0.113038    0.000000
    88  O2    s     0.912851    0.824907    0.107680    0.000000
    89  O2    s     0.408251    0.194538    0.908677    0.000000
    90  O2    s     0.109203    0.818725    0.886696    0.000000
    91  O2    s     0.388270    0.858843    0.896278    0.000000
    92  O2    s     0.126525    0.155393    0.884338    0.000000
    93  O3    s     0.614076    0.843365    0.133166    0.000000
    94  O2    s     0.893513    0.158753    0.104750    0.000000
    95  O2    s     0.518210    0.985872    0.973824    0.000000
    96  O2    s     0.999779    0.018795    0.964050    0.000000
    97  O3    s     0.141544    0.501645    0.297978    0.000000
    98  O2    s     0.362090    0.540596    0.310525    0.000000
    99  O2    s     0.861377    0.503927    0.704318    0.000000
   100  O2    s     0.647052    0.510876    0.714648    0.000000
   101  O3    s     0.267392    0.288092    0.327910    0.000000
   102  O2    s     0.245546    0.738105    0.308080    0.000000
   103  O2    s     0.752544    0.281498    0.691706    0.000000
   104  O2    s     0.755549    0.733276    0.694317    0.000000
   105  O3    s     0.164014    0.238852    0.120494    0.000000
   106  O2    s     0.349182    0.769740    0.132037    0.000000
   107  O2    s     0.848539    0.270399    0.880147    0.000000
   108  O3    s     0.665106    0.755977    0.884110    0.000000
   109  O2    s     0.848593    0.728425    0.888291    0.000000
   110  O2    s     0.658292    0.270263    0.883200    0.000000
   111  O2    s     0.145435    0.736807    0.124030    0.000000
   112  O2    s     0.360371    0.294036    0.138868    0.000000
   113  O3    s     0.643613    0.495228    0.064693    0.000000
   114  O2    s     0.870765    0.494951    0.062717    0.000000
   115  O2    s     0.367340    0.526021    0.961718    0.000000
   116  O2    s     0.147472    0.489083    0.956710    0.000000
   117  O2    s     0.755323    0.290382    0.071563    0.000000
   118  O3    s     0.768238    0.721861    0.091804    0.000000
   119  O2    s     0.264535    0.288630    0.947413    0.000000
   120  O2    s     0.250440    0.725598    0.948409    0.000000
--------------------------------------------------------------------------------

  Final Cartesian lattice vectors (Angstroms) :

       17.254471   -0.066930   -0.084854
       -0.029268    7.657736   -0.028942
       -0.052809   -0.036989   10.114605


  Final cell parameters and derivatives :

--------------------------------------------------------------------------------
       a           17.254810 Angstrom     dE/de1(xx)     0.001674 eV/strain
       b            7.657847 Angstrom     dE/de2(yy)     0.000848 eV/strain
       c           10.114811 Angstrom     dE/de3(zz)    -0.000358 eV/strain
       alpha       90.424922 Degrees      dE/de4(yz)     0.000215 eV/strain
       beta        90.580087 Degrees      dE/de5(xz)     0.000312 eV/strain
       gamma       90.440158 Degrees      dE/de6(xy)     0.000350 eV/strain
--------------------------------------------------------------------------------

  Primitive cell volume =          1336.371969 Angs**3

  Density of cell =      2.013298 g/cm**3

  Non-primitive cell volume =          1336.371969 Angs**3


  Final internal derivatives :

--------------------------------------------------------------------------------
   No.  Atomic          a             b             c           Radius
        Label          (eV)          (eV)          (eV)        (eV/Angs)
--------------------------------------------------------------------------------
      1 Ge    c       0.000000      0.000000      0.000000      0.000000
      2 Ge    c       0.000592     -0.000108      0.000353      0.000000
      3 Ge    c      -0.002137     -0.001416     -0.000319      0.000000
      4 Ge    c      -0.000013     -0.001919     -0.001224      0.000000
      5 Si    c       0.000310     -0.000134     -0.000474      0.000000
      6 Si    c      -0.000127     -0.000028     -0.000059      0.000000
      7 Si    c      -0.001888      0.000196     -0.000716      0.000000
      8 Si    c      -0.000037      0.000073     -0.000914      0.000000
      9 Si    c      -0.000197     -0.000191     -0.000104      0.000000
     10 Si    c       0.000250      0.000038     -0.000097      0.000000
     11 Si    c       0.002708      0.000456     -0.000888      0.000000
     12 Si    c       0.000943      0.000251      0.000152      0.000000
     13 Si    c      -0.000554      0.000257      0.000668      0.000000
     14 Si    c      -0.000523      0.000007     -0.000156      0.000000
     15 Si    c      -0.000326      0.000856      0.000550      0.000000
     16 Si    c      -0.001428      0.001372      0.000057      0.000000
     17 Si    c       0.002463     -0.000293     -0.000772      0.000000
     18 Si    c       0.002037      0.001251      0.001240      0.000000
     19 Si    c      -0.003375     -0.000461      0.001270      0.000000
     20 Si    c       0.000354      0.000195     -0.000036      0.000000
     21 Si    c       0.000100     -0.000090     -0.000120      0.000000
     22 Si    c       0.000128     -0.000051     -0.000127      0.000000
     23 Si    c       0.000035      0.000136     -0.000770      0.000000
     24 Si    c      -0.000574     -0.000508     -0.000169      0.000000
     25 O1    c       0.000100      0.000164      0.000330      0.000000
     26 O3    c      -0.000471      0.000107      0.000755      0.000000
     27 O2    c      -0.000232     -0.000019      0.000009      0.000000
     28 O2    c       0.000389     -0.000187     -0.000011      0.000000
     29 O2    c       0.000109      0.000010      0.000113      0.000000
     30 O2    c      -0.000476     -0.000306     -0.000067      0.000000
     31 O3    c       0.000530     -0.000200     -0.000184      0.000000
     32 O3    c      -0.000412      0.000237      0.000049      0.000000
     33 O3    c      -0.000833      0.000070      0.001054      0.000000
     34 O3    c      -0.000504     -0.000014      0.000068      0.000000
     35 O3    c       0.002074      0.000408      0.000860      0.000000
     36 O3    c      -0.000421      0.000072      0.000048      0.000000
     37 O2    c       0.000798     -0.000061      0.000272      0.000000
     38 O2    c       0.000160      0.000061      0.000189      0.000000
     39 O2    c       0.002733      0.001304     -0.000222      0.000000
     40 O2    c      -0.001491     -0.001031     -0.000118      0.000000
     41 O2    c       0.000005      0.000081      0.000095      0.000000
     42 O2    c       0.000028     -0.000110      0.000040      0.000000
     43 O2    c       0.000151      0.000061      0.000079      0.000000
     44 O2    c      -0.000083      0.000018      0.000115      0.000000
     45 O3    c       0.001186     -0.001064      0.001551      0.000000
     46 O2    c      -0.001553      0.000541      0.000419      0.000000
     47 O2    c      -0.000027     -0.000188     -0.000507      0.000000
     48 O2    c      -0.000335      0.000098     -0.000136      0.000000
     49 O3    c      -0.004203      0.000118      0.001354      0.000000
     50 O2    c       0.001565     -0.000705      0.000937      0.000000
     51 O2    c      -0.000593     -0.000266      0.000541      0.000000
     52 O2    c       0.000975     -0.002038      0.000752      0.000000
     53 O3    c       0.001960     -0.000895      0.001973      0.000000
     54 O2    c      -0.002197      0.001192      0.000912      0.000000
     55 O2    c      -0.002213      0.000151      0.000247      0.000000
     56 O2    c       0.001887     -0.000204      0.000348      0.000000
     57 O3    c      -0.000286     -0.000702      0.000175      0.000000
     58 O2    c       0.000450      0.000166     -0.000073      0.000000
     59 O2    c       0.000064      0.000263     -0.000159      0.000000
     60 O3    c       0.000964     -0.000470      0.002056      0.000000
     61 O2    c       0.000375     -0.000061      0.000335      0.000000
     62 O2    c      -0.000195      0.000314     -0.001502      0.000000
     63 O2    c      -0.000505      0.000335     -0.000972      0.000000
     64 O2    c      -0.000589     -0.000206      0.000028      0.000000
     65 O3    c       0.004484     -0.000291     -0.003174      0.000000
     66 O2    c      -0.001096      0.002714     -0.001009      0.000000
     67 O2    c       0.000442     -0.000167     -0.000127      0.000000
     68 O2    c      -0.000635      0.000122     -0.000069      0.000000
     69 O2    c      -0.006202      0.000745     -0.001007      0.000000
     70 O3    c       0.008523     -0.001433     -0.001880      0.000000
     71 O2    c       0.000206     -0.000043     -0.000365      0.000000
     72 O2    c      -0.000470      0.000072     -0.000215      0.000000
     73 O1    s      -0.000572     -0.000423      0.000177      0.000000
     74 O3    s       0.001792      0.000539      0.000033      0.000000
     75 O2    s       0.000002      0.000214      0.000279      0.000000
     76 O2    s      -0.000365      0.000034      0.000126      0.000000
     77 O2    s      -0.000982     -0.000155     -0.000154      0.000000
     78 O2    s       0.000680      0.000920      0.000476      0.000000
     79 O3    s      -0.001059      0.000430      0.000440      0.000000
     80 O3    s       0.000807     -0.000167      0.000154      0.000000
     81 O3    s      -0.000103     -0.000147     -0.000421      0.000000
     82 O3    s      -0.000024      0.000080      0.000185      0.000000
     83 O3    s       0.000017      0.000138     -0.000166      0.000000
     84 O3    s      -0.000906      0.000120      0.000131      0.000000
     85 O2    s      -0.000233      0.000158     -0.000021      0.000000
     86 O2    s       0.000168      0.000093     -0.000097      0.000000
     87 O2    s       0.001485      0.001416      0.000045      0.000000
     88 O2    s      -0.001806     -0.001242     -0.000177      0.000000
     89 O2    s       0.000107     -0.000192     -0.000211      0.000000
     90 O2    s      -0.000008      0.000192     -0.000144      0.000000
     91 O2    s       0.000251      0.000176     -0.000263      0.000000
     92 O2    s      -0.000193     -0.000182     -0.000294      0.000000
     93 O3    s       0.000122     -0.000763     -0.000429      0.000000
     94 O2    s      -0.000087      0.000380     -0.000015      0.000000
     95 O2    s      -0.001179      0.000226     -0.000320      0.000000
     96 O2    s       0.000811     -0.000166     -0.000405      0.000000
     97 O3    s      -0.001099     -0.000413      0.000440      0.000000
     98 O2    s       0.001781     -0.000404      0.000690      0.000000
     99 O2    s      -0.001130      0.000119      0.000750      0.000000
    100 O2    s       0.001447     -0.000395      0.000680      0.000000
    101 O3    s      -0.000247     -0.000466      0.000452      0.000000
    102 O2    s       0.000113      0.001027      0.001141      0.000000
    103 O2    s      -0.000583      0.000939      0.001468      0.000000
    104 O2    s       0.000362     -0.000460      0.000484      0.000000
    105 O3    s      -0.001337     -0.000801     -0.000485      0.000000
    106 O2    s       0.002139      0.000763     -0.000724      0.000000
    107 O2    s      -0.001526      0.000502     -0.000398      0.000000
    108 O3    s       0.000353     -0.000586     -0.000287      0.000000
    109 O2    s      -0.001994     -0.000840      0.001404      0.000000
    110 O2    s       0.003900      0.001072      0.000804      0.000000
    111 O2    s      -0.001756      0.000762     -0.000584      0.000000
    112 O2    s       0.001435     -0.000642     -0.000258      0.000000
    113 O3    s       0.000958     -0.001248     -0.000103      0.000000
    114 O2    s      -0.001249      0.000388     -0.000792      0.000000
    115 O2    s       0.001243     -0.000028     -0.000495      0.000000
    116 O2    s      -0.001297      0.000019     -0.000485      0.000000
    117 O2    s      -0.001470      0.000968     -0.001619      0.000000
    118 O3    s      -0.002341     -0.000387     -0.001161      0.000000
    119 O2    s       0.000448     -0.000419     -0.000708      0.000000
    120 O2    s      -0.000268      0.000465     -0.000766      0.000000
--------------------------------------------------------------------------------
  Maximum abs         0.008523      0.002714      0.003174      0.000000
--------------------------------------------------------------------------------


  Born effective charge tensors : 

-------------------------------------------------------------------------------
  Atom             x           y             z
-------------------------------------------------------------------------------
    1 Ge    x       4.1885     -0.0985     -0.0002
            y       0.1464      3.8820      0.0542
            z      -0.9528     -0.0368      4.4886
-------------------------------------------------------------------------------
    2 Ge    x       4.1329     -0.1904      0.0211
            y       0.1448      3.8876     -0.0128
            z       0.9178     -0.1352      4.4549
-------------------------------------------------------------------------------
    3 Ge    x       3.9532      0.3976     -0.2002
            y       0.2272      4.1516     -0.3557
            z      -0.1939     -0.1284      3.5717
-------------------------------------------------------------------------------
    4 Ge    x       4.0102     -0.3717     -0.1401
            y      -0.2244      4.1397      0.2301
            z      -0.2005      0.0284      3.2950
-------------------------------------------------------------------------------
    5 Si    x       3.5251     -0.0304     -0.5051
            y      -0.0511      3.3216     -0.0199
            z      -0.3002      0.0226      4.2067
-------------------------------------------------------------------------------
    6 Si    x       3.5552      0.0277      0.4778
            y      -0.0203      3.3123     -0.0195
            z       0.3525      0.0780      4.2352
-------------------------------------------------------------------------------
    7 Si    x       4.0224     -0.1668     -0.1020
            y      -0.2122      3.4758     -0.1042
            z      -0.8049      0.0148      3.1855
-------------------------------------------------------------------------------
    8 Si    x       3.7367      0.1415      0.1698
            y      -0.1089      3.3066      0.0452
            z       0.7543      0.1310      3.2355
-------------------------------------------------------------------------------
    9 Si    x       3.5300     -0.1017     -0.4070
            y       0.1244      3.2991      0.0418
            z      -0.3891     -0.0136      3.1072
-------------------------------------------------------------------------------
   10 Si    x       3.5454     -0.1259      0.3507
            y       0.0880      3.2798     -0.0193
            z       0.3813     -0.0559      3.0838
-------------------------------------------------------------------------------
   11 Si    x       3.2986      0.4501      0.2711
            y       0.2637      3.5864      0.3449
            z       0.1884      0.2122      3.0292
-------------------------------------------------------------------------------
   12 Si    x       3.2117     -0.2799     -0.0636
            y      -0.2484      3.4499      0.1510
            z      -0.1381      0.0727      2.7773
-------------------------------------------------------------------------------
   13 Si    x       3.2892     -0.3114      0.0327
            y      -0.2669      3.5609     -0.0792
            z       0.1628      0.0252      3.0784
-------------------------------------------------------------------------------
   14 Si    x       3.1797      0.2655     -0.0235
            y       0.2441      3.4472     -0.1399
            z      -0.1458     -0.0938      2.7805
-------------------------------------------------------------------------------
   15 Si    x       3.2232      0.2592      0.0480
            y       0.2460      3.4301      0.1705
            z       0.1310      0.0446      2.7686
-------------------------------------------------------------------------------
   16 Si    x       3.4649     -0.2849     -0.2859
            y      -0.2870      3.8257      0.2830
            z      -0.2826      0.1222      3.1048
-------------------------------------------------------------------------------
   17 Si    x       3.6819     -0.2684      0.1519
            y      -0.3634      3.5858     -0.3409
            z       0.2108     -0.1744      3.0802
-------------------------------------------------------------------------------
   18 Si    x       3.3348      0.2170     -0.1501
            y       0.0719      3.6821     -0.0778
            z      -0.1878      0.0252      2.7710
-------------------------------------------------------------------------------
   19 Si    x       3.5745      0.2414     -0.0502
            y       0.2200      3.4650      0.1680
            z       0.0801      0.0648      2.7790
-------------------------------------------------------------------------------
   20 Si    x       3.2783     -0.2775     -0.0999
            y      -0.2732      3.4804      0.1972
            z      -0.1503      0.0792      2.7284
-------------------------------------------------------------------------------
   21 Si    x       3.2962     -0.2678      0.1581
            y      -0.2486      3.4541     -0.2433
            z       0.1233     -0.0562      2.7122
-------------------------------------------------------------------------------
   22 Si    x       3.2656      0.3196     -0.1714
            y       0.1309      3.4700     -0.2054
            z      -0.1155     -0.0635      2.7362
-------------------------------------------------------------------------------
   23 Si    x       3.3381      0.3561      0.1454
            y       0.1590      3.5902      0.1322
            z       0.1062     -0.0371      3.0065
-------------------------------------------------------------------------------
   24 Si    x       3.1950     -0.3217      0.1057
            y      -0.1294      3.3941     -0.1268
            z       0.1191     -0.0534      2.6956
-------------------------------------------------------------------------------
   25 O1    x      -2.2225     -0.9734      0.3690
            y      -1.0207     -2.4003      0.4366
            z       0.4627      0.3827     -1.7633
-------------------------------------------------------------------------------
   26 O3    x      -2.0429     -0.9413     -0.4122
            y      -0.9560     -2.3157     -0.5150
            z      -0.5041     -0.4940     -1.6350
-------------------------------------------------------------------------------
   27 O2    x      -1.6977      0.7315      0.3371
            y       0.7424     -2.0207     -0.3419
            z       0.3540     -0.3541     -1.3350
-------------------------------------------------------------------------------
   28 O2    x      -1.7289      0.7365     -0.3252
            y       0.7377     -2.0129      0.3333
            z      -0.3580      0.3371     -1.3282
-------------------------------------------------------------------------------
   29 O2    x      -1.6783     -0.7146      0.3448
            y      -0.7060     -2.0136      0.3778
            z       0.3448      0.3645     -1.3306
-------------------------------------------------------------------------------
   30 O2    x      -1.6944     -0.7224     -0.3293
            y      -0.6996     -1.9911     -0.3239
            z      -0.3406     -0.3290     -1.3412
-------------------------------------------------------------------------------
   31 O3    x      -2.0169      0.9177      0.4984
            y       0.8821     -2.2426     -0.5097
            z       0.5846     -0.4741     -1.6789
-------------------------------------------------------------------------------
   32 O3    x      -1.9607      0.9292     -0.4392
            y       0.8567     -2.3578      0.4327
            z      -0.5437      0.4365     -1.6228
-------------------------------------------------------------------------------
   33 O3    x      -1.9208      0.0398      0.9727
            y       0.0323     -1.1936     -0.0460
            z       1.2291     -0.0477     -3.3710
-------------------------------------------------------------------------------
   34 O3    x      -1.9461      0.0754     -1.0365
            y       0.0276     -1.2139      0.0364
            z      -1.2942      0.0791     -3.3963
-------------------------------------------------------------------------------
   35 O3    x      -2.0370     -0.0525     -0.9727
            y      -0.0258     -1.2961      0.0052
            z      -0.8939     -0.0061     -2.6945
-------------------------------------------------------------------------------
   36 O3    x      -2.1778      0.0603      0.9813
            y       0.0201     -1.2478     -0.0487
            z       0.9708     -0.0644     -2.5875
-------------------------------------------------------------------------------
   37 O2    x      -1.8738      0.0359     -0.6408
            y      -0.0138     -1.1072      0.0155
            z      -0.6599      0.0386     -2.1040
-------------------------------------------------------------------------------
   38 O2    x      -1.8162      0.0284      0.6805
            y      -0.0109     -1.1102     -0.0115
            z       0.6559     -0.0161     -2.1672
-------------------------------------------------------------------------------
   39 O2    x      -1.7311     -0.6679      0.2449
            y      -0.6488     -1.9049      0.2768
            z       0.3350      0.2519     -1.2324
-------------------------------------------------------------------------------
   40 O2    x      -1.6883     -0.6949     -0.2017
            y      -0.6290     -2.0296     -0.1985
            z      -0.2969     -0.2140     -1.1823
-------------------------------------------------------------------------------
   41 O2    x      -1.7051      0.7406      0.4064
            y       0.6560     -2.0744     -0.4371
            z       0.3728     -0.3836     -1.2547
-------------------------------------------------------------------------------
   42 O2    x      -1.6710      0.7284     -0.4128
            y       0.6248     -2.0414      0.4386
            z      -0.3546      0.3822     -1.2931
-------------------------------------------------------------------------------
   43 O2    x      -1.7590     -0.7397      0.4086
            y      -0.7089     -1.9684      0.4109
            z       0.3553      0.3673     -1.2781
-------------------------------------------------------------------------------
   44 O2    x      -1.7478     -0.7291     -0.3903
            y      -0.6917     -1.9724     -0.4038
            z      -0.3447     -0.3508     -1.2756
-------------------------------------------------------------------------------
   45 O3    x      -2.0957      0.9580      0.2006
            y       0.9662     -2.3908     -0.2167
            z       0.3346     -0.2255     -1.3744
-------------------------------------------------------------------------------
   46 O2    x      -1.7465      0.7318     -0.1895
            y       0.6945     -1.9486      0.2272
            z      -0.2954      0.2536     -1.1897
-------------------------------------------------------------------------------
   47 O2    x      -1.8414      0.0515     -0.5344
            y       0.0193     -1.1809      0.0080
            z      -0.3011      0.0004     -1.7006
-------------------------------------------------------------------------------
   48 O2    x      -1.8444      0.0314      0.5909
            y       0.0256     -1.1619     -0.0069
            z       0.3459     -0.0101     -1.7055
-------------------------------------------------------------------------------
   49 O3    x      -1.3311      0.0225      0.0659
            y       0.0658     -3.1063      0.1014
            z       0.0848      0.0768     -1.1971
-------------------------------------------------------------------------------
   50 O2    x      -1.1842      0.0961     -0.0741
            y       0.1500     -2.4297      0.0325
            z      -0.0882      0.0302     -1.1087
-------------------------------------------------------------------------------
   51 O2    x      -1.1638     -0.0143      0.0466
            y      -0.0081     -2.5538     -0.0258
            z       0.0814     -0.0117     -1.0675
-------------------------------------------------------------------------------
   52 O2    x      -1.1870     -0.0058     -0.0361
            y      -0.0131     -2.5995      0.0096
            z      -0.0730      0.0272     -1.0471
-------------------------------------------------------------------------------
   53 O3    x      -2.9091     -0.2256      0.0436
            y      -0.1636     -1.4014      0.1003
            z       0.0667      0.0631     -1.2529
-------------------------------------------------------------------------------
   54 O2    x      -2.3745     -0.0849     -0.0229
            y      -0.0330     -1.2410     -0.0679
            z      -0.0073     -0.0408     -1.1080
-------------------------------------------------------------------------------
   55 O2    x      -2.3894      0.0220      0.0228
            y       0.0018     -1.2326     -0.0690
            z       0.0031     -0.0427     -1.0879
-------------------------------------------------------------------------------
   56 O2    x      -2.3662      0.0326     -0.0187
            y       0.0252     -1.2530      0.0677
            z      -0.0158      0.0496     -1.0890
-------------------------------------------------------------------------------
   57 O3    x      -1.3329     -0.1623      0.0378
            y      -0.1066     -1.4837      0.0702
            z       0.0261      0.0737     -2.5610
-------------------------------------------------------------------------------
   58 O2    x      -1.2017     -0.1433      0.0441
            y      -0.0935     -1.2966     -0.0121
            z       0.0620     -0.0142     -2.0523
-------------------------------------------------------------------------------
   59 O2    x      -1.1751      0.1235     -0.0431
            y       0.0878     -1.2646      0.0046
            z      -0.0248      0.0154     -2.0443
-------------------------------------------------------------------------------
   60 O3    x      -1.3224      0.1508      0.0464
            y       0.1087     -1.4546     -0.0660
            z      -0.0026     -0.0529     -2.5877
-------------------------------------------------------------------------------
   61 O2    x      -1.1857     -0.1082     -0.0954
            y      -0.0890     -1.2785      0.0134
            z      -0.0942      0.0228     -2.0765
-------------------------------------------------------------------------------
   62 O2    x      -1.2057     -0.1273      0.0223
            y      -0.0995     -1.2622      0.0418
            z       0.0203      0.0429     -2.0485
-------------------------------------------------------------------------------
   63 O2    x      -1.2441      0.1408     -0.0070
            y       0.1266     -1.2834     -0.0068
            z      -0.0038     -0.0114     -2.0470
-------------------------------------------------------------------------------
   64 O2    x      -1.1959      0.1247      0.0033
            y       0.1145     -1.3044     -0.0311
            z       0.0107     -0.0443     -2.0871
-------------------------------------------------------------------------------
   65 O3    x      -1.4009      0.0776      0.1040
            y       0.0258     -3.1075     -0.1093
            z       0.1344     -0.0999     -1.1427
-------------------------------------------------------------------------------
   66 O2    x      -1.2248     -0.0589     -0.0732
            y      -0.0957     -2.4796     -0.0280
            z      -0.1033     -0.0261     -1.0347
-------------------------------------------------------------------------------
   67 O2    x      -1.2310      0.0589      0.0724
            y       0.1095     -2.5743      0.0279
            z       0.0881      0.0178     -1.0184
-------------------------------------------------------------------------------
   68 O2    x      -1.2427      0.0508     -0.0711
            y       0.1162     -2.5987     -0.0172
            z      -0.0780     -0.0291     -1.0078
-------------------------------------------------------------------------------
   69 O2    x      -2.4133     -0.0100      0.0158
            y      -0.0133     -1.2207      0.0520
            z       0.0227      0.0235     -1.0746
-------------------------------------------------------------------------------
   70 O3    x      -2.9730      0.0787      0.1269
            y       0.0811     -1.3656     -0.0969
            z       0.1428     -0.0581     -1.2554
-------------------------------------------------------------------------------
   71 O2    x      -2.4541     -0.0897     -0.0706
            y      -0.0563     -1.2549     -0.0746
            z      -0.0460     -0.0378     -1.0407
-------------------------------------------------------------------------------
   72 O2    x      -2.4779     -0.0883     -0.0229
            y      -0.0480     -1.2344      0.0707
            z      -0.0306      0.0290     -1.0332
-------------------------------------------------------------------------------




  Elastic Constant Matrix: (Units=GPa)

-------------------------------------------------------------------------------
  Indices      1         2         3         4         5         6    
-------------------------------------------------------------------------------
       1     45.9284   20.7738   20.2049   -0.8373   -3.6858   -4.5976
       2     20.7738   67.5589   20.6456   -0.6746   -4.0902   -4.9832
       3     20.2049   20.6456   19.1519   -0.3421   -0.6075   -5.1270
       4     -0.8373   -0.6746   -0.3421    9.7492   -1.4682    0.3132
       5     -3.6858   -4.0902   -0.6075   -1.4682   21.8009   -0.4321
       6     -4.5976   -4.9832   -5.1270    0.3132   -0.4321   18.9627
-------------------------------------------------------------------------------


  Elastic Compliance Matrix: (Units=1/GPa)

-------------------------------------------------------------------------------
  Indices      1         2         3         4         5         6    
-------------------------------------------------------------------------------
       1    0.041573  0.001436 -0.045635  0.003059  0.006197 -0.001791
       2    0.001436  0.022411 -0.025702  0.001367  0.003811 -0.000647
       3   -0.045635 -0.025702  0.132519 -0.002930 -0.008688  0.017861
       4    0.003059  0.001367 -0.002930  0.104022  0.007673 -0.001235
       5    0.006197  0.003811 -0.008688  0.007673  0.047929  0.001120
       6   -0.001791 -0.000647  0.017861 -0.001235  0.001120  0.057006
-------------------------------------------------------------------------------

  Mechanical properties :

-------------------------------------------------------------------------------
  Convention :                    Reuss         Voigt         Hill
-------------------------------------------------------------------------------
  Bulk  Modulus (GPa)     =      17.63651      28.43197      23.03424
  Shear Modulus (GPa)     =       8.86267      14.83687      11.84977
-------------------------------------------------------------------------------
  Velocity S-wave (km/s)  =       2.09811       2.71467       2.42606
  Velocity P-wave (km/s)  =       3.82484       4.89367       4.39189
-------------------------------------------------------------------------------
  Compressibility (1/GPa) =    0.05670057
-------------------------------------------------------------------------------
  Stress axis :                     x             y             z
-------------------------------------------------------------------------------
  Youngs Moduli (GPa)     =      24.05400      44.62006       7.54610
-------------------------------------------------------------------------------
  Poissons Ratio (x)      =                    -0.06408       0.34437
  Poissons Ratio (y)      =      -0.03454                     0.19395
  Poissons Ratio (z)      =       1.09771       1.14684
-------------------------------------------------------------------------------


  Piezoelectric Strain Matrix: (Units=C/m**2)

-------------------------------------------------------------------------------
  Indices      1         2         3         4         5         6    
-------------------------------------------------------------------------------
       x    -0.56523  -1.44836   0.11441   0.16799   0.89309   0.31689
       y    -0.27244  -0.59381   0.22877   0.29470   0.19713   0.49680
       z     0.67750   0.57971  -1.39769  -0.02294  -0.13381  -0.37825
-------------------------------------------------------------------------------


  Piezoelectric Stress Matrix: (Units=10**-11 C/N)

-------------------------------------------------------------------------------
  Indices      1         2         3         4         5         6    
-------------------------------------------------------------------------------
       x    -2.53187  -3.27846   7.55911   1.98915   3.44333   2.28509
       y    -2.13852  -1.87468   6.43083   2.92388   0.63276   3.31359
       z     9.25598   4.95925 -23.65639   0.40141   1.15369  -4.82369
-------------------------------------------------------------------------------


  Static dielectric constant tensor : 

-------------------------------------------------------------------------------
              x         y         z
-------------------------------------------------------------------------------
       x     4.19365  -0.01426  -0.05870
       y    -0.01426   4.31818  -0.00050
       z    -0.05870  -0.00050   3.48454
--------------------------------------------------------------------------------

  High frequency dielectric constant tensor : 

-------------------------------------------------------------------------------
              x         y         z
-------------------------------------------------------------------------------
       x     1.67511  -0.00180   0.00000
       y    -0.00180   1.68208  -0.00010
       z     0.00000  -0.00010   1.61170
-------------------------------------------------------------------------------

  Static refractive indices : 

-------------------------------------------------------------------------------
    1 =    1.86540      2 =    2.04861      3 =    2.07842
-------------------------------------------------------------------------------

  High frequency refractive indices : 

-------------------------------------------------------------------------------
    1 =    1.26953      2 =    1.29409      3 =    1.29712
-------------------------------------------------------------------------------


  Time to end of optimisation =       9.7803 seconds


  Peak dynamic memory used =       5.01 MB 


  Timing analysis for GULP :

--------------------------------------------------------------------------------
  Task / Subroutine                                          Time (Seconds)
--------------------------------------------------------------------------------
  Calculation of reciprocal space energy and derivatives          0.6312
  Calculation of real space energy and derivatives                5.9738
  Calculation of three-body energy and derivatives                0.4735
  Calculation and manipulation of Hessian matrix                  3.1303
  Calculation of matrix inversion                                 0.0356
  Global summation overhead                                       0.0001
--------------------------------------------------------------------------------
  Total CPU time                                                  9.7803
--------------------------------------------------------------------------------


  Dump file written as c00047.vasp.grs
  CIF file written as c00047.vasp.cif


  Job Finished at 11:47.20 31st October    2025                               

