********************************************************************************
*                       GENERAL UTILITY LATTICE PROGRAM                        *
*                                 Julian Gale                                  *
*                       Curtin Institute for Computation                       *
*                    School of Molecular and Life Sciences                     *
*                    Curtin University, Western Australia                      *
********************************************************************************
* Version = 6.1.2 * Last modified =   3rd November 2022                        *
********************************************************************************
*  optimise     - perform optimisation run                                     *
*  conp         - constant pressure calculation                                *
*  property     - calculate properties for final geometry                      *
********************************************************************************

  Job Started  at 11:47.20 31st October    2025                               

  Number of CPUs =     1


  Total number of configurations input =      1

********************************************************************************
*  Input for Configuration =   1 : c00048.vasp                                 *
********************************************************************************

  Formula = Ge4Si20O48                                                  

  Number of irreducible atoms/shells =     120


  Total number atoms/shells =     120

  Dimensionality = 3               :  Bulk   



  Cartesian lattice vectors (Angstroms) :

       17.182800    0.000000    0.000000
        0.000000    7.513760    0.000000
        0.000000    0.000000   10.447700

  Cell parameters (Angstroms/Degrees):

  a =      17.1828    alpha =  90.0000
  b =       7.5138    beta  =  90.0000
  c =      10.4477    gamma =  90.0000

  Initial cell volume =        1348.875752 Angs**3

  Temperature of configuration =   0.00     K 

  Pressure of configuration =         0.000 GPa 

  Fractional coordinates of asymmetric unit :

--------------------------------------------------------------------------------
   No.  Atomic       x           y          z         Charge      Occupancy
        Label      (Frac)      (Frac)     (Frac)        (e)         (Frac)  
--------------------------------------------------------------------------------
      1 Ge    c    0.052090    0.000000    0.372270     4.00000    1.000000    
      2 Ge    c    0.447910 *  0.000000 *  0.372270 *   4.00000    1.000000    
      3 Ge    c    0.160190 *  0.293910 *  0.273440 *   4.00000    1.000000    
      4 Ge    c    0.839340 *  0.294090 *  0.017440 *   4.00000    1.000000    
      5 Si    c    0.947910 *  0.000000 *  0.627730 *   4.00000    1.000000    
      6 Si    c    0.552090 *  0.000000 *  0.627730 *   4.00000    1.000000    
      7 Si    c    0.556730 *  0.000000 *  0.122130 *   4.00000    1.000000    
      8 Si    c    0.943270 *  0.000000 *  0.122130 *   4.00000    1.000000    
      9 Si    c    0.443270 *  0.000000 *  0.877870 *   4.00000    1.000000    
     10 Si    c    0.056730 *  0.000000 *  0.877870 *   4.00000    1.000000    
     11 Si    c    0.339810 *  0.706090 *  0.273440 *   4.00000    1.000000    
     12 Si    c    0.839810 *  0.293910 *  0.726560 *   4.00000    1.000000    
     13 Si    c    0.660190 *  0.706090 *  0.726560 *   4.00000    1.000000    
     14 Si    c    0.839810 *  0.706090 *  0.726560 *   4.00000    1.000000    
     15 Si    c    0.660190 *  0.293910 *  0.726560 *   4.00000    1.000000    
     16 Si    c    0.160190 *  0.706090 *  0.273440 *   4.00000    1.000000    
     17 Si    c    0.339810 *  0.293910 *  0.273440 *   4.00000    1.000000    
     18 Si    c    0.660660 *  0.294090 *  0.017440 *   4.00000    1.000000    
     19 Si    c    0.839340 *  0.705910 *  0.017440 *   4.00000    1.000000    
     20 Si    c    0.339340 *  0.294090 *  0.982560 *   4.00000    1.000000    
     21 Si    c    0.160660 *  0.705910 *  0.982560 *   4.00000    1.000000    
     22 Si    c    0.339340 *  0.705910 *  0.982560 *   4.00000    1.000000    
     23 Si    c    0.160660 *  0.294090 *  0.982560 *   4.00000    1.000000    
     24 Si    c    0.660660 *  0.705910 *  0.017440 *   4.00000    1.000000    
     25 O1    c    0.106570 *  0.174340 *  0.366200 *   1.73396    1.000000    
     26 O3    c    0.393430 *  0.825660 *  0.366200 *   1.33043    1.000000    
     27 O2    c    0.893430 *  0.174340 *  0.633800 *   0.87073    1.000000    
     28 O2    c    0.606570 *  0.825660 *  0.633800 *   0.87073    1.000000    
     29 O2    c    0.893430 *  0.825660 *  0.633800 *   0.87073    1.000000    
     30 O2    c    0.606570 *  0.174340 *  0.633800 *   0.87073    1.000000    
     31 O3    c    0.106570 *  0.825660 *  0.366200 *   1.33043    1.000000    
     32 O3    c    0.393430 *  0.174340 *  0.366200 *   1.33043    1.000000    
     33 O3    c    0.000000 *  0.000000 *  0.500000 *   1.33043    1.000000    
     34 O3    c    0.500000 *  0.000000 *  0.500000 *   1.33043    1.000000    
     35 O3    c    0.994520 *  0.000000 *  0.250840 *   1.33043    1.000000    
     36 O3    c    0.505480 *  0.000000 *  0.250840 *   1.33043    1.000000    
     37 O2    c    0.005480 *  0.000000 *  0.749160 *   0.87073    1.000000    
     38 O2    c    0.494520 *  0.000000 *  0.749160 *   0.87073    1.000000    
     39 O2    c    0.610230 *  0.175520 *  0.115390 *   0.87073    1.000000    
     40 O2    c    0.889770 *  0.824480 *  0.115390 *   0.87073    1.000000    
     41 O2    c    0.389770 *  0.175520 *  0.884610 *   0.87073    1.000000    
     42 O2    c    0.110230 *  0.824480 *  0.884610 *   0.87073    1.000000    
     43 O2    c    0.389770 *  0.824480 *  0.884610 *   0.87073    1.000000    
     44 O2    c    0.110230 *  0.175520 *  0.884610 *   0.87073    1.000000    
     45 O2    c    0.610230 *  0.824480 *  0.115390 *   0.87073    1.000000    
     46 O3    c    0.889770 *  0.175520 *  0.115390 *   1.33043    1.000000    
     47 O2    c    0.500000 *  0.000000 *  0.000000 *   0.87073    1.000000    
     48 O2    c    0.000000 *  0.000000 *  0.000000 *   0.87073    1.000000    
     49 O3    c    0.151750 *  0.500000 *  0.313330 *   1.33043    1.000000    
     50 O2    c    0.348250 *  0.500000 *  0.313330 *   0.87073    1.000000    
     51 O2    c    0.848250 *  0.500000 *  0.686670 *   0.87073    1.000000    
     52 O2    c    0.651750 *  0.500000 *  0.686670 *   0.87073    1.000000    
     53 O3    c    0.250000 *  0.234950 *  0.285720 *   1.33043    1.000000    
     54 O2    c    0.250000 *  0.765050 *  0.285720 *   0.87073    1.000000    
     55 O2    c    0.750000 *  0.234950 *  0.714280 *   0.87073    1.000000    
     56 O2    c    0.750000 *  0.765050 *  0.714280 *   0.87073    1.000000    
     57 O3    c    0.131410 *  0.268650 *  0.127790 *   1.33043    1.000000    
     58 O2    c    0.368590 *  0.731350 *  0.127790 *   0.87073    1.000000    
     59 O3    c    0.868590 *  0.268650 *  0.872210 *   1.33043    1.000000    
     60 O2    c    0.631410 *  0.731350 *  0.872210 *   0.87073    1.000000    
     61 O2    c    0.868590 *  0.731350 *  0.872210 *   0.87073    1.000000    
     62 O2    c    0.631410 *  0.268650 *  0.872210 *   0.87073    1.000000    
     63 O2    c    0.131410 *  0.731350 *  0.127790 *   0.87073    1.000000    
     64 O2    c    0.368590 *  0.268650 *  0.127790 *   0.87073    1.000000    
     65 O2    c    0.653920 *  0.500000 *  0.058200 *   0.87073    1.000000    
     66 O3    c    0.846080 *  0.500000 *  0.058200 *   1.33043    1.000000    
     67 O2    c    0.346080 *  0.500000 *  0.941800 *   0.87073    1.000000    
     68 O2    c    0.153920 *  0.500000 *  0.941800 *   0.87073    1.000000    
     69 O3    c    0.750000 *  0.231060 *  0.027050 *   1.33043    1.000000    
     70 O2    c    0.750000 *  0.768940 *  0.027050 *   0.87073    1.000000    
     71 O2    c    0.250000 *  0.231060 *  0.972950 *   0.87073    1.000000    
     72 O2    c    0.250000 *  0.768940 *  0.972950 *   0.87073    1.000000    
     73 O1    s    0.106570 *  0.174340 *  0.366200 *  -3.73396    1.000000    
     74 O3    s    0.393430 *  0.825660 *  0.366200 *  -3.33043    1.000000    
     75 O2    s    0.893430 *  0.174340 *  0.633800 *  -2.87073    1.000000    
     76 O2    s    0.606570 *  0.825660 *  0.633800 *  -2.87073    1.000000    
     77 O2    s    0.893430 *  0.825660 *  0.633800 *  -2.87073    1.000000    
     78 O2    s    0.606570 *  0.174340 *  0.633800 *  -2.87073    1.000000    
     79 O3    s    0.106570 *  0.825660 *  0.366200 *  -3.33043    1.000000    
     80 O3    s    0.393430 *  0.174340 *  0.366200 *  -3.33043    1.000000    
     81 O3    s    0.000000 *  0.000000 *  0.500000 *  -3.33043    1.000000    
     82 O3    s    0.500000 *  0.000000 *  0.500000 *  -3.33043    1.000000    
     83 O3    s    0.994520 *  0.000000 *  0.250840 *  -3.33043    1.000000    
     84 O3    s    0.505480 *  0.000000 *  0.250840 *  -3.33043    1.000000    
     85 O2    s    0.005480 *  0.000000 *  0.749160 *  -2.87073    1.000000    
     86 O2    s    0.494520 *  0.000000 *  0.749160 *  -2.87073    1.000000    
     87 O2    s    0.610230 *  0.175520 *  0.115390 *  -2.87073    1.000000    
     88 O2    s    0.889770 *  0.824480 *  0.115390 *  -2.87073    1.000000    
     89 O2    s    0.389770 *  0.175520 *  0.884610 *  -2.87073    1.000000    
     90 O2    s    0.110230 *  0.824480 *  0.884610 *  -2.87073    1.000000    
     91 O2    s    0.389770 *  0.824480 *  0.884610 *  -2.87073    1.000000    
     92 O2    s    0.110230 *  0.175520 *  0.884610 *  -2.87073    1.000000    
     93 O2    s    0.610230 *  0.824480 *  0.115390 *  -2.87073    1.000000    
     94 O3    s    0.889770 *  0.175520 *  0.115390 *  -3.33043    1.000000    
     95 O2    s    0.500000 *  0.000000 *  0.000000 *  -2.87073    1.000000    
     96 O2    s    0.000000 *  0.000000 *  0.000000 *  -2.87073    1.000000    
     97 O3    s    0.151750 *  0.500000 *  0.313330 *  -3.33043    1.000000    
     98 O2    s    0.348250 *  0.500000 *  0.313330 *  -2.87073    1.000000    
     99 O2    s    0.848250 *  0.500000 *  0.686670 *  -2.87073    1.000000    
    100 O2    s    0.651750 *  0.500000 *  0.686670 *  -2.87073    1.000000    
    101 O3    s    0.250000 *  0.234950 *  0.285720 *  -3.33043    1.000000    
    102 O2    s    0.250000 *  0.765050 *  0.285720 *  -2.87073    1.000000    
    103 O2    s    0.750000 *  0.234950 *  0.714280 *  -2.87073    1.000000    
    104 O2    s    0.750000 *  0.765050 *  0.714280 *  -2.87073    1.000000    
    105 O3    s    0.131410 *  0.268650 *  0.127790 *  -3.33043    1.000000    
    106 O2    s    0.368590 *  0.731350 *  0.127790 *  -2.87073    1.000000    
    107 O3    s    0.868590 *  0.268650 *  0.872210 *  -3.33043    1.000000    
    108 O2    s    0.631410 *  0.731350 *  0.872210 *  -2.87073    1.000000    
    109 O2    s    0.868590 *  0.731350 *  0.872210 *  -2.87073    1.000000    
    110 O2    s    0.631410 *  0.268650 *  0.872210 *  -2.87073    1.000000    
    111 O2    s    0.131410 *  0.731350 *  0.127790 *  -2.87073    1.000000    
    112 O2    s    0.368590 *  0.268650 *  0.127790 *  -2.87073    1.000000    
    113 O2    s    0.653920 *  0.500000 *  0.058200 *  -2.87073    1.000000    
    114 O3    s    0.846080 *  0.500000 *  0.058200 *  -3.33043    1.000000    
    115 O2    s    0.346080 *  0.500000 *  0.941800 *  -2.87073    1.000000    
    116 O2    s    0.153920 *  0.500000 *  0.941800 *  -2.87073    1.000000    
    117 O3    s    0.750000 *  0.231060 *  0.027050 *  -3.33043    1.000000    
    118 O2    s    0.750000 *  0.768940 *  0.027050 *  -2.87073    1.000000    
    119 O2    s    0.250000 *  0.231060 *  0.972950 *  -2.87073    1.000000    
    120 O2    s    0.250000 *  0.768940 *  0.972950 *  -2.87073    1.000000    
--------------------------------------------------------------------------------



********************************************************************************
*  General input information                                                   *
********************************************************************************

  Species output for all configurations : 

--------------------------------------------------------------------------------
  Species    Type    Atomic    Atomic    Charge       Radii (Angs)     Library
                     Number     Mass       (e)     Cova   Ionic  VDW   Symbol
--------------------------------------------------------------------------------
    Ge       Core       32      72.61   4.000000   1.170  0.000  1.750 Ge       
    Si       Core       14      28.09   4.000000   1.200  0.000  2.100 Si       
    O1       Core        8      16.00   1.733957   0.730  0.000  1.360 O1       
    O2       Core        8      16.00   0.870733   0.730  0.000  1.360 O2       
    O3       Core        8      16.00   1.330431   0.730  0.000  1.360 O3       
    O1       Shell       8       0.00  -3.733957   0.730  0.000  0.000 O1       
    O2       Shell       8       0.00  -2.870733   0.730  0.000  0.000 O2       
    O3       Shell       8       0.00  -3.330431   0.730  0.000  0.000 O3       
--------------------------------------------------------------------------------


  Lattice summation method               =    Ewald          (3-D)
                                         =    Parry          (2-D)
                                         =    Saunders et al (1-D)
  Accuracy factor for lattice sums       =   12.000


  Analytic derivatives to be used

  Time limit = Infinity

  Maximum range for interatomic potentials =    100000.000000 Angstroms

  General interatomic potentials :

--------------------------------------------------------------------------------
Atom  Types   Potential      Parameter       Value         Units   Cutoffs(Ang)
  1     2                                                            Min /  Max 
--------------------------------------------------------------------------------
Si   c O1   s Buckingham    Buckingham A     1315.2478    eV        0.000 16.000
                            Buckingham rho  0.31775900    Ang       
                            Buckingham C     10.141118    eV*Ang^6  
--------------------------------------------------------------------------------
Si   c O2   s Buckingham    Buckingham A     1315.2478    eV        0.000 16.000
                            Buckingham rho  0.31775900    Ang       
                            Buckingham C     10.141118    eV*Ang^6  
--------------------------------------------------------------------------------
Si   c O3   s Buckingham    Buckingham A     1315.2478    eV        0.000 16.000
                            Buckingham rho  0.31775900    Ang       
                            Buckingham C     10.141118    eV*Ang^6  
--------------------------------------------------------------------------------
Ge   c O1   s Buckingham    Buckingham A     1497.3996    eV        0.000 16.000
                            Buckingham rho  0.32564600    Ang       
                            Buckingham C     16.808599    eV*Ang^6  
--------------------------------------------------------------------------------
Ge   c O2   s Buckingham    Buckingham A     1497.3996    eV        0.000 16.000
                            Buckingham rho  0.32564600    Ang       
                            Buckingham C     16.808599    eV*Ang^6  
--------------------------------------------------------------------------------
Ge   c O3   s Buckingham    Buckingham A     1497.3996    eV        0.000 16.000
                            Buckingham rho  0.32564600    Ang       
                            Buckingham C     16.808599    eV*Ang^6  
--------------------------------------------------------------------------------
O1   s O1   s Buckingham    Buckingham A     22764.000    eV        0.000 16.000
                            Buckingham rho  0.14900000    Ang       
                            Buckingham C     10.937044    eV*Ang^6  
--------------------------------------------------------------------------------
O1   s O2   s Buckingham    Buckingham A     22764.000    eV        0.000 16.000
                            Buckingham rho  0.14900000    Ang       
                            Buckingham C     10.937044    eV*Ang^6  
--------------------------------------------------------------------------------
O1   s O3   s Buckingham    Buckingham A     22764.000    eV        0.000 16.000
                            Buckingham rho  0.14900000    Ang       
                            Buckingham C     10.937044    eV*Ang^6  
--------------------------------------------------------------------------------
O2   s O2   s Buckingham    Buckingham A     22764.000    eV        0.000 16.000
                            Buckingham rho  0.14900000    Ang       
                            Buckingham C     10.937044    eV*Ang^6  
--------------------------------------------------------------------------------
O2   s O3   s Buckingham    Buckingham A     22764.000    eV        0.000 16.000
                            Buckingham rho  0.14900000    Ang       
                            Buckingham C     10.937044    eV*Ang^6  
--------------------------------------------------------------------------------
O3   s O3   s Buckingham    Buckingham A     22764.000    eV        0.000 16.000
                            Buckingham rho  0.14900000    Ang       
                            Buckingham C     10.937044    eV*Ang^6  
--------------------------------------------------------------------------------
O1   c O1   s Spring (c-s)  Spring k 2       180.31577    eV*Ang^-2 0.000  0.800
                            Spring k 4       0.0000000    eV*Ang^-4 
--------------------------------------------------------------------------------
O2   c O2   s Spring (c-s)  Spring k 2       75.969800    eV*Ang^-2 0.000  0.800
                            Spring k 4       0.0000000    eV*Ang^-4 
--------------------------------------------------------------------------------
O3   c O3   s Spring (c-s)  Spring k 2       128.14270    eV*Ang^-2 0.000  0.800
                            Spring k 4       0.0000000    eV*Ang^-4 
--------------------------------------------------------------------------------

  General Three-body potentials :

--------------------------------------------------------------------------------
  Atoms       Potential      Parameter       Value         Units   Cutoffs(Ang)
  1 / 2 / 3                                                          Min /  Max 
--------------------------------------------------------------------------------
Si    core    Harmonic      Three-body cnst  1.2614000    eV*rad^-2 0.000  1.900
O1    shel                  Three-body angl  109.47000    degrees   0.000  1.900
O1    shel                  Three-body k4    0.0000000    eV*rad^-4 0.000  3.500
                            Three-body k3    0.0000000    eV*rad^-3 
--------------------------------------------------------------------------------
Si    core    Harmonic      Three-body cnst  1.2614000    eV*rad^-2 0.000  1.900
O1    shel                  Three-body angl  109.47000    degrees   0.000  1.900
õ(1   shel                  Three-body k4    0.0000000    eV*rad^-4 0.000  3.500
                            Three-body k3    0.0000000    eV*rad^-3 
--------------------------------------------------------------------------------
Si    core    Harmonic      Three-body cnst  1.2614000    eV*rad^-2 0.000  1.900
õ(1   shel                  Three-body angl  109.47000    degrees   0.000  1.900
õ(1   shel                  Three-body k4    0.0000000    eV*rad^-4 0.000  3.500
                            Three-body k3    0.0000000    eV*rad^-3 
--------------------------------------------------------------------------------
Si    core    Harmonic      Three-body cnst  1.2614000    eV*rad^-2 0.000  1.900
O1    shel                  Three-body angl  109.47000    degrees   0.000  1.900
O2    shel                  Three-body k4    0.0000000    eV*rad^-4 0.000  3.500
                            Three-body k3    0.0000000    eV*rad^-3 
--------------------------------------------------------------------------------
Si    core    Harmonic      Three-body cnst  1.2614000    eV*rad^-2 0.000  1.900
O1    shel                  Three-body angl  109.47000    degrees   0.000  1.900
õ(2   shel                  Three-body k4    0.0000000    eV*rad^-4 0.000  3.500
                            Three-body k3    0.0000000    eV*rad^-3 
--------------------------------------------------------------------------------
Si    core    Harmonic      Three-body cnst  1.2614000    eV*rad^-2 0.000  1.900
O2    shel                  Three-body angl  109.47000    degrees   0.000  1.900
õ(1   shel                  Three-body k4    0.0000000    eV*rad^-4 0.000  3.500
                            Three-body k3    0.0000000    eV*rad^-3 
--------------------------------------------------------------------------------
Si    core    Harmonic      Three-body cnst  1.2614000    eV*rad^-2 0.000  1.900
õ(1   shel                  Three-body angl  109.47000    degrees   0.000  1.900
õ(2   shel                  Three-body k4    0.0000000    eV*rad^-4 0.000  3.500
                            Three-body k3    0.0000000    eV*rad^-3 
--------------------------------------------------------------------------------
Si    core    Harmonic      Three-body cnst  1.2614000    eV*rad^-2 0.000  1.900
O2    shel                  Three-body angl  109.47000    degrees   0.000  1.900
O2    shel                  Three-body k4    0.0000000    eV*rad^-4 0.000  3.500
                            Three-body k3    0.0000000    eV*rad^-3 
--------------------------------------------------------------------------------
Si    core    Harmonic      Three-body cnst  1.2614000    eV*rad^-2 0.000  1.900
O2    shel                  Three-body angl  109.47000    degrees   0.000  1.900
õ(2   shel                  Three-body k4    0.0000000    eV*rad^-4 0.000  3.500
                            Three-body k3    0.0000000    eV*rad^-3 
--------------------------------------------------------------------------------
Si    core    Harmonic      Three-body cnst  1.2614000    eV*rad^-2 0.000  1.900
õ(2   shel                  Three-body angl  109.47000    degrees   0.000  1.900
õ(2   shel                  Three-body k4    0.0000000    eV*rad^-4 0.000  3.500
                            Three-body k3    0.0000000    eV*rad^-3 
--------------------------------------------------------------------------------

********************************************************************************
*  Output for configuration   1 : c00048.vasp                                  *
********************************************************************************


  Components of energy : 

--------------------------------------------------------------------------------
  Interatomic potentials     =         768.32008182 eV    
  Three-body potentials      =           0.01185916 eV    
  Monopole - monopole (real) =       -2676.00317478 eV    
  Monopole - monopole (recip)=       -1115.35404472 eV    
  Monopole - monopole (total)=       -3791.35721950 eV    
--------------------------------------------------------------------------------
  Total lattice energy       =       -3023.02527852 eV    
--------------------------------------------------------------------------------
  Total lattice energy       =         -291675.7282 kJ/(mole unit cells)
--------------------------------------------------------------------------------


  Number of variables =      363

  Maximum number of calculations  =          1000
  Maximum Hessian update interval =            10
  Maximum step size               =   0.100000000
  Maximum parameter tolerance     =   0.000010000
  Maximum function  tolerance     =   0.000010000
  Maximum gradient  tolerance     =   0.001000000
  Maximum gradient  component     =   0.010000000

  Symmetry not applied to optimisation

  Cell parameters to be optimised using strains

  Newton-Raphson optimiser to be used

  BFGS hessian update to be used

  Lower half triangular hessian to be used

  Minimiser to switch to RFO
  When gradient norm is less than     0.050000

  Dumpfile to be written after every cycle

  Start of bulk optimisation :

  Cycle:      0 Energy:     -3023.025279  Gnorm:      4.458792  CPU:    0.141
  ** Hessian calculated **
  Cycle:      1 Energy:     -3054.252567  Gnorm:      1.011028  CPU:    0.297
  ** Hessian calculated **
  Cycle:      2 Energy:     -3057.690446  Gnorm:      0.680740  CPU:    0.578
  ** Hessian calculated **
  Cycle:      3 Energy:     -3059.218519  Gnorm:      0.483091  CPU:    0.820
  ** Hessian calculated **
  Cycle:      4 Energy:     -3060.295573  Gnorm:      0.289055  CPU:    1.058
  ** Hessian calculated **
  Cycle:      5 Energy:     -3060.506497  Gnorm:      0.162155  CPU:    1.298
  Cycle:      6 Energy:     -3060.577407  Gnorm:      0.109516  CPU:    1.417
  Cycle:      7 Energy:     -3060.645558  Gnorm:      0.088049  CPU:    1.560
  Cycle:      8 Energy:     -3060.712630  Gnorm:      0.069704  CPU:    1.704
  Cycle:      9 Energy:     -3060.754743  Gnorm:      0.057657  CPU:    1.831
  Cycle:     10 Energy:     -3060.780287  Gnorm:      0.043543  CPU:    1.952
  ** Hessian has required structure
  Cycle:     11 Energy:     -3060.786392  Gnorm:      0.054012  CPU:    2.131
  ** Hessian has required structure
  Cycle:     12 Energy:     -3060.793624  Gnorm:      0.051662  CPU:    2.303
  ** Hessian has required structure
  Cycle:     13 Energy:     -3060.800277  Gnorm:      0.057285  CPU:    2.521
  ** Hessian has required structure
  Cycle:     14 Energy:     -3060.807857  Gnorm:      0.063045  CPU:    2.705
  ** Hessian has wrong structure
  ** Imaginary eigenvectors =   3
  ** Hessian has wrong structure
  ** Imaginary eigenvectors =   3
  Cycle:     15 Energy:     -3060.841752  Gnorm:      0.066981  CPU:    3.450
  ** Hessian has wrong structure
  ** Imaginary eigenvectors =   3
  ** Hessian has wrong structure
  ** Imaginary eigenvectors =   2
  Cycle:     16 Energy:     -3060.882824  Gnorm:      0.070163  CPU:    4.141
  ** Hessian has wrong structure
  ** Imaginary eigenvectors =   1
  ** Hessian has required structure
  Cycle:     17 Energy:     -3061.009422  Gnorm:      0.058311  CPU:    4.808
  ** Hessian has required structure
  Cycle:     18 Energy:     -3061.158116  Gnorm:      0.049585  CPU:    5.031
  ** Hessian has required structure
  Cycle:     19 Energy:     -3061.189531  Gnorm:      0.038399  CPU:    5.212
  ** Hessian has required structure
  Cycle:     20 Energy:     -3061.229732  Gnorm:      0.035431  CPU:    5.417
  ** Hessian has required structure
  Cycle:     21 Energy:     -3061.271884  Gnorm:      0.046082  CPU:    5.597
  ** Hessian has required structure
  Cycle:     22 Energy:     -3061.296973  Gnorm:      0.034893  CPU:    5.798
  ** Hessian has required structure
  Cycle:     23 Energy:     -3061.310206  Gnorm:      0.027875  CPU:    5.973
  ** Hessian has required structure
  Cycle:     24 Energy:     -3061.328540  Gnorm:      0.019634  CPU:    6.171
  ** Hessian has required structure
  Cycle:     25 Energy:     -3061.342610  Gnorm:      0.019093  CPU:    6.370
  ** Hessian has required structure
  Cycle:     26 Energy:     -3061.348869  Gnorm:      0.018936  CPU:    6.547
  ** Hessian has required structure
  Cycle:     27 Energy:     -3061.362923  Gnorm:      0.012657  CPU:    6.880
  ** Hessian has required structure
  Cycle:     28 Energy:     -3061.368478  Gnorm:      0.008512  CPU:    7.080
  ** Hessian has required structure
  Cycle:     29 Energy:     -3061.371200  Gnorm:      0.004559  CPU:    7.284
  ** Hessian has required structure
  Cycle:     30 Energy:     -3061.372193  Gnorm:      0.004425  CPU:    7.472
  ** Hessian has required structure
  Cycle:     31 Energy:     -3061.372817  Gnorm:      0.000986  CPU:    7.662
  ** Hessian has required structure
  Cycle:     32 Energy:     -3061.373074  Gnorm:      0.001162  CPU:    7.854
  ** Hessian has required structure
  Cycle:     33 Energy:     -3061.373144  Gnorm:      0.000938  CPU:    8.067
  ** Hessian has required structure
  Cycle:     34 Energy:     -3061.373178  Gnorm:      0.000590  CPU:    8.275
  ** Hessian has required structure
  Cycle:     35 Energy:     -3061.373192  Gnorm:      0.000393  CPU:    8.476
  ** Hessian has required structure
  Cycle:     36 Energy:     -3061.373195  Gnorm:      0.000221  CPU:    8.641
  ** Hessian has required structure
  Cycle:     37 Energy:     -3061.373198  Gnorm:      0.000110  CPU:    8.959
  ** Hessian has required structure
  Cycle:     38 Energy:     -3061.373198  Gnorm:      0.000077  CPU:    9.133
  ** Hessian has required structure


  **** Optimisation achieved ****


  Final energy =   -3061.37319839 eV      
  Final Gnorm  =       0.00005410

  Components of energy : 

--------------------------------------------------------------------------------
  Interatomic potentials     =         814.33524614 eV    
  Three-body potentials      =           0.20014573 eV    
  Monopole - monopole (real) =       -2171.84953632 eV    
  Monopole - monopole (recip)=       -1704.05905393 eV    
  Monopole - monopole (total)=       -3875.90859025 eV    
--------------------------------------------------------------------------------
  Total lattice energy       =       -3061.37319839 eV    
--------------------------------------------------------------------------------
  Total lattice energy       =         -295375.7163 kJ/(mole unit cells)
--------------------------------------------------------------------------------

  Final fractional coordinates of atoms :

--------------------------------------------------------------------------------
   No.  Atomic        x           y          z          Radius
        Label       (Frac)      (Frac)     (Frac)       (Angs) 
--------------------------------------------------------------------------------
     1  Ge    c     0.052090    0.000000    0.372270    0.000000
     2  Ge    c     0.457655    0.981778    0.385747    0.000000
     3  Ge    c     0.155234    0.314358    0.286491    0.000000
     4  Ge    c     0.852790    0.310220    0.039783    0.000000
     5  Si    c     0.950389    0.986794    0.629630    0.000000
     6  Si    c     0.553466    0.984680    0.656064    0.000000
     7  Si    c     0.562345    0.992578    0.137874    0.000000
     8  Si    c     0.952665    0.995926    0.111573    0.000000
     9  Si    c     0.446687    0.984457    0.904325    0.000000
    10  Si    c     0.061412    0.997797    0.870089    0.000000
    11  Si    c     0.352803    0.674927    0.284053    0.000000
    12  Si    c     0.847289    0.292576    0.727314    0.000000
    13  Si    c     0.660173    0.679026    0.724826    0.000000
    14  Si    c     0.837597    0.695660    0.725498    0.000000
    15  Si    c     0.669580    0.276572    0.729217    0.000000
    16  Si    c     0.173872    0.723558    0.285332    0.000000
    17  Si    c     0.336592    0.271621    0.284089    0.000000
    18  Si    c     0.671110    0.284618    0.035695    0.000000
    19  Si    c     0.837198    0.711906    0.032277    0.000000
    20  Si    c     0.334793    0.276057    0.978937    0.000000
    21  Si    c     0.170448    0.709928    0.981163    0.000000
    22  Si    c     0.349467    0.674620    0.981500    0.000000
    23  Si    c     0.156100    0.307025    0.977125    0.000000
    24  Si    c     0.659274    0.682005    0.029705    0.000000
    25  O1    c     0.088187    0.207021    0.376284    0.000000
    26  O3    c     0.413546    0.780600    0.369702    0.000000
    27  O2    c     0.904611    0.170712    0.643127    0.000000
    28  O2    c     0.600754    0.800711    0.644239    0.000000
    29  O2    c     0.892069    0.825789    0.648444    0.000000
    30  O2    c     0.615063    0.143126    0.650079    0.000000
    31  O3    c     0.132612    0.863129    0.376878    0.000000
    32  O3    c     0.389343    0.143696    0.366748    0.000000
    33  O3    c     0.982775    0.967464    0.486281    0.000000
    34  O3    c     0.491516    0.999939    0.543040    0.000000
    35  O3    c     0.009386    0.943168    0.224917    0.000000
    36  O3    c     0.535714    0.002007    0.285033    0.000000
    37  O2    c     0.025103    0.980335    0.725893    0.000000
    38  O2    c     0.508360    0.997684    0.791747    0.000000
    39  O2    c     0.620923    0.151224    0.116904    0.000000
    40  O2    c     0.877684    0.869945    0.108896    0.000000
    41  O2    c     0.382212    0.138205    0.890979    0.000000
    42  O2    c     0.125038    0.844049    0.888226    0.000000
    43  O2    c     0.404933    0.795105    0.895532    0.000000
    44  O2    c     0.100692    0.189266    0.884202    0.000000
    45  O2    c     0.603237    0.805412    0.112522    0.000000
    46  O3    c     0.919173    0.191618    0.129296    0.000000
    47  O2    c     0.487887    0.012676    0.044017    0.000000
    48  O2    c     0.993563    0.974431    0.972341    0.000000
    49  O3    c     0.138906    0.533691    0.310080    0.000000
    50  O2    c     0.366503    0.469456    0.306179    0.000000
    51  O2    c     0.865404    0.496202    0.698491    0.000000
    52  O2    c     0.641316    0.474703    0.698920    0.000000
    53  O3    c     0.248677    0.256759    0.329776    0.000000
    54  O2    c     0.264968    0.724258    0.321689    0.000000
    55  O2    c     0.758455    0.251759    0.685257    0.000000
    56  O2    c     0.747964    0.718806    0.680552    0.000000
    57  O3    c     0.140629    0.253432    0.124373    0.000000
    58  O2    c     0.365082    0.723260    0.132547    0.000000
    59  O3    c     0.861632    0.251884    0.877662    0.000000
    60  O2    c     0.649966    0.725565    0.877216    0.000000
    61  O2    c     0.843674    0.739724    0.877807    0.000000
    62  O2    c     0.666453    0.236451    0.882559    0.000000
    63  O2    c     0.162049    0.768409    0.131698    0.000000
    64  O2    c     0.340967    0.224039    0.130277    0.000000
    65  O2    c     0.637111    0.481082    0.057031    0.000000
    66  O3    c     0.875311    0.527204    0.067480    0.000000
    67  O2    c     0.368701    0.470189    0.954932    0.000000
    68  O2    c     0.136787    0.513782    0.959638    0.000000
    69  O3    c     0.758625    0.273968    0.085728    0.000000
    70  O2    c     0.747668    0.713199    0.074288    0.000000
    71  O2    c     0.244836    0.270847    0.936637    0.000000
    72  O2    c     0.260450    0.713257    0.942412    0.000000
    73  O1    s     0.090554    0.199028    0.369037    0.000000
    74  O3    s     0.410708    0.785928    0.361890    0.000000
    75  O2    s     0.903259    0.164331    0.650868    0.000000
    76  O2    s     0.602346    0.806386    0.654174    0.000000
    77  O2    s     0.892197    0.828515    0.655244    0.000000
    78  O2    s     0.614663    0.141338    0.659556    0.000000
    79  O3    s     0.130504    0.859435    0.367023    0.000000
    80  O3    s     0.389493    0.143661    0.359391    0.000000
    81  O3    s     0.985468    0.972431    0.491518    0.000000
    82  O3    s     0.495456    0.996669    0.541956    0.000000
    83  O3    s     0.006546    0.953685    0.224349    0.000000
    84  O3    s     0.531933    0.999291    0.278010    0.000000
    85  O2    s     0.021219    0.982968    0.731549    0.000000
    86  O2    s     0.506100    0.994684    0.790065    0.000000
    87  O2    s     0.620192    0.148881    0.109814    0.000000
    88  O2    s     0.880958    0.865265    0.100426    0.000000
    89  O2    s     0.383796    0.137125    0.902026    0.000000
    90  O2    s     0.123263    0.845661    0.896644    0.000000
    91  O2    s     0.403288    0.801771    0.905738    0.000000
    92  O2    s     0.102495    0.181869    0.892643    0.000000
    93  O2    s     0.605219    0.811542    0.105736    0.000000
    94  O3    s     0.917004    0.182553    0.120406    0.000000
    95  O2    s     0.491508    0.007437    0.039115    0.000000
    96  O2    s     0.996808    0.979353    0.975844    0.000000
    97  O3    s     0.143792    0.534177    0.305613    0.000000
    98  O2    s     0.361809    0.470920    0.301365    0.000000
    99  O2    s     0.860543    0.495946    0.704343    0.000000
   100  O2    s     0.646314    0.475691    0.704860    0.000000
   101  O3    s     0.249814    0.262905    0.321722    0.000000
   102  O2    s     0.264681    0.718917    0.313753    0.000000
   103  O2    s     0.758275    0.258720    0.694304    0.000000
   104  O2    s     0.748174    0.712162    0.689882    0.000000
   105  O3    s     0.143266    0.263402    0.122232    0.000000
   106  O2    s     0.362146    0.713166    0.132165    0.000000
   107  O3    s     0.859461    0.260724    0.875556    0.000000
   108  O2    s     0.652061    0.715967    0.877340    0.000000
   109  O2    s     0.842251    0.731763    0.877540    0.000000
   110  O2    s     0.667296    0.245945    0.882368    0.000000
   111  O2    s     0.164150    0.757772    0.131233    0.000000
   112  O2    s     0.339853    0.234539    0.130071    0.000000
   113  O2    s     0.643000    0.482169    0.051860    0.000000
   114  O3    s     0.869686    0.528147    0.061739    0.000000
   115  O2    s     0.363103    0.471619    0.960269    0.000000
   116  O2    s     0.142272    0.512731    0.963671    0.000000
   117  O3    s     0.757427    0.278026    0.076858    0.000000
   118  O2    s     0.747696    0.709582    0.064855    0.000000
   119  O2    s     0.245128    0.275369    0.945542    0.000000
   120  O2    s     0.260305    0.708635    0.950855    0.000000
--------------------------------------------------------------------------------

  Final Cartesian lattice vectors (Angstroms) :

       17.255901    0.054319   -0.098607
        0.023813    7.630987   -0.039813
       -0.061277   -0.057117   10.256000


  Final cell parameters and derivatives :

--------------------------------------------------------------------------------
       a           17.256269 Angstrom     dE/de1(xx)     0.000164 eV/strain
       b            7.631128 Angstrom     dE/de2(yy)    -0.000397 eV/strain
       c           10.256342 Angstrom     dE/de3(zz)    -0.002951 eV/strain
       alpha       90.619066 Degrees      dE/de4(yz)     0.000025 eV/strain
       beta        90.670721 Degrees      dE/de5(xz)     0.000111 eV/strain
       gamma       89.639146 Degrees      dE/de6(xy)     0.000420 eV/strain
--------------------------------------------------------------------------------

  Primitive cell volume =          1350.407173 Angs**3

  Density of cell =      1.992373 g/cm**3

  Non-primitive cell volume =          1350.407173 Angs**3


  Final internal derivatives :

--------------------------------------------------------------------------------
   No.  Atomic          a             b             c           Radius
        Label          (eV)          (eV)          (eV)        (eV/Angs)
--------------------------------------------------------------------------------
      1 Ge    c       0.000000      0.000000      0.000000      0.000000
      2 Ge    c       0.000471     -0.000894      0.000230      0.000000
      3 Ge    c      -0.000314      0.000259     -0.000777      0.000000
      4 Ge    c      -0.000838      0.001622     -0.000202      0.000000
      5 Si    c       0.000418      0.000077      0.000239      0.000000
      6 Si    c      -0.001110      0.000006      0.000160      0.000000
      7 Si    c      -0.000006     -0.000012     -0.000121      0.000000
      8 Si    c       0.000731      0.000304      0.000244      0.000000
      9 Si    c      -0.000100      0.000176     -0.000571      0.000000
     10 Si    c       0.000479     -0.000200     -0.000439      0.000000
     11 Si    c       0.001144      0.000289     -0.000155      0.000000
     12 Si    c       0.000189      0.000468      0.000875      0.000000
     13 Si    c       0.000064      0.000093      0.000236      0.000000
     14 Si    c       0.000479     -0.000455      0.001927      0.000000
     15 Si    c       0.000434     -0.000036      0.000254      0.000000
     16 Si    c      -0.003101      0.000463     -0.001585      0.000000
     17 Si    c       0.001868     -0.000548     -0.002951      0.000000
     18 Si    c       0.001731      0.000149      0.000305      0.000000
     19 Si    c      -0.001282     -0.001375     -0.001102      0.000000
     20 Si    c       0.000700     -0.000297      0.000359      0.000000
     21 Si    c      -0.000532      0.000031      0.000327      0.000000
     22 Si    c       0.000602     -0.000034      0.000038      0.000000
     23 Si    c       0.000099      0.000099      0.000578      0.000000
     24 Si    c       0.001488     -0.000110      0.000170      0.000000
     25 O1    c      -0.000666     -0.000228      0.000532      0.000000
     26 O3    c      -0.000084     -0.000223     -0.000040      0.000000
     27 O2    c      -0.000021     -0.000026     -0.000150      0.000000
     28 O2    c      -0.000262      0.000113     -0.000014      0.000000
     29 O2    c       0.000021      0.000072     -0.000093      0.000000
     30 O2    c      -0.000505     -0.000214     -0.000200      0.000000
     31 O3    c       0.000698      0.000339      0.001454      0.000000
     32 O3    c       0.000378      0.000300      0.002273      0.000000
     33 O3    c       0.000064      0.000081      0.000017      0.000000
     34 O3    c       0.001050      0.000051      0.001022      0.000000
     35 O3    c      -0.001496      0.000067     -0.001386      0.000000
     36 O3    c       0.000933      0.000129     -0.000397      0.000000
     37 O2    c      -0.000181     -0.000018     -0.000105      0.000000
     38 O2    c      -0.000191     -0.000039     -0.000172      0.000000
     39 O2    c       0.000161      0.000058     -0.000071      0.000000
     40 O2    c      -0.000772     -0.000124     -0.000053      0.000000
     41 O2    c      -0.000293      0.000164      0.000014      0.000000
     42 O2    c       0.000302     -0.000157     -0.000116      0.000000
     43 O2    c      -0.000530     -0.000424      0.000050      0.000000
     44 O2    c       0.000430      0.000469      0.000057      0.000000
     45 O2    c      -0.000036     -0.000031      0.000093      0.000000
     46 O3    c       0.000169     -0.000201      0.000250      0.000000
     47 O2    c      -0.000441      0.000185      0.000110      0.000000
     48 O2    c      -0.000853     -0.000019      0.000422      0.000000
     49 O3    c      -0.002827     -0.002880      0.000657      0.000000
     50 O2    c       0.002335      0.002611      0.000890      0.000000
     51 O2    c      -0.001572      0.000283      0.001045      0.000000
     52 O2    c       0.000361      0.000002      0.000330      0.000000
     53 O3    c      -0.007637     -0.000861      0.002073      0.000000
     54 O2    c       0.007001      0.000754      0.001120      0.000000
     55 O2    c      -0.000107      0.000106      0.000339      0.000000
     56 O2    c       0.000563     -0.000227      0.000428      0.000000
     57 O3    c       0.001766     -0.000055     -0.001440      0.000000
     58 O2    c      -0.000093      0.000223     -0.000428      0.000000
     59 O3    c      -0.000634      0.000345     -0.000317      0.000000
     60 O2    c       0.000679     -0.000158      0.000158      0.000000
     61 O2    c      -0.001857     -0.000234      0.000612      0.000000
     62 O2    c       0.000089      0.000058     -0.000187      0.000000
     63 O2    c       0.000348      0.000038     -0.000113      0.000000
     64 O2    c      -0.001830      0.000027      0.000680      0.000000
     65 O2    c       0.001506      0.000041     -0.000739      0.000000
     66 O3    c      -0.004808      0.000258     -0.003057      0.000000
     67 O2    c       0.000668      0.000558     -0.000135      0.000000
     68 O2    c      -0.000442     -0.000839      0.000001      0.000000
     69 O3    c      -0.001280      0.000533     -0.000930      0.000000
     70 O2    c       0.002430     -0.000495     -0.001333      0.000000
     71 O2    c      -0.002463      0.000155     -0.000140      0.000000
     72 O2    c       0.000554      0.000254     -0.000232      0.000000
     73 O1    s       0.000512      0.000638     -0.000299      0.000000
     74 O3    s      -0.000226     -0.000226      0.000201      0.000000
     75 O2    s      -0.000280      0.000260      0.000282      0.000000
     76 O2    s       0.000473     -0.000171      0.000183      0.000000
     77 O2    s      -0.000551     -0.000640      0.000565      0.000000
     78 O2    s       0.000260      0.000186      0.000251      0.000000
     79 O3    s      -0.002288      0.000489     -0.000334      0.000000
     80 O3    s       0.001249     -0.000670     -0.001036      0.000000
     81 O3    s      -0.000585     -0.000180     -0.000035      0.000000
     82 O3    s       0.000564     -0.000121     -0.000012      0.000000
     83 O3    s       0.000215     -0.000214      0.000678      0.000000
     84 O3    s       0.000625     -0.000131      0.000483      0.000000
     85 O2    s      -0.000427      0.000004     -0.000080      0.000000
     86 O2    s       0.000688      0.000063     -0.000244      0.000000
     87 O2    s       0.000736      0.000521      0.000042      0.000000
     88 O2    s      -0.000267     -0.001154     -0.000408      0.000000
     89 O2    s       0.000316     -0.000126      0.000015      0.000000
     90 O2    s      -0.000155      0.000107      0.000011      0.000000
     91 O2    s       0.000113     -0.000040     -0.000191      0.000000
     92 O2    s       0.000449      0.000162      0.000137      0.000000
     93 O2    s       0.001137     -0.000515     -0.000205      0.000000
     94 O3    s      -0.000384      0.000444     -0.000310      0.000000
     95 O2    s       0.000484     -0.000155     -0.000282      0.000000
     96 O2    s      -0.000536     -0.000080     -0.000001      0.000000
     97 O3    s      -0.000767     -0.000058      0.000126      0.000000
     98 O2    s       0.000757      0.000446     -0.000016      0.000000
     99 O2    s      -0.002199      0.000457      0.001351      0.000000
    100 O2    s       0.001794      0.000128      0.000970      0.000000
    101 O3    s       0.000845     -0.000258     -0.000200      0.000000
    102 O2    s       0.000556      0.000419      0.000509      0.000000
    103 O2    s       0.000197      0.001058      0.000951      0.000000
    104 O2    s       0.001064     -0.001135      0.001583      0.000000
    105 O3    s      -0.000533      0.000011      0.000198      0.000000
    106 O2    s       0.000348      0.000088      0.000087      0.000000
    107 O3    s      -0.001175      0.000678     -0.000050      0.000000
    108 O2    s       0.001738     -0.000852      0.000329      0.000000
    109 O2    s      -0.002511     -0.001408      0.000780      0.000000
    110 O2    s       0.001341      0.000988      0.000219      0.000000
    111 O2    s      -0.001843      0.000731     -0.001002      0.000000
    112 O2    s       0.001653     -0.000942     -0.001198      0.000000
    113 O2    s       0.001861      0.000169     -0.001010      0.000000
    114 O3    s      -0.001449      0.001173     -0.000865      0.000000
    115 O2    s       0.000261      0.000130     -0.000181      0.000000
    116 O2    s       0.000243     -0.000383      0.000105      0.000000
    117 O3    s       0.000236      0.000659     -0.001047      0.000000
    118 O2    s       0.001251     -0.001424     -0.002038      0.000000
    119 O2    s      -0.000618      0.000111     -0.000124      0.000000
    120 O2    s       0.000515     -0.000026     -0.000248      0.000000
--------------------------------------------------------------------------------
  Maximum abs         0.007637      0.002880      0.003057      0.000000
--------------------------------------------------------------------------------


  Born effective charge tensors : 

-------------------------------------------------------------------------------
  Atom             x           y             z
-------------------------------------------------------------------------------
    1 Ge    x       4.2067      0.3365     -0.1253
            y      -0.1359      3.8981     -0.0061
            z      -0.9021     -0.0352      4.5003
-------------------------------------------------------------------------------
    2 Ge    x       4.1596      0.1647      0.4146
            y      -0.1205      3.8965     -0.0079
            z       0.3072      0.0691      4.6966
-------------------------------------------------------------------------------
    3 Ge    x       3.9933      0.2772     -0.1632
            y       0.3860      4.1373     -0.2609
            z      -0.2679     -0.0867      3.5238
-------------------------------------------------------------------------------
    4 Ge    x       4.0256     -0.3229      0.1316
            y      -0.3365      4.1592     -0.2099
            z       0.2024     -0.0333      3.2796
-------------------------------------------------------------------------------
    5 Si    x       3.5815     -0.0625     -0.4480
            y       0.0894      3.2866      0.0041
            z      -0.3956      0.1009      4.2036
-------------------------------------------------------------------------------
    6 Si    x       3.7109     -0.1104      0.1637
            y       0.0620      3.2985     -0.0267
            z       0.8817     -0.0942      4.0378
-------------------------------------------------------------------------------
    7 Si    x       3.5609     -0.0832     -0.4639
            y       0.1077      3.3077      0.0150
            z      -0.4437      0.0515      3.5703
-------------------------------------------------------------------------------
    8 Si    x       3.7956     -0.4060      0.1878
            y       0.0119      3.5362     -0.0357
            z       0.7339     -0.2637      3.3058
-------------------------------------------------------------------------------
    9 Si    x       3.5370      0.1269     -0.0551
            y      -0.1178      3.2689     -0.0215
            z      -0.6221     -0.0451      2.9345
-------------------------------------------------------------------------------
   10 Si    x       3.5338      0.1166      0.3494
            y      -0.1187      3.2671     -0.0168
            z       0.4074      0.0262      3.0709
-------------------------------------------------------------------------------
   11 Si    x       3.4004      0.3288      0.2530
            y       0.4231      3.4886      0.3097
            z       0.2903      0.1586      3.0053
-------------------------------------------------------------------------------
   12 Si    x       3.2768     -0.2737      0.0038
            y      -0.3030      3.5195      0.0890
            z      -0.0686      0.0029      3.0818
-------------------------------------------------------------------------------
   13 Si    x       3.1944     -0.2533      0.0316
            y      -0.2762      3.4348     -0.1648
            z       0.0913     -0.0528      2.7739
-------------------------------------------------------------------------------
   14 Si    x       3.2175      0.2893     -0.0867
            y       0.2135      3.4399     -0.1370
            z      -0.1559     -0.0745      2.7567
-------------------------------------------------------------------------------
   15 Si    x       3.1808      0.3000      0.0627
            y       0.1970      3.4606      0.1369
            z       0.1146      0.0484      2.7545
-------------------------------------------------------------------------------
   16 Si    x       3.3994     -0.3839     -0.2672
            y      -0.1185      3.8983      0.2910
            z      -0.2076      0.1580      3.0710
-------------------------------------------------------------------------------
   17 Si    x       3.6801     -0.4138      0.1318
            y      -0.3091      3.6676     -0.3356
            z       0.1837     -0.2247      3.0670
-------------------------------------------------------------------------------
   18 Si    x       3.5530      0.2920     -0.0100
            y       0.1210      3.5001     -0.2069
            z      -0.0748     -0.0984      2.8095
-------------------------------------------------------------------------------
   19 Si    x       3.2991      0.2606      0.1394
            y      -0.0564      3.6932      0.0273
            z       0.1567      0.0036      2.7637
-------------------------------------------------------------------------------
   20 Si    x       3.2566     -0.3584     -0.1372
            y      -0.1348      3.4518      0.1728
            z      -0.1238      0.0337      2.6639
-------------------------------------------------------------------------------
   21 Si    x       3.2683     -0.3360      0.1897
            y      -0.1237      3.4510     -0.2012
            z       0.1495     -0.0529      2.7152
-------------------------------------------------------------------------------
   22 Si    x       3.2802      0.2773     -0.1189
            y       0.2516      3.4298     -0.1944
            z      -0.1159     -0.0504      2.6660
-------------------------------------------------------------------------------
   23 Si    x       3.3534      0.3006      0.0857
            y       0.2889      3.5500      0.1664
            z       0.0949     -0.0194      2.9748
-------------------------------------------------------------------------------
   24 Si    x       3.2207     -0.2542     -0.1287
            y      -0.2194      3.3627      0.1729
            z      -0.1797      0.0511      2.7257
-------------------------------------------------------------------------------
   25 O1    x      -2.0836     -0.9310      0.4411
            y      -0.8906     -2.5826      0.4325
            z       0.5740      0.4328     -1.6960
-------------------------------------------------------------------------------
   26 O3    x      -2.0365     -0.9393     -0.5563
            y      -0.9055     -2.3346     -0.5239
            z      -0.5704     -0.5241     -1.6409
-------------------------------------------------------------------------------
   27 O2    x      -1.6689      0.6961      0.3072
            y       0.6742     -2.0151     -0.3125
            z       0.3255     -0.3183     -1.3357
-------------------------------------------------------------------------------
   28 O2    x      -1.6701      0.7112     -0.2285
            y       0.6858     -2.0088      0.2422
            z      -0.3384      0.2594     -1.3274
-------------------------------------------------------------------------------
   29 O2    x      -1.7436     -0.7354      0.3402
            y      -0.7574     -1.9818      0.3457
            z       0.3722      0.3492     -1.3304
-------------------------------------------------------------------------------
   30 O2    x      -1.7496     -0.7323     -0.2172
            y      -0.7574     -1.9744     -0.2562
            z      -0.3246     -0.2520     -1.3001
-------------------------------------------------------------------------------
   31 O3    x      -2.1310      0.8811      0.4344
            y       0.9348     -2.1880     -0.5183
            z       0.4924     -0.4772     -1.6496
-------------------------------------------------------------------------------
   32 O3    x      -2.0994      0.9603     -0.5469
            y       1.0144     -2.3411      0.5657
            z      -0.5657      0.5456     -1.6317
-------------------------------------------------------------------------------
   33 O3    x      -1.9320     -0.0461      1.0381
            y      -0.0264     -1.1993      0.0231
            z       1.3233      0.0264     -3.4120
-------------------------------------------------------------------------------
   34 O3    x      -1.9932      0.0162     -1.1189
            y       0.0281     -1.2163      0.0207
            z      -1.3758      0.0149     -3.4336
-------------------------------------------------------------------------------
   35 O3    x      -1.9974      0.0966     -0.9427
            y       0.0826     -1.2823      0.0670
            z      -0.9121      0.0767     -2.6911
-------------------------------------------------------------------------------
   36 O3    x      -1.9710     -0.0340      0.8976
            y      -0.0370     -1.2240      0.0190
            z       0.8955      0.0121     -2.8701
-------------------------------------------------------------------------------
   37 O2    x      -1.8289     -0.0296     -0.6943
            y       0.0048     -1.1108     -0.0181
            z      -0.6867     -0.0485     -2.1385
-------------------------------------------------------------------------------
   38 O2    x      -1.8094     -0.0183      0.7583
            y      -0.0060     -1.1320      0.0177
            z       0.7556      0.0249     -2.1354
-------------------------------------------------------------------------------
   39 O2    x      -1.7073     -0.7082      0.3637
            y      -0.6740     -1.9735      0.3800
            z       0.3473      0.3545     -1.2654
-------------------------------------------------------------------------------
   40 O2    x      -1.8186     -0.6527     -0.2242
            y      -0.6520     -1.8480     -0.2602
            z      -0.3128     -0.2502     -1.2058
-------------------------------------------------------------------------------
   41 O2    x      -1.7779      0.7347      0.2440
            y       0.7183     -1.9426     -0.2896
            z       0.3180     -0.2692     -1.2023
-------------------------------------------------------------------------------
   42 O2    x      -1.7679      0.7361     -0.4239
            y       0.6915     -1.9445      0.4322
            z      -0.3700      0.3698     -1.2802
-------------------------------------------------------------------------------
   43 O2    x      -1.6869     -0.7283      0.2861
            y      -0.6357     -2.0238      0.3042
            z       0.3484      0.2991     -1.2067
-------------------------------------------------------------------------------
   44 O2    x      -1.6873     -0.7190     -0.3696
            y      -0.6194     -2.0482     -0.3742
            z      -0.3486     -0.3409     -1.2458
-------------------------------------------------------------------------------
   45 O2    x      -1.6583      0.6878      0.3666
            y       0.6105     -2.0086     -0.3831
            z       0.3534     -0.3598     -1.2573
-------------------------------------------------------------------------------
   46 O3    x      -1.9460      0.8644     -0.2855
            y       0.7873     -2.5407      0.2543
            z      -0.3737      0.2590     -1.3632
-------------------------------------------------------------------------------
   47 O2    x      -1.8800      0.0015     -0.5730
            y       0.0195     -1.1726     -0.0159
            z      -0.3109     -0.0264     -1.6615
-------------------------------------------------------------------------------
   48 O2    x      -1.8287     -0.0257      0.5892
            y      -0.0290     -1.1721      0.0228
            z       0.3331      0.0354     -1.7061
-------------------------------------------------------------------------------
   49 O3    x      -1.3662     -0.1888      0.0863
            y      -0.2640     -3.0569      0.0597
            z       0.1145      0.0849     -1.2112
-------------------------------------------------------------------------------
   50 O2    x      -1.1760     -0.0382     -0.0601
            y      -0.0951     -2.4693      0.0066
            z      -0.0789      0.0133     -1.0988
-------------------------------------------------------------------------------
   51 O2    x      -1.1826      0.0425      0.0475
            y       0.0768     -2.5661     -0.0121
            z       0.0770     -0.0046     -1.0562
-------------------------------------------------------------------------------
   52 O2    x      -1.1621      0.0276     -0.0494
            y       0.0735     -2.5582      0.0307
            z      -0.0762      0.0077     -1.0582
-------------------------------------------------------------------------------
   53 O3    x      -2.9368      0.1174      0.1155
            y       0.0507     -1.3887      0.0870
            z       0.1120      0.0520     -1.2544
-------------------------------------------------------------------------------
   54 O2    x      -2.3346      0.1655      0.0006
            y       0.1137     -1.2544     -0.0695
            z       0.0102     -0.0424     -1.1152
-------------------------------------------------------------------------------
   55 O2    x      -2.3813     -0.0563      0.0430
            y      -0.0179     -1.2548     -0.0619
            z       0.0511     -0.0406     -1.0707
-------------------------------------------------------------------------------
   56 O2    x      -2.3801     -0.0559      0.0100
            y      -0.0340     -1.2358      0.0670
            z       0.0065      0.0453     -1.0857
-------------------------------------------------------------------------------
   57 O3    x      -1.3590     -0.1637      0.0141
            y      -0.1546     -1.4596      0.0584
            z       0.0245      0.0391     -2.5657
-------------------------------------------------------------------------------
   58 O2    x      -1.2093     -0.1344      0.0216
            y      -0.1246     -1.2849      0.0190
            z       0.0247      0.0313     -2.0303
-------------------------------------------------------------------------------
   59 O3    x      -1.3423      0.1546     -0.1123
            y       0.1433     -1.4323      0.0562
            z      -0.0971      0.0098     -2.6060
-------------------------------------------------------------------------------
   60 O2    x      -1.1830      0.1219      0.0325
            y       0.1088     -1.2666     -0.0046
            z       0.0377      0.0040     -2.0599
-------------------------------------------------------------------------------
   61 O2    x      -1.1891     -0.1210     -0.0209
            y      -0.0736     -1.2556     -0.0428
            z       0.0051     -0.0590     -2.0519
-------------------------------------------------------------------------------
   62 O2    x      -1.1634     -0.1111      0.0591
            y      -0.0698     -1.2936     -0.0156
            z       0.0315     -0.0093     -2.0605
-------------------------------------------------------------------------------
   63 O2    x      -1.2118      0.1347     -0.0356
            y       0.0848     -1.2936     -0.0319
            z      -0.0534     -0.0337     -2.0564
-------------------------------------------------------------------------------
   64 O2    x      -1.1847      0.1247     -0.0011
            y       0.0756     -1.3161     -0.0048
            z       0.0119     -0.0042     -2.0457
-------------------------------------------------------------------------------
   65 O2    x      -1.2160      0.0182      0.0735
            y       0.0649     -2.5044      0.0306
            z       0.0976      0.0266     -1.0286
-------------------------------------------------------------------------------
   66 O3    x      -1.4354      0.1875     -0.1239
            y       0.2405     -3.0654      0.1082
            z      -0.1577      0.1213     -1.1586
-------------------------------------------------------------------------------
   67 O2    x      -1.2307     -0.0538      0.0756
            y      -0.1220     -2.5222     -0.0009
            z       0.0891     -0.0098     -1.0032
-------------------------------------------------------------------------------
   68 O2    x      -1.2547     -0.0651     -0.0735
            y      -0.1199     -2.5707     -0.0456
            z      -0.0900     -0.0217     -0.9997
-------------------------------------------------------------------------------
   69 O3    x      -3.0315     -0.0853     -0.1030
            y      -0.0347     -1.3723      0.0857
            z      -0.0926      0.0463     -1.2147
-------------------------------------------------------------------------------
   70 O2    x      -2.3862     -0.1270      0.0069
            y      -0.0744     -1.2294     -0.0518
            z       0.0010     -0.0273     -1.0686
-------------------------------------------------------------------------------
   71 O2    x      -2.4407      0.0988     -0.0333
            y       0.0401     -1.2489     -0.0684
            z      -0.0520     -0.0238     -1.0331
-------------------------------------------------------------------------------
   72 O2    x      -2.4546      0.1091      0.0009
            y       0.0686     -1.2384      0.0662
            z      -0.0012      0.0291     -1.0319
-------------------------------------------------------------------------------




  Elastic Constant Matrix: (Units=GPa)

-------------------------------------------------------------------------------
  Indices      1         2         3         4         5         6    
-------------------------------------------------------------------------------
       1     47.6450   21.5351   19.9966   -0.8591   -1.4362    4.7267
       2     21.5351   64.2163   20.6474   -0.8580   -0.5946    3.4532
       3     19.9966   20.6474   22.1134   -0.1050   -2.3069    2.8644
       4     -0.8591   -0.8580   -0.1050    9.7983    0.7839    0.4035
       5     -1.4362   -0.5946   -2.3069    0.7839   21.4089   -1.0115
       6      4.7267    3.4532    2.8644    0.4035   -1.0115   22.5357
-------------------------------------------------------------------------------


  Elastic Compliance Matrix: (Units=1/GPa)

-------------------------------------------------------------------------------
  Indices      1         2         3         4         5         6    
-------------------------------------------------------------------------------
       1    0.034361 -0.002047 -0.028833  0.002751 -0.001116 -0.003328
       2   -0.002047  0.022483 -0.019221  0.001746 -0.001680 -0.000679
       3   -0.028833 -0.019221  0.090254 -0.003742  0.007296 -0.002085
       4    0.002751  0.001746 -0.003742  0.102835 -0.004048 -0.002392
       5   -0.001116 -0.001680  0.007296 -0.004048  0.047606  0.001774
       6   -0.003328 -0.000679 -0.002085 -0.002392  0.001774  0.045563
-------------------------------------------------------------------------------

  Mechanical properties :

-------------------------------------------------------------------------------
  Convention :                    Reuss         Voigt         Hill
-------------------------------------------------------------------------------
  Bulk  Modulus (GPa)     =      21.32319      28.70365      25.01342
  Shear Modulus (GPa)     =      10.89475      15.53496      13.21486
-------------------------------------------------------------------------------
  Velocity S-wave (km/s)  =       2.33842       2.79235       2.57541
  Velocity P-wave (km/s)  =       4.24186       4.98027       4.62582
-------------------------------------------------------------------------------
  Compressibility (1/GPa) =    0.04689730
-------------------------------------------------------------------------------
  Stress axis :                     x             y             z
-------------------------------------------------------------------------------
  Youngs Moduli (GPa)     =      29.10265      44.47776      11.07982
-------------------------------------------------------------------------------
  Poissons Ratio (x)      =                     0.09105       0.31946
  Poissons Ratio (y)      =       0.05957                     0.21296
  Poissons Ratio (z)      =       0.83912       0.85489
-------------------------------------------------------------------------------


  Piezoelectric Strain Matrix: (Units=C/m**2)

-------------------------------------------------------------------------------
  Indices      1         2         3         4         5         6    
-------------------------------------------------------------------------------
       x    -0.04162  -0.13229   0.13082   0.14042   0.01645  -0.21633
       y    -0.98815  -0.09394  -0.13431  -0.13076   0.20823  -0.06991
       z    -0.26797  -0.35532  -0.36936  -0.18861  -0.17076   0.10733
-------------------------------------------------------------------------------


  Piezoelectric Stress Matrix: (Units=10**-11 C/N)

-------------------------------------------------------------------------------
  Indices      1         2         3         4         5         6    
-------------------------------------------------------------------------------
       x    -0.38435  -0.50390   1.55955   1.40563   0.10543  -1.02078
       y    -3.02486   0.19616   2.03290  -1.65017   1.05994   0.11291
       z     0.14840  -0.04560  -1.95445  -1.89368  -0.89737   0.69416
-------------------------------------------------------------------------------


  Static dielectric constant tensor : 

-------------------------------------------------------------------------------
              x         y         z
-------------------------------------------------------------------------------
       x     4.13439  -0.04819   0.01656
       y    -0.04819   4.23767  -0.12950
       z     0.01656  -0.12950   3.46191
--------------------------------------------------------------------------------

  High frequency dielectric constant tensor : 

-------------------------------------------------------------------------------
              x         y         z
-------------------------------------------------------------------------------
       x     1.66737  -0.00015  -0.00036
       y    -0.00015   1.67434  -0.00118
       z    -0.00036  -0.00118   1.60439
-------------------------------------------------------------------------------

  Static refractive indices : 

-------------------------------------------------------------------------------
    1 =    1.85493      2 =    2.02897      3 =    2.06796
-------------------------------------------------------------------------------

  High frequency refractive indices : 

-------------------------------------------------------------------------------
    1 =    1.26664      2 =    1.29126      3 =    1.29397
-------------------------------------------------------------------------------


  Time to end of optimisation =       9.5130 seconds


  Peak dynamic memory used =       5.01 MB 


  Timing analysis for GULP :

--------------------------------------------------------------------------------
  Task / Subroutine                                          Time (Seconds)
--------------------------------------------------------------------------------
  Calculation of reciprocal space energy and derivatives          0.6271
  Calculation of real space energy and derivatives                5.9038
  Calculation of three-body energy and derivatives                0.4703
  Calculation and manipulation of Hessian matrix                  2.9242
  Calculation of matrix inversion                                 0.0456
  Global summation overhead                                       0.0001
--------------------------------------------------------------------------------
  Total CPU time                                                  9.5130
--------------------------------------------------------------------------------


  Dump file written as c00048.vasp.grs
  CIF file written as c00048.vasp.cif


  Job Finished at 11:47.30 31st October    2025                               

