********************************************************************************
*                       GENERAL UTILITY LATTICE PROGRAM                        *
*                                 Julian Gale                                  *
*                       Curtin Institute for Computation                       *
*                    School of Molecular and Life Sciences                     *
*                    Curtin University, Western Australia                      *
********************************************************************************
* Version = 6.1.2 * Last modified =   3rd November 2022                        *
********************************************************************************
*  optimise     - perform optimisation run                                     *
*  conp         - constant pressure calculation                                *
*  property     - calculate properties for final geometry                      *
********************************************************************************

  Job Started  at 12:17.30 31st October    2025                               

  Number of CPUs =     1


  Total number of configurations input =      1

********************************************************************************
*  Input for Configuration =   1 : c00182.vasp                                 *
********************************************************************************

  Formula = Ge4Si20O48                                                  

  Number of irreducible atoms/shells =     120


  Total number atoms/shells =     120

  Dimensionality = 3               :  Bulk   



  Cartesian lattice vectors (Angstroms) :

       17.182800    0.000000    0.000000
        0.000000    7.513760    0.000000
        0.000000    0.000000   10.447700

  Cell parameters (Angstroms/Degrees):

  a =      17.1828    alpha =  90.0000
  b =       7.5138    beta  =  90.0000
  c =      10.4477    gamma =  90.0000

  Initial cell volume =        1348.875752 Angs**3

  Temperature of configuration =   0.00     K 

  Pressure of configuration =         0.000 GPa 

  Fractional coordinates of asymmetric unit :

--------------------------------------------------------------------------------
   No.  Atomic       x           y          z         Charge      Occupancy
        Label      (Frac)      (Frac)     (Frac)        (e)         (Frac)  
--------------------------------------------------------------------------------
      1 Ge    c    0.052090    0.000000    0.372270     4.00000    1.000000    
      2 Ge    c    0.556730 *  0.000000 *  0.122130 *   4.00000    1.000000    
      3 Ge    c    0.943270 *  0.000000 *  0.122130 *   4.00000    1.000000    
      4 Ge    c    0.443270 *  0.000000 *  0.877870 *   4.00000    1.000000    
      5 Si    c    0.447910 *  0.000000 *  0.372270 *   4.00000    1.000000    
      6 Si    c    0.947910 *  0.000000 *  0.627730 *   4.00000    1.000000    
      7 Si    c    0.552090 *  0.000000 *  0.627730 *   4.00000    1.000000    
      8 Si    c    0.056730 *  0.000000 *  0.877870 *   4.00000    1.000000    
      9 Si    c    0.160190 *  0.293910 *  0.273440 *   4.00000    1.000000    
     10 Si    c    0.339810 *  0.706090 *  0.273440 *   4.00000    1.000000    
     11 Si    c    0.839810 *  0.293910 *  0.726560 *   4.00000    1.000000    
     12 Si    c    0.660190 *  0.706090 *  0.726560 *   4.00000    1.000000    
     13 Si    c    0.839810 *  0.706090 *  0.726560 *   4.00000    1.000000    
     14 Si    c    0.660190 *  0.293910 *  0.726560 *   4.00000    1.000000    
     15 Si    c    0.160190 *  0.706090 *  0.273440 *   4.00000    1.000000    
     16 Si    c    0.339810 *  0.293910 *  0.273440 *   4.00000    1.000000    
     17 Si    c    0.660660 *  0.294090 *  0.017440 *   4.00000    1.000000    
     18 Si    c    0.839340 *  0.705910 *  0.017440 *   4.00000    1.000000    
     19 Si    c    0.339340 *  0.294090 *  0.982560 *   4.00000    1.000000    
     20 Si    c    0.160660 *  0.705910 *  0.982560 *   4.00000    1.000000    
     21 Si    c    0.339340 *  0.705910 *  0.982560 *   4.00000    1.000000    
     22 Si    c    0.160660 *  0.294090 *  0.982560 *   4.00000    1.000000    
     23 Si    c    0.660660 *  0.705910 *  0.017440 *   4.00000    1.000000    
     24 Si    c    0.839340 *  0.294090 *  0.017440 *   4.00000    1.000000    
     25 O3    c    0.106570 *  0.174340 *  0.366200 *   1.33043    1.000000    
     26 O2    c    0.393430 *  0.825660 *  0.366200 *   0.87073    1.000000    
     27 O2    c    0.893430 *  0.174340 *  0.633800 *   0.87073    1.000000    
     28 O2    c    0.606570 *  0.825660 *  0.633800 *   0.87073    1.000000    
     29 O2    c    0.893430 *  0.825660 *  0.633800 *   0.87073    1.000000    
     30 O2    c    0.606570 *  0.174340 *  0.633800 *   0.87073    1.000000    
     31 O3    c    0.106570 *  0.825660 *  0.366200 *   1.33043    1.000000    
     32 O2    c    0.393430 *  0.174340 *  0.366200 *   0.87073    1.000000    
     33 O3    c    0.000000 *  0.000000 *  0.500000 *   1.33043    1.000000    
     34 O2    c    0.500000 *  0.000000 *  0.500000 *   0.87073    1.000000    
     35 O1    c    0.994520 *  0.000000 *  0.250840 *   1.73396    1.000000    
     36 O3    c    0.505480 *  0.000000 *  0.250840 *   1.33043    1.000000    
     37 O2    c    0.005480 *  0.000000 *  0.749160 *   0.87073    1.000000    
     38 O3    c    0.494520 *  0.000000 *  0.749160 *   1.33043    1.000000    
     39 O3    c    0.610230 *  0.175520 *  0.115390 *   1.33043    1.000000    
     40 O3    c    0.889770 *  0.824480 *  0.115390 *   1.33043    1.000000    
     41 O3    c    0.389770 *  0.175520 *  0.884610 *   1.33043    1.000000    
     42 O2    c    0.110230 *  0.824480 *  0.884610 *   0.87073    1.000000    
     43 O3    c    0.389770 *  0.824480 *  0.884610 *   1.33043    1.000000    
     44 O2    c    0.110230 *  0.175520 *  0.884610 *   0.87073    1.000000    
     45 O3    c    0.610230 *  0.824480 *  0.115390 *   1.33043    1.000000    
     46 O3    c    0.889770 *  0.175520 *  0.115390 *   1.33043    1.000000    
     47 O1    c    0.500000 *  0.000000 *  0.000000 *   1.73396    1.000000    
     48 O3    c    0.000000 *  0.000000 *  0.000000 *   1.33043    1.000000    
     49 O2    c    0.151750 *  0.500000 *  0.313330 *   0.87073    1.000000    
     50 O2    c    0.348250 *  0.500000 *  0.313330 *   0.87073    1.000000    
     51 O2    c    0.848250 *  0.500000 *  0.686670 *   0.87073    1.000000    
     52 O2    c    0.651750 *  0.500000 *  0.686670 *   0.87073    1.000000    
     53 O2    c    0.250000 *  0.234950 *  0.285720 *   0.87073    1.000000    
     54 O2    c    0.250000 *  0.765050 *  0.285720 *   0.87073    1.000000    
     55 O2    c    0.750000 *  0.234950 *  0.714280 *   0.87073    1.000000    
     56 O2    c    0.750000 *  0.765050 *  0.714280 *   0.87073    1.000000    
     57 O2    c    0.131410 *  0.268650 *  0.127790 *   0.87073    1.000000    
     58 O2    c    0.368590 *  0.731350 *  0.127790 *   0.87073    1.000000    
     59 O2    c    0.868590 *  0.268650 *  0.872210 *   0.87073    1.000000    
     60 O2    c    0.631410 *  0.731350 *  0.872210 *   0.87073    1.000000    
     61 O2    c    0.868590 *  0.731350 *  0.872210 *   0.87073    1.000000    
     62 O2    c    0.631410 *  0.268650 *  0.872210 *   0.87073    1.000000    
     63 O2    c    0.131410 *  0.731350 *  0.127790 *   0.87073    1.000000    
     64 O2    c    0.368590 *  0.268650 *  0.127790 *   0.87073    1.000000    
     65 O2    c    0.653920 *  0.500000 *  0.058200 *   0.87073    1.000000    
     66 O2    c    0.846080 *  0.500000 *  0.058200 *   0.87073    1.000000    
     67 O2    c    0.346080 *  0.500000 *  0.941800 *   0.87073    1.000000    
     68 O2    c    0.153920 *  0.500000 *  0.941800 *   0.87073    1.000000    
     69 O2    c    0.750000 *  0.231060 *  0.027050 *   0.87073    1.000000    
     70 O2    c    0.750000 *  0.768940 *  0.027050 *   0.87073    1.000000    
     71 O2    c    0.250000 *  0.231060 *  0.972950 *   0.87073    1.000000    
     72 O2    c    0.250000 *  0.768940 *  0.972950 *   0.87073    1.000000    
     73 O3    s    0.106570 *  0.174340 *  0.366200 *  -3.33043    1.000000    
     74 O2    s    0.393430 *  0.825660 *  0.366200 *  -2.87073    1.000000    
     75 O2    s    0.893430 *  0.174340 *  0.633800 *  -2.87073    1.000000    
     76 O2    s    0.606570 *  0.825660 *  0.633800 *  -2.87073    1.000000    
     77 O2    s    0.893430 *  0.825660 *  0.633800 *  -2.87073    1.000000    
     78 O2    s    0.606570 *  0.174340 *  0.633800 *  -2.87073    1.000000    
     79 O3    s    0.106570 *  0.825660 *  0.366200 *  -3.33043    1.000000    
     80 O2    s    0.393430 *  0.174340 *  0.366200 *  -2.87073    1.000000    
     81 O3    s    0.000000 *  0.000000 *  0.500000 *  -3.33043    1.000000    
     82 O2    s    0.500000 *  0.000000 *  0.500000 *  -2.87073    1.000000    
     83 O1    s    0.994520 *  0.000000 *  0.250840 *  -3.73396    1.000000    
     84 O3    s    0.505480 *  0.000000 *  0.250840 *  -3.33043    1.000000    
     85 O2    s    0.005480 *  0.000000 *  0.749160 *  -2.87073    1.000000    
     86 O3    s    0.494520 *  0.000000 *  0.749160 *  -3.33043    1.000000    
     87 O3    s    0.610230 *  0.175520 *  0.115390 *  -3.33043    1.000000    
     88 O3    s    0.889770 *  0.824480 *  0.115390 *  -3.33043    1.000000    
     89 O3    s    0.389770 *  0.175520 *  0.884610 *  -3.33043    1.000000    
     90 O2    s    0.110230 *  0.824480 *  0.884610 *  -2.87073    1.000000    
     91 O3    s    0.389770 *  0.824480 *  0.884610 *  -3.33043    1.000000    
     92 O2    s    0.110230 *  0.175520 *  0.884610 *  -2.87073    1.000000    
     93 O3    s    0.610230 *  0.824480 *  0.115390 *  -3.33043    1.000000    
     94 O3    s    0.889770 *  0.175520 *  0.115390 *  -3.33043    1.000000    
     95 O1    s    0.500000 *  0.000000 *  0.000000 *  -3.73396    1.000000    
     96 O3    s    0.000000 *  0.000000 *  0.000000 *  -3.33043    1.000000    
     97 O2    s    0.151750 *  0.500000 *  0.313330 *  -2.87073    1.000000    
     98 O2    s    0.348250 *  0.500000 *  0.313330 *  -2.87073    1.000000    
     99 O2    s    0.848250 *  0.500000 *  0.686670 *  -2.87073    1.000000    
    100 O2    s    0.651750 *  0.500000 *  0.686670 *  -2.87073    1.000000    
    101 O2    s    0.250000 *  0.234950 *  0.285720 *  -2.87073    1.000000    
    102 O2    s    0.250000 *  0.765050 *  0.285720 *  -2.87073    1.000000    
    103 O2    s    0.750000 *  0.234950 *  0.714280 *  -2.87073    1.000000    
    104 O2    s    0.750000 *  0.765050 *  0.714280 *  -2.87073    1.000000    
    105 O2    s    0.131410 *  0.268650 *  0.127790 *  -2.87073    1.000000    
    106 O2    s    0.368590 *  0.731350 *  0.127790 *  -2.87073    1.000000    
    107 O2    s    0.868590 *  0.268650 *  0.872210 *  -2.87073    1.000000    
    108 O2    s    0.631410 *  0.731350 *  0.872210 *  -2.87073    1.000000    
    109 O2    s    0.868590 *  0.731350 *  0.872210 *  -2.87073    1.000000    
    110 O2    s    0.631410 *  0.268650 *  0.872210 *  -2.87073    1.000000    
    111 O2    s    0.131410 *  0.731350 *  0.127790 *  -2.87073    1.000000    
    112 O2    s    0.368590 *  0.268650 *  0.127790 *  -2.87073    1.000000    
    113 O2    s    0.653920 *  0.500000 *  0.058200 *  -2.87073    1.000000    
    114 O2    s    0.846080 *  0.500000 *  0.058200 *  -2.87073    1.000000    
    115 O2    s    0.346080 *  0.500000 *  0.941800 *  -2.87073    1.000000    
    116 O2    s    0.153920 *  0.500000 *  0.941800 *  -2.87073    1.000000    
    117 O2    s    0.750000 *  0.231060 *  0.027050 *  -2.87073    1.000000    
    118 O2    s    0.750000 *  0.768940 *  0.027050 *  -2.87073    1.000000    
    119 O2    s    0.250000 *  0.231060 *  0.972950 *  -2.87073    1.000000    
    120 O2    s    0.250000 *  0.768940 *  0.972950 *  -2.87073    1.000000    
--------------------------------------------------------------------------------



********************************************************************************
*  General input information                                                   *
********************************************************************************

  Species output for all configurations : 

--------------------------------------------------------------------------------
  Species    Type    Atomic    Atomic    Charge       Radii (Angs)     Library
                     Number     Mass       (e)     Cova   Ionic  VDW   Symbol
--------------------------------------------------------------------------------
    Ge       Core       32      72.61   4.000000   1.170  0.000  1.750 Ge       
    Si       Core       14      28.09   4.000000   1.200  0.000  2.100 Si       
    O1       Core        8      16.00   1.733957   0.730  0.000  1.360 O1       
    O2       Core        8      16.00   0.870733   0.730  0.000  1.360 O2       
    O3       Core        8      16.00   1.330431   0.730  0.000  1.360 O3       
    O1       Shell       8       0.00  -3.733957   0.730  0.000  0.000 O1       
    O2       Shell       8       0.00  -2.870733   0.730  0.000  0.000 O2       
    O3       Shell       8       0.00  -3.330431   0.730  0.000  0.000 O3       
--------------------------------------------------------------------------------


  Lattice summation method               =    Ewald          (3-D)
                                         =    Parry          (2-D)
                                         =    Saunders et al (1-D)
  Accuracy factor for lattice sums       =   12.000


  Analytic derivatives to be used

  Time limit = Infinity

  Maximum range for interatomic potentials =    100000.000000 Angstroms

  General interatomic potentials :

--------------------------------------------------------------------------------
Atom  Types   Potential      Parameter       Value         Units   Cutoffs(Ang)
  1     2                                                            Min /  Max 
--------------------------------------------------------------------------------
Si   c O1   s Buckingham    Buckingham A     1315.2478    eV        0.000 16.000
                            Buckingham rho  0.31775900    Ang       
                            Buckingham C     10.141118    eV*Ang^6  
--------------------------------------------------------------------------------
Si   c O2   s Buckingham    Buckingham A     1315.2478    eV        0.000 16.000
                            Buckingham rho  0.31775900    Ang       
                            Buckingham C     10.141118    eV*Ang^6  
--------------------------------------------------------------------------------
Si   c O3   s Buckingham    Buckingham A     1315.2478    eV        0.000 16.000
                            Buckingham rho  0.31775900    Ang       
                            Buckingham C     10.141118    eV*Ang^6  
--------------------------------------------------------------------------------
Ge   c O1   s Buckingham    Buckingham A     1497.3996    eV        0.000 16.000
                            Buckingham rho  0.32564600    Ang       
                            Buckingham C     16.808599    eV*Ang^6  
--------------------------------------------------------------------------------
Ge   c O2   s Buckingham    Buckingham A     1497.3996    eV        0.000 16.000
                            Buckingham rho  0.32564600    Ang       
                            Buckingham C     16.808599    eV*Ang^6  
--------------------------------------------------------------------------------
Ge   c O3   s Buckingham    Buckingham A     1497.3996    eV        0.000 16.000
                            Buckingham rho  0.32564600    Ang       
                            Buckingham C     16.808599    eV*Ang^6  
--------------------------------------------------------------------------------
O1   s O1   s Buckingham    Buckingham A     22764.000    eV        0.000 16.000
                            Buckingham rho  0.14900000    Ang       
                            Buckingham C     10.937044    eV*Ang^6  
--------------------------------------------------------------------------------
O1   s O2   s Buckingham    Buckingham A     22764.000    eV        0.000 16.000
                            Buckingham rho  0.14900000    Ang       
                            Buckingham C     10.937044    eV*Ang^6  
--------------------------------------------------------------------------------
O1   s O3   s Buckingham    Buckingham A     22764.000    eV        0.000 16.000
                            Buckingham rho  0.14900000    Ang       
                            Buckingham C     10.937044    eV*Ang^6  
--------------------------------------------------------------------------------
O2   s O2   s Buckingham    Buckingham A     22764.000    eV        0.000 16.000
                            Buckingham rho  0.14900000    Ang       
                            Buckingham C     10.937044    eV*Ang^6  
--------------------------------------------------------------------------------
O2   s O3   s Buckingham    Buckingham A     22764.000    eV        0.000 16.000
                            Buckingham rho  0.14900000    Ang       
                            Buckingham C     10.937044    eV*Ang^6  
--------------------------------------------------------------------------------
O3   s O3   s Buckingham    Buckingham A     22764.000    eV        0.000 16.000
                            Buckingham rho  0.14900000    Ang       
                            Buckingham C     10.937044    eV*Ang^6  
--------------------------------------------------------------------------------
O1   c O1   s Spring (c-s)  Spring k 2       180.31577    eV*Ang^-2 0.000  0.800
                            Spring k 4       0.0000000    eV*Ang^-4 
--------------------------------------------------------------------------------
O2   c O2   s Spring (c-s)  Spring k 2       75.969800    eV*Ang^-2 0.000  0.800
                            Spring k 4       0.0000000    eV*Ang^-4 
--------------------------------------------------------------------------------
O3   c O3   s Spring (c-s)  Spring k 2       128.14270    eV*Ang^-2 0.000  0.800
                            Spring k 4       0.0000000    eV*Ang^-4 
--------------------------------------------------------------------------------

  General Three-body potentials :

--------------------------------------------------------------------------------
  Atoms       Potential      Parameter       Value         Units   Cutoffs(Ang)
  1 / 2 / 3                                                          Min /  Max 
--------------------------------------------------------------------------------
Si    core    Harmonic      Three-body cnst  1.2614000    eV*rad^-2 0.000  1.900
O1    shel                  Three-body angl  109.47000    degrees   0.000  1.900
O1    shel                  Three-body k4    0.0000000    eV*rad^-4 0.000  3.500
                            Three-body k3    0.0000000    eV*rad^-3 
--------------------------------------------------------------------------------
Si    core    Harmonic      Three-body cnst  1.2614000    eV*rad^-2 0.000  1.900
O1    shel                  Three-body angl  109.47000    degrees   0.000  1.900
õ(1   shel                  Three-body k4    0.0000000    eV*rad^-4 0.000  3.500
                            Three-body k3    0.0000000    eV*rad^-3 
--------------------------------------------------------------------------------
Si    core    Harmonic      Three-body cnst  1.2614000    eV*rad^-2 0.000  1.900
õ(1   shel                  Three-body angl  109.47000    degrees   0.000  1.900
õ(1   shel                  Three-body k4    0.0000000    eV*rad^-4 0.000  3.500
                            Three-body k3    0.0000000    eV*rad^-3 
--------------------------------------------------------------------------------
Si    core    Harmonic      Three-body cnst  1.2614000    eV*rad^-2 0.000  1.900
O1    shel                  Three-body angl  109.47000    degrees   0.000  1.900
O2    shel                  Three-body k4    0.0000000    eV*rad^-4 0.000  3.500
                            Three-body k3    0.0000000    eV*rad^-3 
--------------------------------------------------------------------------------
Si    core    Harmonic      Three-body cnst  1.2614000    eV*rad^-2 0.000  1.900
O1    shel                  Three-body angl  109.47000    degrees   0.000  1.900
õ(2   shel                  Three-body k4    0.0000000    eV*rad^-4 0.000  3.500
                            Three-body k3    0.0000000    eV*rad^-3 
--------------------------------------------------------------------------------
Si    core    Harmonic      Three-body cnst  1.2614000    eV*rad^-2 0.000  1.900
O2    shel                  Three-body angl  109.47000    degrees   0.000  1.900
õ(1   shel                  Three-body k4    0.0000000    eV*rad^-4 0.000  3.500
                            Three-body k3    0.0000000    eV*rad^-3 
--------------------------------------------------------------------------------
Si    core    Harmonic      Three-body cnst  1.2614000    eV*rad^-2 0.000  1.900
õ(1   shel                  Three-body angl  109.47000    degrees   0.000  1.900
õ(2   shel                  Three-body k4    0.0000000    eV*rad^-4 0.000  3.500
                            Three-body k3    0.0000000    eV*rad^-3 
--------------------------------------------------------------------------------
Si    core    Harmonic      Three-body cnst  1.2614000    eV*rad^-2 0.000  1.900
O2    shel                  Three-body angl  109.47000    degrees   0.000  1.900
O2    shel                  Three-body k4    0.0000000    eV*rad^-4 0.000  3.500
                            Three-body k3    0.0000000    eV*rad^-3 
--------------------------------------------------------------------------------
Si    core    Harmonic      Three-body cnst  1.2614000    eV*rad^-2 0.000  1.900
O2    shel                  Three-body angl  109.47000    degrees   0.000  1.900
õ(2   shel                  Three-body k4    0.0000000    eV*rad^-4 0.000  3.500
                            Three-body k3    0.0000000    eV*rad^-3 
--------------------------------------------------------------------------------
Si    core    Harmonic      Three-body cnst  1.2614000    eV*rad^-2 0.000  1.900
õ(2   shel                  Three-body angl  109.47000    degrees   0.000  1.900
õ(2   shel                  Three-body k4    0.0000000    eV*rad^-4 0.000  3.500
                            Three-body k3    0.0000000    eV*rad^-3 
--------------------------------------------------------------------------------

********************************************************************************
*  Output for configuration   1 : c00182.vasp                                  *
********************************************************************************


  Components of energy : 

--------------------------------------------------------------------------------
  Interatomic potentials     =         768.44954410 eV    
  Three-body potentials      =           0.00693775 eV    
  Monopole - monopole (real) =       -2676.00317478 eV    
  Monopole - monopole (recip)=       -1115.35404472 eV    
  Monopole - monopole (total)=       -3791.35721950 eV    
--------------------------------------------------------------------------------
  Total lattice energy       =       -3022.90073765 eV    
--------------------------------------------------------------------------------
  Total lattice energy       =         -291663.7119 kJ/(mole unit cells)
--------------------------------------------------------------------------------


  Number of variables =      363

  Maximum number of calculations  =          1000
  Maximum Hessian update interval =            10
  Maximum step size               =   0.100000000
  Maximum parameter tolerance     =   0.000010000
  Maximum function  tolerance     =   0.000010000
  Maximum gradient  tolerance     =   0.001000000
  Maximum gradient  component     =   0.010000000

  Symmetry not applied to optimisation

  Cell parameters to be optimised using strains

  Newton-Raphson optimiser to be used

  BFGS hessian update to be used

  Lower half triangular hessian to be used

  Minimiser to switch to RFO
  When gradient norm is less than     0.050000

  Dumpfile to be written after every cycle

  Start of bulk optimisation :

  Cycle:      0 Energy:     -3022.900738  Gnorm:      4.337607  CPU:    0.115
  ** Hessian calculated **
  Cycle:      1 Energy:     -3053.985947  Gnorm:      0.986731  CPU:    0.248
  ** Hessian calculated **
  Cycle:      2 Energy:     -3056.433556  Gnorm:      0.531964  CPU:    0.456
  Cycle:      3 Energy:     -3057.223210  Gnorm:      0.352339  CPU:    0.565
  Cycle:      4 Energy:     -3057.983500  Gnorm:      0.292787  CPU:    0.696
  Cycle:      5 Energy:     -3058.802380  Gnorm:      0.234527  CPU:    0.831
  Cycle:      6 Energy:     -3059.377548  Gnorm:      0.204607  CPU:    0.941
  Cycle:      7 Energy:     -3059.719232  Gnorm:      0.151781  CPU:    1.052
  Cycle:      8 Energy:     -3059.897968  Gnorm:      0.128138  CPU:    1.200
  Cycle:      9 Energy:     -3059.974710  Gnorm:      0.089646  CPU:    1.302
  Cycle:     10 Energy:     -3060.029936  Gnorm:      0.076739  CPU:    1.423
  Cycle:     11 Energy:     -3060.075944  Gnorm:      0.070293  CPU:    1.548
  ** Hessian calculated **
  Cycle:     12 Energy:     -3060.126120  Gnorm:      0.067625  CPU:    1.788
  Cycle:     13 Energy:     -3060.206226  Gnorm:      0.063093  CPU:    1.943
  Cycle:     14 Energy:     -3060.299189  Gnorm:      0.057260  CPU:    2.079
  Cycle:     15 Energy:     -3060.433167  Gnorm:      0.047459  CPU:    2.235
  ** Hessian has wrong structure
  ** Imaginary eigenvectors =   6
  Cycle:     16 Energy:     -3060.456341  Gnorm:      0.122040  CPU:    2.586
  ** Hessian has wrong structure
  ** Imaginary eigenvectors =   5
  ** Hessian has wrong structure
  ** Imaginary eigenvectors =   5
  Cycle:     17 Energy:     -3060.496525  Gnorm:      0.134748  CPU:    3.195
  ** Hessian has wrong structure
  ** Imaginary eigenvectors =   3
  ** Hessian has wrong structure
  ** Imaginary eigenvectors =   2
  Cycle:     18 Energy:     -3060.572252  Gnorm:      0.166101  CPU:    3.716
  ** Hessian has wrong structure
  ** Imaginary eigenvectors =   1
  ** Hessian has wrong structure
  ** Imaginary eigenvectors =   1
  Cycle:     19 Energy:     -3060.573511  Gnorm:      0.166712  CPU:    4.122
  ** Hessian has required structure
  Cycle:     20 Energy:     -3060.906220  Gnorm:      0.098231  CPU:    4.418
  ** Hessian has required structure
  Cycle:     21 Energy:     -3061.006578  Gnorm:      0.065448  CPU:    4.598
  ** Hessian has required structure
  Cycle:     22 Energy:     -3061.109187  Gnorm:      0.051987  CPU:    4.805
  ** Hessian has required structure
  Cycle:     23 Energy:     -3061.142872  Gnorm:      0.044922  CPU:    4.986
  ** Hessian has required structure
  Cycle:     24 Energy:     -3061.157944  Gnorm:      0.032367  CPU:    5.168
  ** Hessian has required structure
  Cycle:     25 Energy:     -3061.178239  Gnorm:      0.027411  CPU:    5.347
  ** Hessian has required structure
  Cycle:     26 Energy:     -3061.189830  Gnorm:      0.031149  CPU:    5.527
  ** Hessian has required structure
  Cycle:     27 Energy:     -3061.196645  Gnorm:      0.023868  CPU:    5.705
  ** Hessian has required structure
  Cycle:     28 Energy:     -3061.202291  Gnorm:      0.018337  CPU:    5.884
  ** Hessian has required structure
  Cycle:     29 Energy:     -3061.207461  Gnorm:      0.016257  CPU:    6.066
  ** Hessian has required structure
  Cycle:     30 Energy:     -3061.214099  Gnorm:      0.013842  CPU:    6.342
  ** Hessian has required structure
  Cycle:     31 Energy:     -3061.221877  Gnorm:      0.011483  CPU:    6.529
  ** Hessian has required structure
  Cycle:     32 Energy:     -3061.228644  Gnorm:      0.012142  CPU:    6.696
  ** Hessian has required structure
  Cycle:     33 Energy:     -3061.231973  Gnorm:      0.011359  CPU:    6.885
  ** Hessian has required structure
  Cycle:     34 Energy:     -3061.233805  Gnorm:      0.009814  CPU:    7.084
  ** Hessian has required structure
  Cycle:     35 Energy:     -3061.235257  Gnorm:      0.008216  CPU:    7.281
  ** Hessian has required structure
  Cycle:     36 Energy:     -3061.236364  Gnorm:      0.009509  CPU:    7.478
  ** Hessian has required structure
  Cycle:     37 Energy:     -3061.237200  Gnorm:      0.004775  CPU:    7.657
  ** Hessian has required structure
  Cycle:     38 Energy:     -3061.238378  Gnorm:      0.006921  CPU:    7.877
  ** Hessian has required structure
  Cycle:     39 Energy:     -3061.239671  Gnorm:      0.010121  CPU:    8.079
  ** Hessian has required structure
  Cycle:     40 Energy:     -3061.242989  Gnorm:      0.012812  CPU:    8.388
  ** Hessian has required structure
  Cycle:     41 Energy:     -3061.245788  Gnorm:      0.016558  CPU:    8.573
  ** Hessian has required structure
  Cycle:     42 Energy:     -3061.250028  Gnorm:      0.011475  CPU:    8.773
  ** Hessian has required structure
  Cycle:     43 Energy:     -3061.251998  Gnorm:      0.020799  CPU:    8.954
  ** Hessian has required structure
  Cycle:     44 Energy:     -3061.256732  Gnorm:      0.017021  CPU:    9.161
  ** Hessian has required structure
  Cycle:     45 Energy:     -3061.261643  Gnorm:      0.007230  CPU:    9.371
  ** Hessian has required structure
  Cycle:     46 Energy:     -3061.264323  Gnorm:      0.010435  CPU:    9.586
  ** Hessian has required structure
  Cycle:     47 Energy:     -3061.267126  Gnorm:      0.008399  CPU:    9.793
  ** Hessian has required structure
  Cycle:     48 Energy:     -3061.268681  Gnorm:      0.005241  CPU:    9.976
  ** Hessian has required structure
  Cycle:     49 Energy:     -3061.269710  Gnorm:      0.003896  CPU:   10.159
  ** Hessian has required structure
  Cycle:     50 Energy:     -3061.270888  Gnorm:      0.002565  CPU:   10.463
  ** Hessian has required structure
  Cycle:     51 Energy:     -3061.271344  Gnorm:      0.001898  CPU:   10.669
  ** Hessian has required structure
  Cycle:     52 Energy:     -3061.271570  Gnorm:      0.001069  CPU:   10.874
  ** Hessian has required structure
  Cycle:     53 Energy:     -3061.271660  Gnorm:      0.000723  CPU:   11.079
  ** Hessian has required structure
  Cycle:     54 Energy:     -3061.271688  Gnorm:      0.000391  CPU:   11.261
  ** Hessian has required structure
  Cycle:     55 Energy:     -3061.271700  Gnorm:      0.000305  CPU:   11.441
  ** Hessian has required structure
  Cycle:     56 Energy:     -3061.271706  Gnorm:      0.000138  CPU:   11.641
  ** Hessian has required structure
  Cycle:     57 Energy:     -3061.271708  Gnorm:      0.000121  CPU:   11.833
  ** Hessian has required structure
  Cycle:     58 Energy:     -3061.271709  Gnorm:      0.000099  CPU:   11.994
  ** Hessian has required structure
  Cycle:     59 Energy:     -3061.271709  Gnorm:      0.000095  CPU:   12.147
  ** Hessian has required structure
  Cycle:     60 Energy:     -3061.271709  Gnorm:      0.000094  CPU:   12.425
  ** Hessian has required structure
  Cycle:     61 Energy:     -3061.271709  Gnorm:      0.000093  CPU:   12.586
  ** Hessian has required structure
  Cycle:     62 Energy:     -3061.271709  Gnorm:      0.000093  CPU:   12.746
  ** Hessian has required structure
  Cycle:     63 Energy:     -3061.271709  Gnorm:      0.000092  CPU:   12.911
  ** Hessian has required structure
  Cycle:     64 Energy:     -3061.271709  Gnorm:      0.000092  CPU:   13.073
  ** Hessian has required structure
  Cycle:     65 Energy:     -3061.271709  Gnorm:      0.000092  CPU:   13.232
  ** Hessian has required structure
  Cycle:     66 Energy:     -3061.271709  Gnorm:      0.000092  CPU:   13.392
  ** Hessian has required structure
  Cycle:     67 Energy:     -3061.271708  Gnorm:      0.000090  CPU:   13.655
  ** Hessian has required structure
  Cycle:     68 Energy:     -3061.271709  Gnorm:      0.000063  CPU:   13.911
  ** Hessian has required structure


  **** Optimisation achieved ****


  Final energy =   -3061.27170902 eV      
  Final Gnorm  =       0.00004472

  Components of energy : 

--------------------------------------------------------------------------------
  Interatomic potentials     =         816.19401402 eV    
  Three-body potentials      =           0.23542092 eV    
  Monopole - monopole (real) =       -2173.34882856 eV    
  Monopole - monopole (recip)=       -1704.35231541 eV    
  Monopole - monopole (total)=       -3877.70114397 eV    
--------------------------------------------------------------------------------
  Total lattice energy       =       -3061.27170902 eV    
--------------------------------------------------------------------------------
  Total lattice energy       =         -295365.9241 kJ/(mole unit cells)
--------------------------------------------------------------------------------

  Final fractional coordinates of atoms :

--------------------------------------------------------------------------------
   No.  Atomic        x           y          z          Radius
        Label       (Frac)      (Frac)     (Frac)       (Angs) 
--------------------------------------------------------------------------------
     1  Ge    c     0.052090    0.000000    0.372270    0.000000
     2  Ge    c     0.557590    0.976122    0.107711    0.000000
     3  Ge    c     0.942601    0.996726    0.113800    0.000000
     4  Ge    c     0.440533    0.972334    0.866301    0.000000
     5  Si    c     0.457954    0.980283    0.357757    0.000000
     6  Si    c     0.952529    0.996347    0.631730    0.000000
     7  Si    c     0.548108    0.973404    0.620271    0.000000
     8  Si    c     0.053555    0.980114    0.882045    0.000000
     9  Si    c     0.153948    0.310966    0.280238    0.000000
    10  Si    c     0.358111    0.668172    0.257610    0.000000
    11  Si    c     0.852073    0.308400    0.715284    0.000000
    12  Si    c     0.647914    0.663138    0.714671    0.000000
    13  Si    c     0.830101    0.716124    0.718116    0.000000
    14  Si    c     0.669951    0.254893    0.712568    0.000000
    15  Si    c     0.175796    0.720686    0.269233    0.000000
    16  Si    c     0.336810    0.258928    0.266444    0.000000
    17  Si    c     0.675039    0.250172    0.003945    0.000000
    18  Si    c     0.825315    0.719774    0.009729    0.000000
    19  Si    c     0.325513    0.245682    0.976417    0.000000
    20  Si    c     0.167875    0.703802    0.979057    0.000000
    21  Si    c     0.351865    0.647442    0.967976    0.000000
    22  Si    c     0.141885    0.302432    0.991430    0.000000
    23  Si    c     0.642858    0.647245    0.005185    0.000000
    24  Si    c     0.857309    0.323289    0.006493    0.000000
    25  O3    c     0.095000    0.209562    0.370181    0.000000
    26  O2    c     0.421171    0.783097    0.337648    0.000000
    27  O2    c     0.913488    0.193398    0.633182    0.000000
    28  O2    c     0.585940    0.776583    0.632318    0.000000
    29  O2    c     0.880959    0.852873    0.636825    0.000000
    30  O2    c     0.618892    0.118861    0.627716    0.000000
    31  O3    c     0.130400    0.853029    0.358347    0.000000
    32  O2    c     0.387915    0.127146    0.352879    0.000000
    33  O3    c     0.003064    0.967036    0.509723    0.000000
    34  O2    c     0.502257    0.989355    0.489821    0.000000
    35  O1    c     0.982444    0.966045    0.257785    0.000000
    36  O3    c     0.522146    0.020670    0.253602    0.000000
    37  O2    c     0.013336    0.969781    0.746856    0.000000
    38  O3    c     0.483461    0.009585    0.725160    0.000000
    39  O3    c     0.643310    0.101718    0.093453    0.000000
    40  O3    c     0.857263    0.867822    0.102160    0.000000
    41  O3    c     0.356062    0.103031    0.880249    0.000000
    42  O2    c     0.128068    0.844024    0.885185    0.000000
    43  O3    c     0.409199    0.753054    0.878037    0.000000
    44  O2    c     0.081471    0.183551    0.909257    0.000000
    45  O3    c     0.581669    0.753513    0.088693    0.000000
    46  O3    c     0.917958    0.217826    0.092558    0.000000
    47  O1    c     0.497382    0.044458    0.988989    0.000000
    48  O3    c     0.998025    0.914847    0.992100    0.000000
    49  O2    c     0.146165    0.521369    0.298416    0.000000
    50  O2    c     0.368813    0.459923    0.286486    0.000000
    51  O2    c     0.862755    0.517887    0.689987    0.000000
    52  O2    c     0.637224    0.453580    0.687926    0.000000
    53  O2    c     0.244679    0.249543    0.304743    0.000000
    54  O2    c     0.270106    0.731411    0.293445    0.000000
    55  O2    c     0.762725    0.248148    0.677364    0.000000
    56  O2    c     0.737104    0.723651    0.680404    0.000000
    57  O2    c     0.126418    0.256748    0.137813    0.000000
    58  O2    c     0.375064    0.706731    0.111136    0.000000
    59  O2    c     0.871493    0.268807    0.860875    0.000000
    60  O2    c     0.627063    0.704053    0.859766    0.000000
    61  O2    c     0.837724    0.771445    0.863812    0.000000
    62  O2    c     0.661532    0.197359    0.857250    0.000000
    63  O2    c     0.157672    0.768463    0.123500    0.000000
    64  O2    c     0.345722    0.197100    0.121784    0.000000
    65  O2    c     0.629606    0.437645    0.024686    0.000000
    66  O2    c     0.870505    0.532376    0.030816    0.000000
    67  O2    c     0.364660    0.437937    0.948628    0.000000
    68  O2    c     0.126688    0.509944    0.963326    0.000000
    69  O2    c     0.767299    0.272211    0.037817    0.000000
    70  O2    c     0.732852    0.697524    0.039979    0.000000
    71  O2    c     0.231274    0.255541    0.957598    0.000000
    72  O2    c     0.259900    0.694521    0.943619    0.000000
    73  O3    s     0.097697    0.203506    0.361076    0.000000
    74  O2    s     0.418056    0.791092    0.330903    0.000000
    75  O2    s     0.910943    0.185486    0.641719    0.000000
    76  O2    s     0.588731    0.784809    0.640014    0.000000
    77  O2    s     0.882842    0.852817    0.645299    0.000000
    78  O2    s     0.617084    0.118516    0.636321    0.000000
    79  O3    s     0.128957    0.850630    0.349891    0.000000
    80  O2    s     0.389600    0.126251    0.343868    0.000000
    81  O3    s     0.001835    0.973176    0.511033    0.000000
    82  O2    s     0.502412    0.986395    0.489541    0.000000
    83  O1    s     0.984759    0.971455    0.254832    0.000000
    84  O3    s     0.518533    0.012500    0.251624    0.000000
    85  O2    s     0.011277    0.973952    0.750005    0.000000
    86  O3    s     0.486364    0.002501    0.726859    0.000000
    87  O3    s     0.639908    0.107813    0.084837    0.000000
    88  O3    s     0.860569    0.862038    0.093097    0.000000
    89  O3    s     0.359359    0.108289    0.889553    0.000000
    90  O2    s     0.124771    0.842691    0.895194    0.000000
    91  O3    s     0.405719    0.759248    0.886435    0.000000
    92  O2    s     0.085233    0.175728    0.915570    0.000000
    93  O3    s     0.586101    0.759940    0.081537    0.000000
    94  O3    s     0.913638    0.211230    0.085329    0.000000
    95  O1    s     0.497671    0.033170    0.988703    0.000000
    96  O3    s     0.999171    0.928263    0.990844    0.000000
    97  O2    s     0.150194    0.519183    0.293292    0.000000
    98  O2    s     0.364246    0.461214    0.281237    0.000000
    99  O2    s     0.858163    0.516114    0.695637    0.000000
   100  O2    s     0.641851    0.455293    0.693407    0.000000
   101  O2    s     0.245033    0.257020    0.298074    0.000000
   102  O2    s     0.269445    0.723402    0.286966    0.000000
   103  O2    s     0.762195    0.255256    0.685094    0.000000
   104  O2    s     0.737546    0.716410    0.688009    0.000000
   105  O2    s     0.130633    0.266487    0.137061    0.000000
   106  O2    s     0.371060    0.697065    0.112023    0.000000
   107  O2    s     0.868001    0.278412    0.860367    0.000000
   108  O2    s     0.630738    0.694346    0.859210    0.000000
   109  O2    s     0.835626    0.760240    0.863222    0.000000
   110  O2    s     0.663775    0.208769    0.856883    0.000000
   111  O2    s     0.160541    0.757053    0.123635    0.000000
   112  O2    s     0.342776    0.208357    0.122218    0.000000
   113  O2    s     0.635659    0.440943    0.020484    0.000000
   114  O2    s     0.864451    0.529201    0.026051    0.000000
   115  O2    s     0.359213    0.440813    0.953613    0.000000
   116  O2    s     0.132588    0.507939    0.967966    0.000000
   117  O2    s     0.766982    0.275442    0.030583    0.000000
   118  O2    s     0.733031    0.694341    0.032775    0.000000
   119  O2    s     0.231548    0.259896    0.963607    0.000000
   120  O2    s     0.259655    0.690401    0.950195    0.000000
--------------------------------------------------------------------------------

  Final Cartesian lattice vectors (Angstroms) :

       16.853908   -0.024930   -0.098595
       -0.010729    7.525826   -0.026521
       -0.054177   -0.035238   10.648998


  Final cell parameters and derivatives :

--------------------------------------------------------------------------------
       a           16.854214 Angstrom     dE/de1(xx)     0.003201 eV/strain
       b            7.525881 Angstrom     dE/de2(yy)     0.001729 eV/strain
       c           10.649194 Angstrom     dE/de3(zz)     0.005097 eV/strain
       alpha       90.391078 Degrees      dE/de4(yz)    -0.000164 eV/strain
       beta        90.626380 Degrees      dE/de5(xz)     0.000084 eV/strain
       gamma       90.165249 Degrees      dE/de6(xy)     0.000182 eV/strain
--------------------------------------------------------------------------------

  Primitive cell volume =          1350.655571 Angs**3

  Density of cell =      1.992006 g/cm**3

  Non-primitive cell volume =          1350.655571 Angs**3


  Final internal derivatives :

--------------------------------------------------------------------------------
   No.  Atomic          a             b             c           Radius
        Label          (eV)          (eV)          (eV)        (eV/Angs)
--------------------------------------------------------------------------------
      1 Ge    c       0.000000      0.000000      0.000000      0.000000
      2 Ge    c      -0.000063     -0.000059      0.000086      0.000000
      3 Ge    c      -0.002488      0.000952     -0.000444      0.000000
      4 Ge    c       0.000360      0.000153     -0.000431      0.000000
      5 Si    c      -0.000105     -0.000037     -0.000153      0.000000
      6 Si    c      -0.007124      0.001081      0.002174      0.000000
      7 Si    c      -0.000398      0.000027      0.000164      0.000000
      8 Si    c       0.003960      0.000894      0.000539      0.000000
      9 Si    c      -0.000591     -0.000058     -0.000073      0.000000
     10 Si    c       0.000045      0.000038     -0.000094      0.000000
     11 Si    c       0.000849     -0.000067     -0.000128      0.000000
     12 Si    c      -0.000013     -0.000038      0.000171      0.000000
     13 Si    c       0.000170     -0.000278     -0.000225      0.000000
     14 Si    c       0.000036     -0.000032      0.000035      0.000000
     15 Si    c      -0.000179     -0.000174      0.000107      0.000000
     16 Si    c      -0.000061      0.000001     -0.000162      0.000000
     17 Si    c       0.000045      0.000050     -0.000158      0.000000
     18 Si    c       0.000532      0.000023      0.000193      0.000000
     19 Si    c       0.000062     -0.000108     -0.000030      0.000000
     20 Si    c      -0.000569     -0.000015     -0.000155      0.000000
     21 Si    c       0.000107     -0.000073      0.000172      0.000000
     22 Si    c      -0.000611      0.000020      0.000001      0.000000
     23 Si    c      -0.000292      0.000059      0.000011      0.000000
     24 Si    c       0.000473      0.000156     -0.000216      0.000000
     25 O3    c      -0.000366     -0.000032     -0.000054      0.000000
     26 O2    c       0.000029      0.000005      0.000015      0.000000
     27 O2    c       0.000191      0.000080      0.000046      0.000000
     28 O2    c      -0.000127      0.000066     -0.000075      0.000000
     29 O2    c      -0.000720     -0.000525     -0.000418      0.000000
     30 O2    c       0.000182      0.000072      0.000004      0.000000
     31 O3    c       0.000435     -0.000285      0.000484      0.000000
     32 O2    c       0.000022     -0.000009      0.000091      0.000000
     33 O3    c       0.000087     -0.001694     -0.001844      0.000000
     34 O2    c       0.000163      0.000005      0.000239      0.000000
     35 O1    c      -0.005201     -0.001929     -0.000377      0.000000
     36 O3    c       0.000329     -0.000019     -0.000081      0.000000
     37 O2    c       0.005251     -0.000426     -0.001246      0.000000
     38 O3    c      -0.000404     -0.000120      0.000314      0.000000
     39 O3    c       0.000095     -0.000009      0.000056      0.000000
     40 O3    c      -0.001140     -0.000551     -0.000034      0.000000
     41 O3    c      -0.000081      0.000113      0.000178      0.000000
     42 O2    c       0.000336     -0.000315     -0.000034      0.000000
     43 O3    c       0.000060     -0.000038     -0.000105      0.000000
     44 O2    c      -0.000043      0.000830      0.000334      0.000000
     45 O3    c       0.000257     -0.000114     -0.000119      0.000000
     46 O3    c       0.000004      0.001009     -0.000051      0.000000
     47 O1    c      -0.000027      0.000063      0.000128      0.000000
     48 O3    c      -0.003132     -0.003057      0.000264      0.000000
     49 O2    c      -0.000107     -0.000017      0.000047      0.000000
     50 O2    c       0.000033     -0.000053      0.000024      0.000000
     51 O2    c       0.000120      0.000120     -0.000050      0.000000
     52 O2    c      -0.000032      0.000028     -0.000016      0.000000
     53 O2    c      -0.000070     -0.000006      0.000033      0.000000
     54 O2    c       0.000420      0.000018      0.000078      0.000000
     55 O2    c       0.000032      0.000006     -0.000028      0.000000
     56 O2    c      -0.000186      0.000019     -0.000103      0.000000
     57 O2    c      -0.000029      0.000100      0.000121      0.000000
     58 O2    c       0.000034     -0.000006      0.000008      0.000000
     59 O2    c       0.000080      0.000119      0.000095      0.000000
     60 O2    c       0.000014     -0.000006     -0.000209      0.000000
     61 O2    c      -0.000216     -0.000070      0.000152      0.000000
     62 O2    c       0.000018      0.000020      0.000165      0.000000
     63 O2    c       0.000215     -0.000071     -0.000342      0.000000
     64 O2    c      -0.000036      0.000033      0.000095      0.000000
     65 O2    c       0.000021     -0.000100      0.000006      0.000000
     66 O2    c       0.000186     -0.000041      0.000015      0.000000
     67 O2    c       0.000039      0.000040     -0.000019      0.000000
     68 O2    c      -0.000172      0.000031     -0.000067      0.000000
     69 O2    c      -0.000232      0.000015      0.000059      0.000000
     70 O2    c       0.000429      0.000009      0.000113      0.000000
     71 O2    c       0.000112      0.000006     -0.000069      0.000000
     72 O2    c      -0.000512      0.000035     -0.000112      0.000000
     73 O3    s       0.001335      0.000498      0.000203      0.000000
     74 O2    s      -0.000035     -0.000025     -0.000002      0.000000
     75 O2    s      -0.002014      0.000671      0.000037      0.000000
     76 O2    s      -0.000072      0.000011      0.000050      0.000000
     77 O2    s      -0.002909     -0.000199      0.000582      0.000000
     78 O2    s      -0.000105     -0.000029     -0.000015      0.000000
     79 O3    s       0.002071     -0.000105     -0.000105      0.000000
     80 O2    s      -0.000047      0.000009     -0.000062      0.000000
     81 O3    s       0.000609      0.000624      0.000021      0.000000
     82 O2    s      -0.000040     -0.000021      0.000036      0.000000
     83 O1    s       0.002045      0.000800      0.000585      0.000000
     84 O3    s      -0.000057      0.000024      0.000031      0.000000
     85 O2    s      -0.000230      0.000041     -0.000260      0.000000
     86 O3    s       0.000269      0.000012     -0.000116      0.000000
     87 O3    s       0.000032      0.000013     -0.000009      0.000000
     88 O3    s      -0.001317      0.000072      0.000092      0.000000
     89 O3    s       0.000065     -0.000063     -0.000083      0.000000
     90 O2    s       0.002766     -0.000251     -0.000095      0.000000
     91 O3    s       0.000140      0.000056     -0.000030      0.000000
     92 O2    s       0.002271      0.000670      0.000048      0.000000
     93 O3    s      -0.000252      0.000042      0.000072      0.000000
     94 O3    s      -0.001421      0.000134      0.000156      0.000000
     95 O1    s      -0.000103     -0.000017     -0.000133      0.000000
     96 O3    s      -0.000486      0.000170      0.000316      0.000000
     97 O2    s       0.000201     -0.000000     -0.000087      0.000000
     98 O2    s      -0.000014      0.000007     -0.000005      0.000000
     99 O2    s      -0.000346      0.000014      0.000099      0.000000
    100 O2    s      -0.000020     -0.000001      0.000011      0.000000
    101 O2    s       0.000153     -0.000008     -0.000037      0.000000
    102 O2    s       0.000069     -0.000009     -0.000010      0.000000
    103 O2    s      -0.000174     -0.000036      0.000045      0.000000
    104 O2    s      -0.000085     -0.000002      0.000050      0.000000
    105 O2    s       0.000195     -0.000229     -0.000080      0.000000
    106 O2    s       0.000035      0.000047      0.000050      0.000000
    107 O2    s      -0.000279     -0.000312      0.000046      0.000000
    108 O2    s      -0.000001      0.000032     -0.000026      0.000000
    109 O2    s       0.000884      0.000347     -0.000245      0.000000
    110 O2    s       0.000022     -0.000011     -0.000037      0.000000
    111 O2    s      -0.001158      0.000337      0.000283      0.000000
    112 O2    s       0.000055     -0.000039     -0.000012      0.000000
    113 O2    s      -0.000133     -0.000046      0.000005      0.000000
    114 O2    s      -0.000285     -0.000001     -0.000023      0.000000
    115 O2    s       0.000155     -0.000063     -0.000021      0.000000
    116 O2    s       0.000281     -0.000011      0.000138      0.000000
    117 O2    s      -0.000047     -0.000080     -0.000083      0.000000
    118 O2    s      -0.000126      0.000062     -0.000014      0.000000
    119 O2    s       0.000163     -0.000093      0.000026      0.000000
    120 O2    s       0.000218      0.000052      0.000064      0.000000
--------------------------------------------------------------------------------
  Maximum abs         0.007124      0.003057      0.002174      0.000000
--------------------------------------------------------------------------------


  Born effective charge tensors : 

-------------------------------------------------------------------------------
  Atom             x           y             z
-------------------------------------------------------------------------------
    1 Ge    x       4.3108      0.2657     -0.3116
            y      -0.1573      3.8542      0.0242
            z      -0.5651     -0.1329      4.7266
-------------------------------------------------------------------------------
    2 Ge    x       4.2058     -0.3499     -0.3380
            y       0.2809      3.9144     -0.0325
            z      -0.5743      0.1315      3.9024
-------------------------------------------------------------------------------
    3 Ge    x       4.1673     -0.3134      0.3583
            y       0.3095      3.9104     -0.0523
            z       0.6607     -0.1165      3.9834
-------------------------------------------------------------------------------
    4 Ge    x       4.2431      0.3463     -0.3323
            y      -0.2302      3.9166      0.0576
            z      -0.6570     -0.0920      3.9005
-------------------------------------------------------------------------------
    5 Si    x       3.6319      0.1873      0.1362
            y      -0.1342      3.2907     -0.0016
            z       0.2713     -0.0590      4.0566
-------------------------------------------------------------------------------
    6 Si    x       3.6774     -0.2243     -0.3855
            y       0.1279      3.2672      0.0176
            z      -0.7426      0.1529      4.1590
-------------------------------------------------------------------------------
    7 Si    x       3.6839     -0.2115      0.1103
            y       0.1309      3.2810     -0.0064
            z       0.2823     -0.0013      4.0387
-------------------------------------------------------------------------------
    8 Si    x       3.6190      0.2417      0.1406
            y      -0.1892      3.3498     -0.0318
            z       0.4215     -0.0485      3.2431
-------------------------------------------------------------------------------
    9 Si    x       3.3946      0.2829     -0.2497
            y       0.4126      3.5026     -0.3546
            z      -0.2540     -0.1909      3.0456
-------------------------------------------------------------------------------
   10 Si    x       3.1481      0.1696      0.0645
            y       0.2962      3.4256      0.1726
            z       0.1008      0.0792      2.7917
-------------------------------------------------------------------------------
   11 Si    x       3.1859     -0.1979     -0.0360
            y      -0.3074      3.4485      0.2088
            z      -0.0591      0.0770      2.7460
-------------------------------------------------------------------------------
   12 Si    x       3.1794     -0.1886      0.0519
            y      -0.2989      3.4380     -0.2064
            z       0.1069     -0.0916      2.7865
-------------------------------------------------------------------------------
   13 Si    x       3.2120      0.3013     -0.1343
            y       0.1500      3.4678     -0.1425
            z      -0.1054     -0.0454      2.7243
-------------------------------------------------------------------------------
   14 Si    x       3.1933      0.2936      0.1642
            y       0.1447      3.4675      0.1633
            z       0.1570      0.0654      2.7632
-------------------------------------------------------------------------------
   15 Si    x       3.3047     -0.4038     -0.2928
            y      -0.2624      3.6413      0.3483
            z      -0.2230      0.2318      3.0215
-------------------------------------------------------------------------------
   16 Si    x       3.1724     -0.2681      0.1671
            y      -0.1535      3.4680     -0.1826
            z       0.1198     -0.0716      2.7792
-------------------------------------------------------------------------------
   17 Si    x       3.2558      0.4770     -0.2905
            y       0.1090      3.6593     -0.3905
            z      -0.1835     -0.2617      2.9136
-------------------------------------------------------------------------------
   18 Si    x       3.2928      0.4833      0.2750
            y       0.1250      3.6470      0.3823
            z       0.1472      0.2328      2.8733
-------------------------------------------------------------------------------
   19 Si    x       3.3066     -0.4500     -0.3424
            y      -0.1190      3.6389      0.3893
            z      -0.1640      0.2473      2.9457
-------------------------------------------------------------------------------
   20 Si    x       3.2206     -0.3163      0.2277
            y      -0.0507      3.4417     -0.2125
            z       0.1158     -0.0610      2.6927
-------------------------------------------------------------------------------
   21 Si    x       3.5104      0.3481     -0.3454
            y       0.3809      3.4969     -0.3468
            z      -0.3155     -0.1701      2.9048
-------------------------------------------------------------------------------
   22 Si    x       3.2486      0.2344      0.1751
            y       0.2621      3.3930      0.1692
            z       0.1810      0.0556      2.6734
-------------------------------------------------------------------------------
   23 Si    x       3.4761     -0.3692     -0.3364
            y      -0.4048      3.4879      0.3076
            z      -0.3579      0.1421      2.8731
-------------------------------------------------------------------------------
   24 Si    x       3.4786     -0.3636      0.3345
            y      -0.4039      3.4855     -0.3064
            z       0.3285     -0.1434      2.8477
-------------------------------------------------------------------------------
   25 O3    x      -1.9524     -0.8522      0.5535
            y      -0.8228     -2.3091      0.5175
            z       0.6182      0.5459     -1.7120
-------------------------------------------------------------------------------
   26 O2    x      -1.6166     -0.6531     -0.3643
            y      -0.5986     -2.0083     -0.4063
            z      -0.3718     -0.3788     -1.3914
-------------------------------------------------------------------------------
   27 O2    x      -1.6323      0.6697      0.3081
            y       0.6248     -2.0230     -0.3014
            z       0.3458     -0.2901     -1.3523
-------------------------------------------------------------------------------
   28 O2    x      -1.6178      0.6580     -0.3569
            y       0.6065     -2.0145      0.3881
            z      -0.3874      0.3772     -1.3893
-------------------------------------------------------------------------------
   29 O2    x      -1.7931     -0.6889      0.3122
            y      -0.7554     -1.9196      0.3327
            z       0.3582      0.2988     -1.3313
-------------------------------------------------------------------------------
   30 O2    x      -1.7694     -0.6874     -0.3734
            y      -0.7448     -1.9199     -0.3701
            z      -0.4078     -0.3469     -1.3673
-------------------------------------------------------------------------------
   31 O3    x      -2.0795      0.8769      0.5649
            y       0.9818     -2.2855     -0.6164
            z       0.6087     -0.5617     -1.6772
-------------------------------------------------------------------------------
   32 O2    x      -1.7645      0.6905     -0.3840
            y       0.7350     -1.9105      0.3718
            z      -0.3950      0.3469     -1.3788
-------------------------------------------------------------------------------
   33 O3    x      -1.9668      0.0242      1.1789
            y       0.0136     -1.2219     -0.0183
            z       1.4709     -0.0198     -3.5181
-------------------------------------------------------------------------------
   34 O2    x      -1.6015      0.0189     -0.8397
            y       0.0110     -1.1004      0.0185
            z      -1.0233      0.0421     -2.7991
-------------------------------------------------------------------------------
   35 O1    x      -2.1289      0.0005     -1.0251
            y      -0.0355     -1.3288      0.0199
            z      -1.0345      0.0513     -3.0252
-------------------------------------------------------------------------------
   36 O3    x      -2.0196     -0.0280      0.9844
            y      -0.0730     -1.2804      0.0375
            z       0.9163     -0.0224     -2.7302
-------------------------------------------------------------------------------
   37 O2    x      -1.7204      0.0239     -0.7313
            y       0.0369     -1.1380      0.0266
            z      -0.6982      0.0253     -2.1892
-------------------------------------------------------------------------------
   38 O3    x      -2.0965      0.0249      1.0089
            y       0.0467     -1.2675     -0.0169
            z       0.9974      0.0246     -2.7132
-------------------------------------------------------------------------------
   39 O3    x      -2.0497     -0.8508      0.5479
            y      -0.8233     -2.2787      0.6380
            z       0.5197      0.5737     -1.5570
-------------------------------------------------------------------------------
   40 O3    x      -2.0526     -0.8451     -0.4812
            y      -0.8248     -2.2711     -0.6115
            z      -0.4456     -0.5391     -1.5346
-------------------------------------------------------------------------------
   41 O3    x      -2.0333      0.8306      0.5568
            y       0.8158     -2.2552     -0.6643
            z       0.4996     -0.5664     -1.5956
-------------------------------------------------------------------------------
   42 O2    x      -1.7722      0.6824     -0.3872
            y       0.6415     -1.8771      0.3935
            z      -0.3516      0.3442     -1.2731
-------------------------------------------------------------------------------
   43 O3    x      -1.9617     -0.8530      0.5913
            y      -0.7124     -2.3665      0.5713
            z       0.5883      0.5719     -1.5698
-------------------------------------------------------------------------------
   44 O2    x      -1.6427     -0.6411     -0.3930
            y      -0.5017     -2.0301     -0.4468
            z      -0.3751     -0.3989     -1.2584
-------------------------------------------------------------------------------
   45 O3    x      -1.9879      0.8589      0.5926
            y       0.6828     -2.3703     -0.5605
            z       0.5777     -0.5555     -1.5205
-------------------------------------------------------------------------------
   46 O3    x      -1.9772      0.8548     -0.5690
            y       0.6853     -2.3689      0.5730
            z      -0.5401      0.5363     -1.5082
-------------------------------------------------------------------------------
   47 O1    x      -2.2547      0.0126     -0.8662
            y       0.0143     -1.4895      0.0033
            z      -0.4869     -0.0179     -2.1365
-------------------------------------------------------------------------------
   48 O3    x      -2.1388     -0.0419      0.8446
            y      -0.0532     -1.4274      0.0521
            z       0.4266      0.0203     -1.9387
-------------------------------------------------------------------------------
   49 O2    x      -1.1783     -0.0943      0.0762
            y      -0.1579     -2.4716      0.0571
            z       0.0796      0.0252     -1.0978
-------------------------------------------------------------------------------
   50 O2    x      -1.1630     -0.1016     -0.0581
            y      -0.1730     -2.5649      0.0507
            z      -0.0623      0.0436     -1.0537
-------------------------------------------------------------------------------
   51 O2    x      -1.1707      0.0943      0.0583
            y       0.1782     -2.5595     -0.0188
            z       0.0626      0.0141     -1.0469
-------------------------------------------------------------------------------
   52 O2    x      -1.1690      0.1006     -0.0625
            y       0.1797     -2.5599     -0.0016
            z      -0.0741     -0.0225     -1.0555
-------------------------------------------------------------------------------
   53 O2    x      -2.3656      0.1737      0.0457
            y       0.1045     -1.2754      0.0723
            z       0.0528      0.0388     -1.0725
-------------------------------------------------------------------------------
   54 O2    x      -2.3404      0.1378      0.0388
            y       0.0692     -1.2770     -0.0758
            z       0.0187     -0.0532     -1.0582
-------------------------------------------------------------------------------
   55 O2    x      -2.3809     -0.1621     -0.0149
            y      -0.0853     -1.2660     -0.0737
            z      -0.0009     -0.0417     -1.0525
-------------------------------------------------------------------------------
   56 O2    x      -2.3834     -0.1593     -0.0044
            y      -0.0849     -1.2688      0.0721
            z      -0.0454      0.0394     -1.0499
-------------------------------------------------------------------------------
   57 O2    x      -1.2619     -0.1463     -0.1004
            y      -0.1518     -1.2949     -0.0223
            z      -0.1200     -0.0171     -2.0324
-------------------------------------------------------------------------------
   58 O2    x      -1.2533     -0.1417     -0.0105
            y      -0.1452     -1.2938     -0.0405
            z       0.0010     -0.0510     -2.0315
-------------------------------------------------------------------------------
   59 O2    x      -1.2263      0.1339     -0.0392
            y       0.1347     -1.2864     -0.0330
            z      -0.0571     -0.0523     -2.0101
-------------------------------------------------------------------------------
   60 O2    x      -1.2374      0.1356      0.0467
            y       0.1400     -1.2931      0.0436
            z       0.0664      0.0632     -2.0380
-------------------------------------------------------------------------------
   61 O2    x      -1.1871     -0.1308     -0.0001
            y      -0.0761     -1.3135      0.0269
            z       0.0307      0.0030     -1.9987
-------------------------------------------------------------------------------
   62 O2    x      -1.1732     -0.1254     -0.0015
            y      -0.0731     -1.3216     -0.0217
            z      -0.0277      0.0029     -2.0289
-------------------------------------------------------------------------------
   63 O2    x      -1.1877      0.1278     -0.1043
            y       0.0869     -1.3271     -0.0369
            z      -0.0768     -0.0195     -2.0311
-------------------------------------------------------------------------------
   64 O2    x      -1.1927      0.1320     -0.0592
            y       0.0895     -1.3229     -0.0018
            z      -0.0558     -0.0187     -2.0336
-------------------------------------------------------------------------------
   65 O2    x      -1.2919      0.1244      0.1070
            y       0.2177     -2.3752      0.0136
            z       0.1253     -0.0060     -1.0315
-------------------------------------------------------------------------------
   66 O2    x      -1.2923      0.1212     -0.1021
            y       0.2152     -2.3710     -0.0260
            z      -0.1128      0.0046     -1.0236
-------------------------------------------------------------------------------
   67 O2    x      -1.2693     -0.0982      0.1171
            y      -0.1807     -2.4060      0.0382
            z       0.1139      0.0325     -1.0442
-------------------------------------------------------------------------------
   68 O2    x      -1.2570     -0.1122     -0.0913
            y      -0.2085     -2.4951      0.0732
            z      -0.0965      0.0320     -0.9940
-------------------------------------------------------------------------------
   69 O2    x      -2.3399     -0.1996     -0.0217
            y      -0.1305     -1.2833      0.0686
            z       0.0070      0.0396     -1.0450
-------------------------------------------------------------------------------
   70 O2    x      -2.3455     -0.1971      0.0119
            y      -0.1289     -1.2804     -0.0696
            z       0.0074     -0.0347     -1.0459
-------------------------------------------------------------------------------
   71 O2    x      -2.3957      0.1409      0.0427
            y       0.0896     -1.2613     -0.0673
            z       0.0243     -0.0388     -1.0187
-------------------------------------------------------------------------------
   72 O2    x      -2.4263      0.1861      0.0421
            y       0.1222     -1.2633      0.0672
            z       0.0378      0.0257     -1.0314
-------------------------------------------------------------------------------




  Elastic Constant Matrix: (Units=GPa)

-------------------------------------------------------------------------------
  Indices      1         2         3         4         5         6    
-------------------------------------------------------------------------------
       1     44.9492   19.0823   31.1324   -1.8790    3.2205    0.3745
       2     19.0823   61.2106   17.2625   -1.3683    3.2474    0.2602
       3     31.1324   17.2625   60.7727   -1.7571    3.4863    0.0294
       4     -1.8790   -1.3683   -1.7571   10.3480    0.1524    1.3419
       5      3.2205    3.2474    3.4863    0.1524   21.4623   -1.5563
       6      0.3745    0.2602    0.0294    1.3419   -1.5563   28.8157
-------------------------------------------------------------------------------


  Elastic Compliance Matrix: (Units=1/GPa)

-------------------------------------------------------------------------------
  Indices      1         2         3         4         5         6    
-------------------------------------------------------------------------------
       1    0.037019 -0.006606 -0.016890  0.003093 -0.001881 -0.000650
       2   -0.006606  0.019042 -0.001903  0.001047 -0.001604 -0.000220
       3   -0.016890 -0.001903  0.025757  0.001064 -0.001363  0.000087
       4    0.003093  0.001047  0.001064  0.098157 -0.001835 -0.004721
       5   -0.001881 -0.001604 -0.001363 -0.001835  0.047548  0.002694
       6   -0.000650 -0.000220  0.000087 -0.004721  0.002694  0.035079
-------------------------------------------------------------------------------

  Mechanical properties :

-------------------------------------------------------------------------------
  Convention :                    Reuss         Voigt         Hill
-------------------------------------------------------------------------------
  Bulk  Modulus (GPa)     =      32.23590      33.54301      32.88945
  Shear Modulus (GPa)     =      15.44448      18.75554      17.10001
-------------------------------------------------------------------------------
  Velocity S-wave (km/s)  =       2.78446       3.06845       2.92990
  Velocity P-wave (km/s)  =       5.14978       5.42150       5.28739
-------------------------------------------------------------------------------
  Compressibility (1/GPa) =    0.03102131
-------------------------------------------------------------------------------
  Stress axis :                     x             y             z
-------------------------------------------------------------------------------
  Youngs Moduli (GPa)     =      27.01279      52.51439      38.82509
-------------------------------------------------------------------------------
  Poissons Ratio (x)      =                     0.34690       0.65576
  Poissons Ratio (y)      =       0.17844                     0.07387
  Poissons Ratio (z)      =       0.45625       0.09992
-------------------------------------------------------------------------------


  Piezoelectric Strain Matrix: (Units=C/m**2)

-------------------------------------------------------------------------------
  Indices      1         2         3         4         5         6    
-------------------------------------------------------------------------------
       x    -0.02805  -0.18581  -0.02044  -0.27072  -0.47517  -0.18740
       y     0.10877  -0.13343   0.03293  -0.14400  -0.67525  -0.15441
       z    -0.24224  -0.58826   0.34957   0.08634  -0.35735  -0.03232
-------------------------------------------------------------------------------


  Piezoelectric Stress Matrix: (Units=10**-11 C/N)

-------------------------------------------------------------------------------
  Indices      1         2         3         4         5         6    
-------------------------------------------------------------------------------
       x     0.07124  -0.27941   0.06442  -2.51198  -2.22229  -0.65185
       y     0.52769  -0.23556   0.00185  -1.19354  -3.22938  -0.65941
       z    -1.00261  -0.95960   1.47906   0.82892  -1.63138  -0.21869
-------------------------------------------------------------------------------


  Static dielectric constant tensor : 

-------------------------------------------------------------------------------
              x         y         z
-------------------------------------------------------------------------------
       x     4.19950   0.01975  -0.11118
       y     0.01975   4.08567  -0.00374
       z    -0.11118  -0.00374   3.60824
--------------------------------------------------------------------------------

  High frequency dielectric constant tensor : 

-------------------------------------------------------------------------------
              x         y         z
-------------------------------------------------------------------------------
       x     1.66414  -0.00016   0.00009
       y    -0.00016   1.67533  -0.00054
       z     0.00009  -0.00054   1.60593
-------------------------------------------------------------------------------

  Static refractive indices : 

-------------------------------------------------------------------------------
    1 =    1.89421      2 =    2.02057      3 =    2.05491
-------------------------------------------------------------------------------

  High frequency refractive indices : 

-------------------------------------------------------------------------------
    1 =    1.26725      2 =    1.29001      3 =    1.29435
-------------------------------------------------------------------------------


  Time to end of optimisation =      14.2762 seconds


  Peak dynamic memory used =       5.01 MB 


  Timing analysis for GULP :

--------------------------------------------------------------------------------
  Task / Subroutine                                          Time (Seconds)
--------------------------------------------------------------------------------
  Calculation of reciprocal space energy and derivatives          0.8150
  Calculation of real space energy and derivatives                8.7167
  Calculation of three-body energy and derivatives                0.7690
  Calculation and manipulation of Hessian matrix                  4.3649
  Calculation of matrix inversion                                 0.0230
  Global summation overhead                                       0.0002
--------------------------------------------------------------------------------
  Total CPU time                                                 14.2762
--------------------------------------------------------------------------------


  Dump file written as c00182.vasp.grs
  CIF file written as c00182.vasp.cif


  Job Finished at 12:17.44 31st October    2025                               

