********************************************************************************
*                       GENERAL UTILITY LATTICE PROGRAM                        *
*                                 Julian Gale                                  *
*                       Curtin Institute for Computation                       *
*                    School of Molecular and Life Sciences                     *
*                    Curtin University, Western Australia                      *
********************************************************************************
* Version = 6.1.2 * Last modified =   3rd November 2022                        *
********************************************************************************
*  optimise     - perform optimisation run                                     *
*  conp         - constant pressure calculation                                *
*  property     - calculate properties for final geometry                      *
********************************************************************************

  Job Started  at 12:35.34 31st October    2025                               

  Number of CPUs =     1


  Total number of configurations input =      1

********************************************************************************
*  Input for Configuration =   1 : c00266.vasp                                 *
********************************************************************************

  Formula = Ge4Si20O48                                                  

  Number of irreducible atoms/shells =     120


  Total number atoms/shells =     120

  Dimensionality = 3               :  Bulk   



  Cartesian lattice vectors (Angstroms) :

       17.182800    0.000000    0.000000
        0.000000    7.513760    0.000000
        0.000000    0.000000   10.447700

  Cell parameters (Angstroms/Degrees):

  a =      17.1828    alpha =  90.0000
  b =       7.5138    beta  =  90.0000
  c =      10.4477    gamma =  90.0000

  Initial cell volume =        1348.875752 Angs**3

  Temperature of configuration =   0.00     K 

  Pressure of configuration =         0.000 GPa 

  Fractional coordinates of asymmetric unit :

--------------------------------------------------------------------------------
   No.  Atomic       x           y          z         Charge      Occupancy
        Label      (Frac)      (Frac)     (Frac)        (e)         (Frac)  
--------------------------------------------------------------------------------
      1 Ge    c    0.052090    0.000000    0.372270     4.00000    1.000000    
      2 Ge    c    0.556730 *  0.000000 *  0.122130 *   4.00000    1.000000    
      3 Ge    c    0.839340 *  0.705910 *  0.017440 *   4.00000    1.000000    
      4 Ge    c    0.339340 *  0.705910 *  0.982560 *   4.00000    1.000000    
      5 Si    c    0.447910 *  0.000000 *  0.372270 *   4.00000    1.000000    
      6 Si    c    0.947910 *  0.000000 *  0.627730 *   4.00000    1.000000    
      7 Si    c    0.552090 *  0.000000 *  0.627730 *   4.00000    1.000000    
      8 Si    c    0.943270 *  0.000000 *  0.122130 *   4.00000    1.000000    
      9 Si    c    0.443270 *  0.000000 *  0.877870 *   4.00000    1.000000    
     10 Si    c    0.056730 *  0.000000 *  0.877870 *   4.00000    1.000000    
     11 Si    c    0.160190 *  0.293910 *  0.273440 *   4.00000    1.000000    
     12 Si    c    0.339810 *  0.706090 *  0.273440 *   4.00000    1.000000    
     13 Si    c    0.839810 *  0.293910 *  0.726560 *   4.00000    1.000000    
     14 Si    c    0.660190 *  0.706090 *  0.726560 *   4.00000    1.000000    
     15 Si    c    0.839810 *  0.706090 *  0.726560 *   4.00000    1.000000    
     16 Si    c    0.660190 *  0.293910 *  0.726560 *   4.00000    1.000000    
     17 Si    c    0.160190 *  0.706090 *  0.273440 *   4.00000    1.000000    
     18 Si    c    0.339810 *  0.293910 *  0.273440 *   4.00000    1.000000    
     19 Si    c    0.660660 *  0.294090 *  0.017440 *   4.00000    1.000000    
     20 Si    c    0.339340 *  0.294090 *  0.982560 *   4.00000    1.000000    
     21 Si    c    0.160660 *  0.705910 *  0.982560 *   4.00000    1.000000    
     22 Si    c    0.160660 *  0.294090 *  0.982560 *   4.00000    1.000000    
     23 Si    c    0.660660 *  0.705910 *  0.017440 *   4.00000    1.000000    
     24 Si    c    0.839340 *  0.294090 *  0.017440 *   4.00000    1.000000    
     25 O3    c    0.106570 *  0.174340 *  0.366200 *   1.33043    1.000000    
     26 O2    c    0.393430 *  0.825660 *  0.366200 *   0.87073    1.000000    
     27 O2    c    0.893430 *  0.174340 *  0.633800 *   0.87073    1.000000    
     28 O2    c    0.606570 *  0.825660 *  0.633800 *   0.87073    1.000000    
     29 O2    c    0.893430 *  0.825660 *  0.633800 *   0.87073    1.000000    
     30 O2    c    0.606570 *  0.174340 *  0.633800 *   0.87073    1.000000    
     31 O3    c    0.106570 *  0.825660 *  0.366200 *   1.33043    1.000000    
     32 O2    c    0.393430 *  0.174340 *  0.366200 *   0.87073    1.000000    
     33 O3    c    0.000000 *  0.000000 *  0.500000 *   1.33043    1.000000    
     34 O2    c    0.500000 *  0.000000 *  0.500000 *   0.87073    1.000000    
     35 O3    c    0.994520 *  0.000000 *  0.250840 *   1.33043    1.000000    
     36 O3    c    0.505480 *  0.000000 *  0.250840 *   1.33043    1.000000    
     37 O2    c    0.005480 *  0.000000 *  0.749160 *   0.87073    1.000000    
     38 O2    c    0.494520 *  0.000000 *  0.749160 *   0.87073    1.000000    
     39 O3    c    0.610230 *  0.175520 *  0.115390 *   1.33043    1.000000    
     40 O3    c    0.889770 *  0.824480 *  0.115390 *   1.33043    1.000000    
     41 O2    c    0.389770 *  0.175520 *  0.884610 *   0.87073    1.000000    
     42 O2    c    0.110230 *  0.824480 *  0.884610 *   0.87073    1.000000    
     43 O3    c    0.389770 *  0.824480 *  0.884610 *   1.33043    1.000000    
     44 O2    c    0.110230 *  0.175520 *  0.884610 *   0.87073    1.000000    
     45 O3    c    0.610230 *  0.824480 *  0.115390 *   1.33043    1.000000    
     46 O2    c    0.889770 *  0.175520 *  0.115390 *   0.87073    1.000000    
     47 O3    c    0.500000 *  0.000000 *  0.000000 *   1.33043    1.000000    
     48 O2    c    0.000000 *  0.000000 *  0.000000 *   0.87073    1.000000    
     49 O2    c    0.151750 *  0.500000 *  0.313330 *   0.87073    1.000000    
     50 O2    c    0.348250 *  0.500000 *  0.313330 *   0.87073    1.000000    
     51 O2    c    0.848250 *  0.500000 *  0.686670 *   0.87073    1.000000    
     52 O2    c    0.651750 *  0.500000 *  0.686670 *   0.87073    1.000000    
     53 O2    c    0.250000 *  0.234950 *  0.285720 *   0.87073    1.000000    
     54 O2    c    0.250000 *  0.765050 *  0.285720 *   0.87073    1.000000    
     55 O2    c    0.750000 *  0.234950 *  0.714280 *   0.87073    1.000000    
     56 O2    c    0.750000 *  0.765050 *  0.714280 *   0.87073    1.000000    
     57 O2    c    0.131410 *  0.268650 *  0.127790 *   0.87073    1.000000    
     58 O3    c    0.368590 *  0.731350 *  0.127790 *   1.33043    1.000000    
     59 O2    c    0.868590 *  0.268650 *  0.872210 *   0.87073    1.000000    
     60 O2    c    0.631410 *  0.731350 *  0.872210 *   0.87073    1.000000    
     61 O3    c    0.868590 *  0.731350 *  0.872210 *   1.33043    1.000000    
     62 O2    c    0.631410 *  0.268650 *  0.872210 *   0.87073    1.000000    
     63 O2    c    0.131410 *  0.731350 *  0.127790 *   0.87073    1.000000    
     64 O2    c    0.368590 *  0.268650 *  0.127790 *   0.87073    1.000000    
     65 O2    c    0.653920 *  0.500000 *  0.058200 *   0.87073    1.000000    
     66 O3    c    0.846080 *  0.500000 *  0.058200 *   1.33043    1.000000    
     67 O3    c    0.346080 *  0.500000 *  0.941800 *   1.33043    1.000000    
     68 O2    c    0.153920 *  0.500000 *  0.941800 *   0.87073    1.000000    
     69 O2    c    0.750000 *  0.231060 *  0.027050 *   0.87073    1.000000    
     70 O3    c    0.750000 *  0.768940 *  0.027050 *   1.33043    1.000000    
     71 O2    c    0.250000 *  0.231060 *  0.972950 *   0.87073    1.000000    
     72 O3    c    0.250000 *  0.768940 *  0.972950 *   1.33043    1.000000    
     73 O3    s    0.106570 *  0.174340 *  0.366200 *  -3.33043    1.000000    
     74 O2    s    0.393430 *  0.825660 *  0.366200 *  -2.87073    1.000000    
     75 O2    s    0.893430 *  0.174340 *  0.633800 *  -2.87073    1.000000    
     76 O2    s    0.606570 *  0.825660 *  0.633800 *  -2.87073    1.000000    
     77 O2    s    0.893430 *  0.825660 *  0.633800 *  -2.87073    1.000000    
     78 O2    s    0.606570 *  0.174340 *  0.633800 *  -2.87073    1.000000    
     79 O3    s    0.106570 *  0.825660 *  0.366200 *  -3.33043    1.000000    
     80 O2    s    0.393430 *  0.174340 *  0.366200 *  -2.87073    1.000000    
     81 O3    s    0.000000 *  0.000000 *  0.500000 *  -3.33043    1.000000    
     82 O2    s    0.500000 *  0.000000 *  0.500000 *  -2.87073    1.000000    
     83 O3    s    0.994520 *  0.000000 *  0.250840 *  -3.33043    1.000000    
     84 O3    s    0.505480 *  0.000000 *  0.250840 *  -3.33043    1.000000    
     85 O2    s    0.005480 *  0.000000 *  0.749160 *  -2.87073    1.000000    
     86 O2    s    0.494520 *  0.000000 *  0.749160 *  -2.87073    1.000000    
     87 O3    s    0.610230 *  0.175520 *  0.115390 *  -3.33043    1.000000    
     88 O3    s    0.889770 *  0.824480 *  0.115390 *  -3.33043    1.000000    
     89 O2    s    0.389770 *  0.175520 *  0.884610 *  -2.87073    1.000000    
     90 O2    s    0.110230 *  0.824480 *  0.884610 *  -2.87073    1.000000    
     91 O3    s    0.389770 *  0.824480 *  0.884610 *  -3.33043    1.000000    
     92 O2    s    0.110230 *  0.175520 *  0.884610 *  -2.87073    1.000000    
     93 O3    s    0.610230 *  0.824480 *  0.115390 *  -3.33043    1.000000    
     94 O2    s    0.889770 *  0.175520 *  0.115390 *  -2.87073    1.000000    
     95 O3    s    0.500000 *  0.000000 *  0.000000 *  -3.33043    1.000000    
     96 O2    s    0.000000 *  0.000000 *  0.000000 *  -2.87073    1.000000    
     97 O2    s    0.151750 *  0.500000 *  0.313330 *  -2.87073    1.000000    
     98 O2    s    0.348250 *  0.500000 *  0.313330 *  -2.87073    1.000000    
     99 O2    s    0.848250 *  0.500000 *  0.686670 *  -2.87073    1.000000    
    100 O2    s    0.651750 *  0.500000 *  0.686670 *  -2.87073    1.000000    
    101 O2    s    0.250000 *  0.234950 *  0.285720 *  -2.87073    1.000000    
    102 O2    s    0.250000 *  0.765050 *  0.285720 *  -2.87073    1.000000    
    103 O2    s    0.750000 *  0.234950 *  0.714280 *  -2.87073    1.000000    
    104 O2    s    0.750000 *  0.765050 *  0.714280 *  -2.87073    1.000000    
    105 O2    s    0.131410 *  0.268650 *  0.127790 *  -2.87073    1.000000    
    106 O3    s    0.368590 *  0.731350 *  0.127790 *  -3.33043    1.000000    
    107 O2    s    0.868590 *  0.268650 *  0.872210 *  -2.87073    1.000000    
    108 O2    s    0.631410 *  0.731350 *  0.872210 *  -2.87073    1.000000    
    109 O3    s    0.868590 *  0.731350 *  0.872210 *  -3.33043    1.000000    
    110 O2    s    0.631410 *  0.268650 *  0.872210 *  -2.87073    1.000000    
    111 O2    s    0.131410 *  0.731350 *  0.127790 *  -2.87073    1.000000    
    112 O2    s    0.368590 *  0.268650 *  0.127790 *  -2.87073    1.000000    
    113 O2    s    0.653920 *  0.500000 *  0.058200 *  -2.87073    1.000000    
    114 O3    s    0.846080 *  0.500000 *  0.058200 *  -3.33043    1.000000    
    115 O3    s    0.346080 *  0.500000 *  0.941800 *  -3.33043    1.000000    
    116 O2    s    0.153920 *  0.500000 *  0.941800 *  -2.87073    1.000000    
    117 O2    s    0.750000 *  0.231060 *  0.027050 *  -2.87073    1.000000    
    118 O3    s    0.750000 *  0.768940 *  0.027050 *  -3.33043    1.000000    
    119 O2    s    0.250000 *  0.231060 *  0.972950 *  -2.87073    1.000000    
    120 O3    s    0.250000 *  0.768940 *  0.972950 *  -3.33043    1.000000    
--------------------------------------------------------------------------------



********************************************************************************
*  General input information                                                   *
********************************************************************************

  Species output for all configurations : 

--------------------------------------------------------------------------------
  Species    Type    Atomic    Atomic    Charge       Radii (Angs)     Library
                     Number     Mass       (e)     Cova   Ionic  VDW   Symbol
--------------------------------------------------------------------------------
    Ge       Core       32      72.61   4.000000   1.170  0.000  1.750 Ge       
    Si       Core       14      28.09   4.000000   1.200  0.000  2.100 Si       
    O1       Core        8      16.00   1.733957   0.730  0.000  0.000 O1       
    O2       Core        8      16.00   0.870733   0.730  0.000  1.360 O2       
    O3       Core        8      16.00   1.330431   0.730  0.000  1.360 O3       
    O1       Shell       8       0.00  -3.733957   0.730  0.000  0.000 O1       
    O2       Shell       8       0.00  -2.870733   0.730  0.000  0.000 O2       
    O3       Shell       8       0.00  -3.330431   0.730  0.000  0.000 O3       
--------------------------------------------------------------------------------


  Lattice summation method               =    Ewald          (3-D)
                                         =    Parry          (2-D)
                                         =    Saunders et al (1-D)
  Accuracy factor for lattice sums       =   12.000


  Analytic derivatives to be used

  Time limit = Infinity

  Maximum range for interatomic potentials =    100000.000000 Angstroms

  General interatomic potentials :

--------------------------------------------------------------------------------
Atom  Types   Potential      Parameter       Value         Units   Cutoffs(Ang)
  1     2                                                            Min /  Max 
--------------------------------------------------------------------------------
Si   c O1   s Buckingham    Buckingham A     1315.2478    eV        0.000 16.000
                            Buckingham rho  0.31775900    Ang       
                            Buckingham C     10.141118    eV*Ang^6  
--------------------------------------------------------------------------------
Si   c O2   s Buckingham    Buckingham A     1315.2478    eV        0.000 16.000
                            Buckingham rho  0.31775900    Ang       
                            Buckingham C     10.141118    eV*Ang^6  
--------------------------------------------------------------------------------
Si   c O3   s Buckingham    Buckingham A     1315.2478    eV        0.000 16.000
                            Buckingham rho  0.31775900    Ang       
                            Buckingham C     10.141118    eV*Ang^6  
--------------------------------------------------------------------------------
Ge   c O1   s Buckingham    Buckingham A     1497.3996    eV        0.000 16.000
                            Buckingham rho  0.32564600    Ang       
                            Buckingham C     16.808599    eV*Ang^6  
--------------------------------------------------------------------------------
Ge   c O2   s Buckingham    Buckingham A     1497.3996    eV        0.000 16.000
                            Buckingham rho  0.32564600    Ang       
                            Buckingham C     16.808599    eV*Ang^6  
--------------------------------------------------------------------------------
Ge   c O3   s Buckingham    Buckingham A     1497.3996    eV        0.000 16.000
                            Buckingham rho  0.32564600    Ang       
                            Buckingham C     16.808599    eV*Ang^6  
--------------------------------------------------------------------------------
O1   s O1   s Buckingham    Buckingham A     22764.000    eV        0.000 16.000
                            Buckingham rho  0.14900000    Ang       
                            Buckingham C     10.937044    eV*Ang^6  
--------------------------------------------------------------------------------
O1   s O2   s Buckingham    Buckingham A     22764.000    eV        0.000 16.000
                            Buckingham rho  0.14900000    Ang       
                            Buckingham C     10.937044    eV*Ang^6  
--------------------------------------------------------------------------------
O1   s O3   s Buckingham    Buckingham A     22764.000    eV        0.000 16.000
                            Buckingham rho  0.14900000    Ang       
                            Buckingham C     10.937044    eV*Ang^6  
--------------------------------------------------------------------------------
O2   s O2   s Buckingham    Buckingham A     22764.000    eV        0.000 16.000
                            Buckingham rho  0.14900000    Ang       
                            Buckingham C     10.937044    eV*Ang^6  
--------------------------------------------------------------------------------
O2   s O3   s Buckingham    Buckingham A     22764.000    eV        0.000 16.000
                            Buckingham rho  0.14900000    Ang       
                            Buckingham C     10.937044    eV*Ang^6  
--------------------------------------------------------------------------------
O3   s O3   s Buckingham    Buckingham A     22764.000    eV        0.000 16.000
                            Buckingham rho  0.14900000    Ang       
                            Buckingham C     10.937044    eV*Ang^6  
--------------------------------------------------------------------------------
O1   c O1   s Spring (c-s)  Spring k 2       180.31577    eV*Ang^-2 0.000  0.800
                            Spring k 4       0.0000000    eV*Ang^-4 
--------------------------------------------------------------------------------
O2   c O2   s Spring (c-s)  Spring k 2       75.969800    eV*Ang^-2 0.000  0.800
                            Spring k 4       0.0000000    eV*Ang^-4 
--------------------------------------------------------------------------------
O3   c O3   s Spring (c-s)  Spring k 2       128.14270    eV*Ang^-2 0.000  0.800
                            Spring k 4       0.0000000    eV*Ang^-4 
--------------------------------------------------------------------------------

  General Three-body potentials :

--------------------------------------------------------------------------------
  Atoms       Potential      Parameter       Value         Units   Cutoffs(Ang)
  1 / 2 / 3                                                          Min /  Max 
--------------------------------------------------------------------------------
Si    core    Harmonic      Three-body cnst  1.2614000    eV*rad^-2 0.000  1.900
O1    shel                  Three-body angl  109.47000    degrees   0.000  1.900
O1    shel                  Three-body k4    0.0000000    eV*rad^-4 0.000  3.500
                            Three-body k3    0.0000000    eV*rad^-3 
--------------------------------------------------------------------------------
Si    core    Harmonic      Three-body cnst  1.2614000    eV*rad^-2 0.000  1.900
O1    shel                  Three-body angl  109.47000    degrees   0.000  1.900
õ(1   shel                  Three-body k4    0.0000000    eV*rad^-4 0.000  3.500
                            Three-body k3    0.0000000    eV*rad^-3 
--------------------------------------------------------------------------------
Si    core    Harmonic      Three-body cnst  1.2614000    eV*rad^-2 0.000  1.900
õ(1   shel                  Three-body angl  109.47000    degrees   0.000  1.900
õ(1   shel                  Three-body k4    0.0000000    eV*rad^-4 0.000  3.500
                            Three-body k3    0.0000000    eV*rad^-3 
--------------------------------------------------------------------------------
Si    core    Harmonic      Three-body cnst  1.2614000    eV*rad^-2 0.000  1.900
O1    shel                  Three-body angl  109.47000    degrees   0.000  1.900
O2    shel                  Three-body k4    0.0000000    eV*rad^-4 0.000  3.500
                            Three-body k3    0.0000000    eV*rad^-3 
--------------------------------------------------------------------------------
Si    core    Harmonic      Three-body cnst  1.2614000    eV*rad^-2 0.000  1.900
O1    shel                  Three-body angl  109.47000    degrees   0.000  1.900
õ(2   shel                  Three-body k4    0.0000000    eV*rad^-4 0.000  3.500
                            Three-body k3    0.0000000    eV*rad^-3 
--------------------------------------------------------------------------------
Si    core    Harmonic      Three-body cnst  1.2614000    eV*rad^-2 0.000  1.900
O2    shel                  Three-body angl  109.47000    degrees   0.000  1.900
õ(1   shel                  Three-body k4    0.0000000    eV*rad^-4 0.000  3.500
                            Three-body k3    0.0000000    eV*rad^-3 
--------------------------------------------------------------------------------
Si    core    Harmonic      Three-body cnst  1.2614000    eV*rad^-2 0.000  1.900
õ(1   shel                  Three-body angl  109.47000    degrees   0.000  1.900
õ(2   shel                  Three-body k4    0.0000000    eV*rad^-4 0.000  3.500
                            Three-body k3    0.0000000    eV*rad^-3 
--------------------------------------------------------------------------------
Si    core    Harmonic      Three-body cnst  1.2614000    eV*rad^-2 0.000  1.900
O2    shel                  Three-body angl  109.47000    degrees   0.000  1.900
O2    shel                  Three-body k4    0.0000000    eV*rad^-4 0.000  3.500
                            Three-body k3    0.0000000    eV*rad^-3 
--------------------------------------------------------------------------------
Si    core    Harmonic      Three-body cnst  1.2614000    eV*rad^-2 0.000  1.900
O2    shel                  Three-body angl  109.47000    degrees   0.000  1.900
õ(2   shel                  Three-body k4    0.0000000    eV*rad^-4 0.000  3.500
                            Three-body k3    0.0000000    eV*rad^-3 
--------------------------------------------------------------------------------
Si    core    Harmonic      Three-body cnst  1.2614000    eV*rad^-2 0.000  1.900
õ(2   shel                  Three-body angl  109.47000    degrees   0.000  1.900
õ(2   shel                  Three-body k4    0.0000000    eV*rad^-4 0.000  3.500
                            Three-body k3    0.0000000    eV*rad^-3 
--------------------------------------------------------------------------------

********************************************************************************
*  Output for configuration   1 : c00266.vasp                                  *
********************************************************************************


  Components of energy : 

--------------------------------------------------------------------------------
  Interatomic potentials     =         768.38726474 eV    
  Three-body potentials      =           0.00962801 eV    
  Monopole - monopole (real) =       -2676.00317478 eV    
  Monopole - monopole (recip)=       -1115.35404472 eV    
  Monopole - monopole (total)=       -3791.35721950 eV    
--------------------------------------------------------------------------------
  Total lattice energy       =       -3022.96032675 eV    
--------------------------------------------------------------------------------
  Total lattice energy       =         -291669.4614 kJ/(mole unit cells)
--------------------------------------------------------------------------------


  Number of variables =      363

  Maximum number of calculations  =          1000
  Maximum Hessian update interval =            10
  Maximum step size               =   0.100000000
  Maximum parameter tolerance     =   0.000010000
  Maximum function  tolerance     =   0.000010000
  Maximum gradient  tolerance     =   0.001000000
  Maximum gradient  component     =   0.010000000

  Symmetry not applied to optimisation

  Cell parameters to be optimised using strains

  Newton-Raphson optimiser to be used

  BFGS hessian update to be used

  Lower half triangular hessian to be used

  Minimiser to switch to RFO
  When gradient norm is less than     0.050000

  Dumpfile to be written after every cycle

  Start of bulk optimisation :

  Cycle:      0 Energy:     -3022.960327  Gnorm:      4.470491  CPU:    0.105
  ** Hessian calculated **
  Cycle:      1 Energy:     -3054.292415  Gnorm:      1.019175  CPU:    0.228
  ** Hessian calculated **
  Cycle:      2 Energy:     -3056.943734  Gnorm:      0.592007  CPU:    0.416
  Cycle:      3 Energy:     -3057.903455  Gnorm:      0.400369  CPU:    0.516
  Cycle:      4 Energy:     -3058.812671  Gnorm:      0.310253  CPU:    0.634
  Cycle:      5 Energy:     -3059.609960  Gnorm:      0.229574  CPU:    0.751
  Cycle:      6 Energy:     -3060.037612  Gnorm:      0.174894  CPU:    0.852
  Cycle:      7 Energy:     -3060.271783  Gnorm:      0.123075  CPU:    0.943
  Cycle:      8 Energy:     -3060.388991  Gnorm:      0.092021  CPU:    1.044
  Cycle:      9 Energy:     -3060.440617  Gnorm:      0.066299  CPU:    1.143
  Cycle:     10 Energy:     -3060.483065  Gnorm:      0.060743  CPU:    1.261
  Cycle:     11 Energy:     -3060.523367  Gnorm:      0.062884  CPU:    1.373
  ** Hessian calculated **
  Cycle:     12 Energy:     -3060.538427  Gnorm:      0.062066  CPU:    1.574
  Cycle:     13 Energy:     -3060.563888  Gnorm:      0.060657  CPU:    1.704
  Cycle:     14 Energy:     -3060.604008  Gnorm:      0.058268  CPU:    1.834
  Cycle:     15 Energy:     -3060.653761  Gnorm:      0.054863  CPU:    1.946
  Cycle:     16 Energy:     -3060.719135  Gnorm:      0.049830  CPU:    2.072
  ** Hessian has wrong structure
  ** Imaginary eigenvectors =   4
  Cycle:     17 Energy:     -3060.744691  Gnorm:      0.152653  CPU:    2.327
  ** Hessian has wrong structure
  ** Imaginary eigenvectors =   3
  ** Hessian has wrong structure
  ** Imaginary eigenvectors =   3
  Cycle:     18 Energy:     -3060.787945  Gnorm:      0.157587  CPU:    2.870
  ** Hessian has wrong structure
  ** Imaginary eigenvectors =   1
  ** Hessian has required structure
  Cycle:     19 Energy:     -3061.068042  Gnorm:      0.101072  CPU:    3.344
  ** Hessian has required structure
  Cycle:     20 Energy:     -3061.189120  Gnorm:      0.048927  CPU:    3.496
  ** Hessian has required structure
  Cycle:     21 Energy:     -3061.244508  Gnorm:      0.041947  CPU:    3.666
  ** Hessian has required structure
  Cycle:     22 Energy:     -3061.266181  Gnorm:      0.043022  CPU:    3.815
  ** Hessian has required structure
  Cycle:     23 Energy:     -3061.304385  Gnorm:      0.032813  CPU:    3.968
  ** Hessian has required structure
  Cycle:     24 Energy:     -3061.314871  Gnorm:      0.032311  CPU:    4.126
  ** Hessian has required structure
  Cycle:     25 Energy:     -3061.327064  Gnorm:      0.028979  CPU:    4.305
  ** Hessian has required structure
  Cycle:     26 Energy:     -3061.341817  Gnorm:      0.022052  CPU:    4.465
  ** Hessian has required structure
  Cycle:     27 Energy:     -3061.350758  Gnorm:      0.019721  CPU:    4.646
  ** Hessian has required structure
  Cycle:     28 Energy:     -3061.359958  Gnorm:      0.022981  CPU:    4.822
  ** Hessian has required structure
  Cycle:     29 Energy:     -3061.377526  Gnorm:      0.020529  CPU:    5.077
  ** Hessian has required structure
  Cycle:     30 Energy:     -3061.397647  Gnorm:      0.024504  CPU:    5.252
  ** Hessian has required structure
  Cycle:     31 Energy:     -3061.406694  Gnorm:      0.018136  CPU:    5.407
  ** Hessian has required structure
  Cycle:     32 Energy:     -3061.411273  Gnorm:      0.015714  CPU:    5.562
  ** Hessian has required structure
  Cycle:     33 Energy:     -3061.415220  Gnorm:      0.012720  CPU:    5.717
  ** Hessian has required structure
  Cycle:     34 Energy:     -3061.416732  Gnorm:      0.006078  CPU:    5.853
  ** Hessian has required structure
  Cycle:     35 Energy:     -3061.417549  Gnorm:      0.005156  CPU:    6.008
  ** Hessian has required structure
  Cycle:     36 Energy:     -3061.418367  Gnorm:      0.004858  CPU:    6.181
  ** Hessian has required structure
  Cycle:     37 Energy:     -3061.418845  Gnorm:      0.003769  CPU:    6.350
  ** Hessian has required structure
  Cycle:     38 Energy:     -3061.419149  Gnorm:      0.003354  CPU:    6.503
  ** Hessian has required structure
  Cycle:     39 Energy:     -3061.419567  Gnorm:      0.001949  CPU:    6.755
  ** Hessian has required structure
  Cycle:     40 Energy:     -3061.419715  Gnorm:      0.001254  CPU:    6.927
  ** Hessian has required structure
  Cycle:     41 Energy:     -3061.419776  Gnorm:      0.000745  CPU:    7.101
  ** Hessian has required structure
  Cycle:     42 Energy:     -3061.419795  Gnorm:      0.000495  CPU:    7.256
  ** Hessian has required structure
  Cycle:     43 Energy:     -3061.419802  Gnorm:      0.000313  CPU:    7.411
  ** Hessian has required structure
  Cycle:     44 Energy:     -3061.419805  Gnorm:      0.000254  CPU:    7.546
  ** Hessian has required structure
  Cycle:     45 Energy:     -3061.419805  Gnorm:      0.000239  CPU:    7.682
  ** Hessian has required structure
  Cycle:     46 Energy:     -3061.419806  Gnorm:      0.000235  CPU:    7.818
  ** Hessian has required structure
  Cycle:     47 Energy:     -3061.419807  Gnorm:      0.000210  CPU:    7.958
  ** Hessian has required structure
  Cycle:     48 Energy:     -3061.419808  Gnorm:      0.000197  CPU:    8.090
  ** Hessian has required structure
  Cycle:     49 Energy:     -3061.419808  Gnorm:      0.000197  CPU:    8.363
  ** Hessian calculated **
  Cycle:     50 Energy:     -3061.419808  Gnorm:      0.000115  CPU:    8.527
  ** Hessian has required structure
  Cycle:     51 Energy:     -3061.419808  Gnorm:      0.000157  CPU:    8.666
  ** Hessian has required structure
  Cycle:     52 Energy:     -3061.419808  Gnorm:      0.000157  CPU:    8.800
  ** Hessian has required structure
  Cycle:     53 Energy:     -3061.419808  Gnorm:      0.000164  CPU:    8.934
  ** Hessian has required structure
  Cycle:     54 Energy:     -3061.419809  Gnorm:      0.000144  CPU:    9.068
  ** Hessian has required structure
  Cycle:     55 Energy:     -3061.419809  Gnorm:      0.000134  CPU:    9.205
  ** Hessian has required structure
  Cycle:     56 Energy:     -3061.419809  Gnorm:      0.000130  CPU:    9.340
  ** Hessian has required structure
  Cycle:     57 Energy:     -3061.419809  Gnorm:      0.000131  CPU:    9.515
  ** Hessian has required structure
  Cycle:     58 Energy:     -3061.419809  Gnorm:      0.000121  CPU:    9.644
  ** Hessian has required structure
  Cycle:     59 Energy:     -3061.419809  Gnorm:      0.000123  CPU:    9.772
  ** Hessian has required structure
  Cycle:     60 Energy:     -3061.419809  Gnorm:      0.000119  CPU:    9.990
  ** Hessian has required structure
  Cycle:     61 Energy:     -3061.419809  Gnorm:      0.000124  CPU:   10.198
  ** Hessian has required structure
  Cycle:     62 Energy:     -3061.419809  Gnorm:      0.000125  CPU:   10.389
  ** Hessian has wrong structure
  ** Imaginary eigenvectors =   1
  ** Hessian has required structure
  Cycle:     63 Energy:     -3061.419809  Gnorm:      0.000125  CPU:   10.806
  ** Hessian calculated **


  **** Optimisation achieved ****


  Final energy =   -3061.41980912 eV      
  Final Gnorm  =       0.00012505

  Components of energy : 

--------------------------------------------------------------------------------
  Interatomic potentials     =         815.48993749 eV    
  Three-body potentials      =           0.20216400 eV    
  Monopole - monopole (real) =       -2170.96067908 eV    
  Monopole - monopole (recip)=       -1706.15123153 eV    
  Monopole - monopole (total)=       -3877.11191061 eV    
--------------------------------------------------------------------------------
  Total lattice energy       =       -3061.41980912 eV    
--------------------------------------------------------------------------------
  Total lattice energy       =         -295380.2135 kJ/(mole unit cells)
--------------------------------------------------------------------------------

  Final fractional coordinates of atoms :

--------------------------------------------------------------------------------
   No.  Atomic        x           y          z          Radius
        Label       (Frac)      (Frac)     (Frac)       (Angs) 
--------------------------------------------------------------------------------
     1  Ge    c     0.052090    0.000000    0.372270    0.000000
     2  Ge    c     0.552940    0.002847    0.126073    0.000000
     3  Ge    c     0.854442    0.671909    0.033537    0.000000
     4  Ge    c     0.329960    0.719235    0.973257    0.000000
     5  Si    c     0.452620    0.011266    0.381514    0.000000
     6  Si    c     0.949239    0.995913    0.632154    0.000000
     7  Si    c     0.550677    0.014284    0.641006    0.000000
     8  Si    c     0.945576    0.996225    0.116814    0.000000
     9  Si    c     0.440430    0.000118    0.882755    0.000000
    10  Si    c     0.054315    0.992821    0.881483    0.000000
    11  Si    c     0.172029    0.281283    0.288869    0.000000
    12  Si    c     0.335801    0.726186    0.280814    0.000000
    13  Si    c     0.832796    0.286966    0.723792    0.000000
    14  Si    c     0.667519    0.724826    0.725485    0.000000
    15  Si    c     0.848036    0.690757    0.726179    0.000000
    16  Si    c     0.654235    0.320163    0.718220    0.000000
    17  Si    c     0.156270    0.686401    0.285197    0.000000
    18  Si    c     0.352541    0.319431    0.282334    0.000000
    19  Si    c     0.648747    0.320261    0.018756    0.000000
    20  Si    c     0.348678    0.315383    0.983237    0.000000
    21  Si    c     0.147012    0.676363    0.983426    0.000000
    22  Si    c     0.165837    0.276551    0.989693    0.000000
    23  Si    c     0.670106    0.718849    0.026680    0.000000
    24  Si    c     0.828175    0.271276    0.027926    0.000000
    25  O3    c     0.126395    0.154417    0.382077    0.000000
    26  O2    c     0.387370    0.859090    0.367014    0.000000
    27  O2    c     0.886105    0.152070    0.646363    0.000000
    28  O2    c     0.615250    0.858772    0.640421    0.000000
    29  O2    c     0.905467    0.808451    0.640578    0.000000
    30  O2    c     0.594499    0.202286    0.632747    0.000000
    31  O3    c     0.095911    0.795337    0.368072    0.000000
    32  O2    c     0.412387    0.203851    0.368203    0.000000
    33  O3    c     0.987700    0.013063    0.495182    0.000000
    34  O2    c     0.490663    0.993966    0.522928    0.000000
    35  O3    c     0.997659    0.052671    0.236629    0.000000
    36  O3    c     0.520606    0.988564    0.280703    0.000000
    37  O2    c     0.019433    0.011394    0.737872    0.000000
    38  O2    c     0.501543    0.000734    0.770036    0.000000
    39  O3    c     0.585993    0.213405    0.096543    0.000000
    40  O3    c     0.920365    0.793230    0.124784    0.000000
    41  O2    c     0.401729    0.193180    0.894604    0.000000
    42  O2    c     0.084241    0.792493    0.902755    0.000000
    43  O3    c     0.371910    0.858892    0.864676    0.000000
    44  O2    c     0.125472    0.131308    0.898211    0.000000
    45  O3    c     0.629174    0.856343    0.117240    0.000000
    46  O2    c     0.865389    0.110029    0.107756    0.000000
    47  O3    c     0.482029    0.940739    0.016238    0.000000
    48  O2    c     0.989576    0.040444    0.984606    0.000000
    49  O2    c     0.142083    0.480334    0.308696    0.000000
    50  O2    c     0.367840    0.527047    0.301610    0.000000
    51  O2    c     0.863949    0.484391    0.699277    0.000000
    52  O2    c     0.636959    0.526908    0.697222    0.000000
    53  O2    c     0.264495    0.272165    0.321098    0.000000
    54  O2    c     0.245546    0.737095    0.323855    0.000000
    55  O2    c     0.742460    0.274569    0.675424    0.000000
    56  O2    c     0.758264    0.738518    0.687500    0.000000
    57  O2    c     0.157324    0.221962    0.139575    0.000000
    58  O3    c     0.341175    0.782512    0.132682    0.000000
    59  O2    c     0.835853    0.241023    0.874651    0.000000
    60  O2    c     0.661425    0.776036    0.876032    0.000000
    61  O3    c     0.866689    0.732566    0.874419    0.000000
    62  O2    c     0.641716    0.269028    0.867346    0.000000
    63  O2    c     0.141756    0.732341    0.133850    0.000000
    64  O2    c     0.367199    0.267775    0.133351    0.000000
    65  O2    c     0.631197    0.526012    0.039629    0.000000
    66  O3    c     0.871764    0.451953    0.062332    0.000000
    67  O3    c     0.370537    0.513291    0.954371    0.000000
    68  O2    c     0.127096    0.468946    0.966061    0.000000
    69  O2    c     0.737431    0.278592    0.066558    0.000000
    70  O3    c     0.759340    0.712004    0.072624    0.000000
    71  O2    c     0.256757    0.283646    0.953649    0.000000
    72  O3    c     0.232135    0.713670    0.931912    0.000000
    73  O3    s     0.125240    0.155416    0.371562    0.000000
    74  O2    s     0.388601    0.860623    0.358949    0.000000
    75  O2    s     0.886875    0.150485    0.653628    0.000000
    76  O2    s     0.614144    0.860581    0.649851    0.000000
    77  O2    s     0.903901    0.815605    0.648916    0.000000
    78  O2    s     0.596333    0.195258    0.642779    0.000000
    79  O3    s     0.098610    0.800688    0.359841    0.000000
    80  O2    s     0.409954    0.196584    0.360091    0.000000
    81  O3    s     0.989321    0.009997    0.499095    0.000000
    82  O2    s     0.493335    0.998346    0.520589    0.000000
    83  O3    s     0.996555    0.041990    0.234968    0.000000
    84  O3    s     0.516252    0.992228    0.277853    0.000000
    85  O2    s     0.015844    0.007624    0.742741    0.000000
    86  O2    s     0.499871    0.002158    0.768766    0.000000
    87  O3    s     0.589945    0.207627    0.090686    0.000000
    88  O3    s     0.917530    0.802975    0.116762    0.000000
    89  O2    s     0.399941    0.186312    0.903222    0.000000
    90  O2    s     0.087873    0.800809    0.909283    0.000000
    91  O3    s     0.375258    0.861315    0.875430    0.000000
    92  O2    s     0.122426    0.132669    0.906607    0.000000
    93  O3    s     0.627142    0.853869    0.108179    0.000000
    94  O2    s     0.869609    0.115879    0.099875    0.000000
    95  O3    s     0.483863    0.951486    0.012524    0.000000
    96  O2    s     0.992185    0.030460    0.987077    0.000000
    97  O2    s     0.146846    0.481502    0.304006    0.000000
    98  O2    s     0.362854    0.525455    0.297380    0.000000
    99  O2    s     0.858956    0.485280    0.704674    0.000000
   100  O2    s     0.642036    0.525564    0.702440    0.000000
   101  O2    s     0.264113    0.278335    0.313415    0.000000
   102  O2    s     0.245675    0.730609    0.315309    0.000000
   103  O2    s     0.742715    0.280722    0.685002    0.000000
   104  O2    s     0.757929    0.731983    0.695607    0.000000
   105  O2    s     0.159699    0.233582    0.139107    0.000000
   106  O3    s     0.339733    0.771818    0.134585    0.000000
   107  O2    s     0.834648    0.249339    0.874344    0.000000
   108  O2    s     0.662934    0.764824    0.875464    0.000000
   109  O3    s     0.863838    0.723516    0.872199    0.000000
   110  O2    s     0.643776    0.279693    0.867273    0.000000
   111  O2    s     0.143766    0.721906    0.133887    0.000000
   112  O2    s     0.363809    0.277896    0.133483    0.000000
   113  O2    s     0.637111    0.523963    0.036016    0.000000
   114  O3    s     0.866106    0.452026    0.056658    0.000000
   115  O3    s     0.364929    0.509283    0.958942    0.000000
   116  O2    s     0.133129    0.470395    0.970316    0.000000
   117  O2    s     0.737801    0.282217    0.057373    0.000000
   118  O3    s     0.758272    0.709258    0.064529    0.000000
   119  O2    s     0.256654    0.286332    0.960798    0.000000
   120  O3    s     0.231404    0.710231    0.940735    0.000000
--------------------------------------------------------------------------------

  Final Cartesian lattice vectors (Angstroms) :

       17.089549    0.017783   -0.173422
        0.007683    7.601716   -0.002746
       -0.102817   -0.003997   10.349273


  Final cell parameters and derivatives :

--------------------------------------------------------------------------------
       a           17.090438 Angstrom     dE/de1(xx)     0.008840 eV/strain
       b            7.601721 Angstrom     dE/de2(yy)     0.006170 eV/strain
       c           10.349784 Angstrom     dE/de3(zz)     0.002323 eV/strain
       alpha       90.043395 Degrees      dE/de4(yz)     0.000240 eV/strain
       beta        91.150628 Degrees      dE/de5(xz)    -0.000445 eV/strain
       gamma       89.882263 Degrees      dE/de6(xy)     0.000408 eV/strain
--------------------------------------------------------------------------------

  Primitive cell volume =          1344.335963 Angs**3

  Density of cell =      2.001371 g/cm**3

  Non-primitive cell volume =          1344.335963 Angs**3


  Final internal derivatives :

--------------------------------------------------------------------------------
   No.  Atomic          a             b             c           Radius
        Label          (eV)          (eV)          (eV)        (eV/Angs)
--------------------------------------------------------------------------------
      1 Ge    c       0.000000      0.000000      0.000000      0.000000
      2 Ge    c       0.000579      0.000101     -0.001112      0.000000
      3 Ge    c      -0.001885      0.002021      0.003196      0.000000
      4 Ge    c      -0.002423      0.000829      0.001501      0.000000
      5 Si    c      -0.001442      0.000881      0.003723      0.000000
      6 Si    c       0.002623      0.000266     -0.002032      0.000000
      7 Si    c       0.001942      0.000431      0.003036      0.000000
      8 Si    c      -0.010057     -0.002543     -0.002590      0.000000
      9 Si    c      -0.001472      0.001629      0.002971      0.000000
     10 Si    c       0.002375     -0.000638     -0.003689      0.000000
     11 Si    c      -0.000243     -0.000689      0.000397      0.000000
     12 Si    c       0.000457      0.000079     -0.002720      0.000000
     13 Si    c       0.000627     -0.000453      0.000575      0.000000
     14 Si    c      -0.003453      0.001077      0.000255      0.000000
     15 Si    c       0.000865      0.000599      0.000470      0.000000
     16 Si    c      -0.004494     -0.000907     -0.000576      0.000000
     17 Si    c      -0.002579      0.001304      0.000462      0.000000
     18 Si    c       0.001810     -0.000434     -0.000748      0.000000
     19 Si    c      -0.003621     -0.000820      0.000444      0.000000
     20 Si    c       0.003233     -0.001904     -0.001702      0.000000
     21 Si    c      -0.000604      0.001630     -0.000593      0.000000
     22 Si    c       0.000197     -0.000825     -0.000778      0.000000
     23 Si    c      -0.000064      0.000521      0.000208      0.000000
     24 Si    c      -0.000173     -0.002254      0.001682      0.000000
     25 O3    c       0.001664      0.001287      0.000946      0.000000
     26 O2    c      -0.000223     -0.001287     -0.000312      0.000000
     27 O2    c      -0.000562      0.001700      0.000980      0.000000
     28 O2    c      -0.002081     -0.001012     -0.001153      0.000000
     29 O2    c       0.000348     -0.000817      0.000835      0.000000
     30 O2    c      -0.002674      0.000319     -0.001379      0.000000
     31 O3    c       0.001155      0.000168     -0.000384      0.000000
     32 O2    c       0.001083     -0.000142     -0.000270      0.000000
     33 O3    c      -0.010919      0.000217      0.010845      0.000000
     34 O2    c      -0.003469     -0.000413     -0.003138      0.000000
     35 O3    c       0.007920      0.004108      0.009702      0.000000
     36 O3    c       0.009181     -0.000221     -0.006551      0.000000
     37 O2    c       0.002831      0.000176     -0.000272      0.000000
     38 O2    c       0.008922      0.000450     -0.003098      0.000000
     39 O3    c       0.000857      0.000485     -0.001897      0.000000
     40 O3    c      -0.004192     -0.001508      0.004545      0.000000
     41 O2    c      -0.000726      0.001929     -0.000676      0.000000
     42 O2    c      -0.000277      0.000068      0.000983      0.000000
     43 O3    c      -0.002961     -0.000868     -0.003853      0.000000
     44 O2    c       0.000586      0.000996      0.000875      0.000000
     45 O3    c       0.001342     -0.001171     -0.001689      0.000000
     46 O2    c      -0.003084      0.002199      0.000459      0.000000
     47 O3    c      -0.001925     -0.001452     -0.001116      0.000000
     48 O2    c      -0.001832      0.001147      0.000096      0.000000
     49 O2    c       0.000609     -0.000836     -0.000037      0.000000
     50 O2    c       0.001511      0.000499      0.000370      0.000000
     51 O2    c       0.001490     -0.000536     -0.000266      0.000000
     52 O2    c      -0.004401      0.000337      0.000054      0.000000
     53 O2    c      -0.001257      0.000039      0.000606      0.000000
     54 O2    c       0.000567     -0.000075      0.000923      0.000000
     55 O2    c       0.000220      0.000085     -0.000856      0.000000
     56 O2    c      -0.000841     -0.000059     -0.000778      0.000000
     57 O2    c       0.000442      0.000596      0.000399      0.000000
     58 O3    c       0.001478     -0.000522      0.000319      0.000000
     59 O2    c      -0.000070      0.000202      0.000015      0.000000
     60 O2    c      -0.002319     -0.000213     -0.000096      0.000000
     61 O3    c      -0.004314     -0.000866     -0.002582      0.000000
     62 O2    c      -0.002706      0.000308      0.000162      0.000000
     63 O2    c       0.000489     -0.000513      0.000179      0.000000
     64 O2    c       0.000034      0.000218      0.000336      0.000000
     65 O2    c      -0.003374      0.001136     -0.000194      0.000000
     66 O3    c      -0.002783     -0.000924      0.001693      0.000000
     67 O3    c       0.001953      0.001148     -0.001163      0.000000
     68 O2    c      -0.001729     -0.000629      0.000390      0.000000
     69 O2    c       0.001727      0.000035      0.000500      0.000000
     70 O3    c       0.003248     -0.001391      0.000516      0.000000
     71 O2    c       0.000813      0.000463     -0.000108      0.000000
     72 O3    c       0.006536     -0.000215      0.000057      0.000000
     73 O3    s      -0.000449     -0.000753     -0.000948      0.000000
     74 O2    s      -0.000874      0.001306     -0.000332      0.000000
     75 O2    s       0.000774     -0.002182      0.000771      0.000000
     76 O2    s       0.003345      0.001123      0.000864      0.000000
     77 O2    s       0.000953      0.001203      0.000777      0.000000
     78 O2    s       0.003350     -0.000581      0.001184      0.000000
     79 O3    s      -0.000860     -0.000307     -0.000153      0.000000
     80 O2    s      -0.000829     -0.000130     -0.000391      0.000000
     81 O3    s       0.002780     -0.000784     -0.011556      0.000000
     82 O2    s      -0.001649      0.000336      0.000528      0.000000
     83 O3    s       0.004681      0.000188     -0.007554      0.000000
     84 O3    s      -0.004195      0.000578      0.004525      0.000000
     85 O2    s      -0.001955     -0.001148      0.000011      0.000000
     86 O2    s       0.001161     -0.000568     -0.000693      0.000000
     87 O3    s      -0.002008     -0.000453      0.002175      0.000000
     88 O3    s       0.004612      0.000353     -0.006402      0.000000
     89 O2    s      -0.002955     -0.000106      0.002026      0.000000
     90 O2    s       0.000385     -0.000156      0.000518      0.000000
     91 O3    s      -0.000127     -0.001213      0.002041      0.000000
     92 O2    s       0.000219     -0.000907      0.001069      0.000000
     93 O3    s      -0.002183      0.001614      0.002095      0.000000
     94 O2    s      -0.002850     -0.000379     -0.001295      0.000000
     95 O3    s       0.001364      0.001287      0.003614      0.000000
     96 O2    s      -0.001150     -0.001035     -0.002789      0.000000
     97 O2    s      -0.002530      0.000081     -0.000305      0.000000
     98 O2    s      -0.000425     -0.000269     -0.000536      0.000000
     99 O2    s      -0.000586      0.000378      0.001118      0.000000
    100 O2    s       0.004484     -0.000196      0.000547      0.000000
    101 O2    s      -0.000404     -0.000534     -0.000563      0.000000
    102 O2    s       0.000426      0.000397     -0.000573      0.000000
    103 O2    s       0.000256     -0.000140      0.001243      0.000000
    104 O2    s      -0.000015      0.000198      0.000739      0.000000
    105 O2    s      -0.001814     -0.001082      0.000846      0.000000
    106 O3    s      -0.002783      0.000324      0.000363      0.000000
    107 O2    s      -0.000805     -0.000073      0.000201      0.000000
    108 O2    s       0.003181      0.000237     -0.001362      0.000000
    109 O3    s       0.005657      0.001109      0.001736      0.000000
    110 O2    s       0.003647     -0.000182     -0.001051      0.000000
    111 O2    s      -0.001455      0.000771      0.000438      0.000000
    112 O2    s      -0.000102     -0.000532     -0.000164      0.000000
    113 O2    s       0.001036     -0.000899     -0.000515      0.000000
    114 O3    s       0.005938      0.000125     -0.003622      0.000000
    115 O3    s       0.000558     -0.000448      0.002819      0.000000
    116 O2    s      -0.000795      0.000285     -0.000061      0.000000
    117 O2    s       0.001500     -0.000124     -0.001083      0.000000
    118 O3    s      -0.001240      0.000534     -0.001224      0.000000
    119 O2    s      -0.000493     -0.000410      0.000538      0.000000
    120 O3    s      -0.004740      0.000274     -0.000124      0.000000
--------------------------------------------------------------------------------
  Maximum abs         0.010919      0.004108      0.011556      0.000000
--------------------------------------------------------------------------------


  Born effective charge tensors : 

-------------------------------------------------------------------------------
  Atom             x           y             z
-------------------------------------------------------------------------------
    1 Ge    x       4.2531     -0.2204     -0.1890
            y       0.1587      3.8813      0.0319
            z      -0.8188     -0.0430      4.5307
-------------------------------------------------------------------------------
    2 Ge    x       4.2215      0.2264     -0.4127
            y      -0.2496      3.9087     -0.0508
            z      -0.4989     -0.0388      3.9088
-------------------------------------------------------------------------------
    3 Ge    x       3.9952      0.3340      0.1475
            y       0.3716      4.1904      0.2042
            z       0.1940      0.0309      3.2758
-------------------------------------------------------------------------------
    4 Ge    x       3.9688      0.4221     -0.2313
            y       0.0965      4.1570     -0.2908
            z      -0.1908     -0.0746      3.3609
-------------------------------------------------------------------------------
    5 Si    x       3.6622     -0.1642      0.1723
            y       0.0950      3.2920      0.0195
            z       0.1534     -0.0417      4.0476
-------------------------------------------------------------------------------
    6 Si    x       3.6056      0.1006     -0.4613
            y      -0.1142      3.2729     -0.0154
            z      -0.5209     -0.0932      4.2559
-------------------------------------------------------------------------------
    7 Si    x       3.4613      0.1224      0.0753
            y      -0.1085      3.2351     -0.0063
            z       0.6123      0.0723      3.6681
-------------------------------------------------------------------------------
    8 Si    x       3.6919      0.4505      0.2871
            y      -0.0959      3.5478      0.0467
            z       0.7277      0.2695      3.3628
-------------------------------------------------------------------------------
    9 Si    x       3.8193     -0.0218     -0.0060
            y       0.2864      3.4391      0.0257
            z      -0.5565     -0.0731      3.2991
-------------------------------------------------------------------------------
   10 Si    x       3.4377     -0.1570      0.3468
            y       0.2131      3.2564     -0.0048
            z       0.4307     -0.0380      3.0807
-------------------------------------------------------------------------------
   11 Si    x       3.3504      0.4375     -0.2716
            y       0.2779      3.6021     -0.3643
            z      -0.1979     -0.1865      3.0063
-------------------------------------------------------------------------------
   12 Si    x       3.2295      0.3175      0.0845
            y       0.1792      3.5699      0.0865
            z       0.1353     -0.0111      3.1246
-------------------------------------------------------------------------------
   13 Si    x       3.2186     -0.3095     -0.0870
            y      -0.1853      3.4457      0.1333
            z      -0.1493      0.0617      2.7604
-------------------------------------------------------------------------------
   14 Si    x       3.2041     -0.3257      0.1198
            y      -0.1747      3.4797     -0.1754
            z       0.1253     -0.0527      2.7531
-------------------------------------------------------------------------------
   15 Si    x       3.2924      0.2599      0.0354
            y       0.3088      3.5193     -0.1085
            z      -0.0155     -0.0160      3.0813
-------------------------------------------------------------------------------
   16 Si    x       3.1923      0.2481      0.0582
            y       0.2800      3.4475      0.2077
            z       0.1151      0.0530      2.7639
-------------------------------------------------------------------------------
   17 Si    x       3.4165     -0.3537     -0.1888
            y      -0.4314      3.5399      0.3214
            z      -0.2676      0.1801      2.9882
-------------------------------------------------------------------------------
   18 Si    x       3.1579     -0.2147      0.0661
            y      -0.2845      3.4182     -0.1889
            z       0.1152     -0.0555      2.8152
-------------------------------------------------------------------------------
   19 Si    x       3.5463      0.3795     -0.2898
            y       0.4160      3.4738     -0.3017
            z      -0.3802     -0.1359      2.8904
-------------------------------------------------------------------------------
   20 Si    x       3.3619     -0.1763     -0.1911
            y      -0.1003      3.7044      0.1016
            z      -0.1946     -0.0040      2.8133
-------------------------------------------------------------------------------
   21 Si    x       3.5816     -0.2097     -0.0122
            y      -0.2291      3.5172     -0.2483
            z       0.0931     -0.0705      2.7759
-------------------------------------------------------------------------------
   22 Si    x       3.2305      0.3621      0.1963
            y       0.0633      3.4411      0.2083
            z       0.1142      0.0668      2.7277
-------------------------------------------------------------------------------
   23 Si    x       3.6805     -0.4979     -0.1829
            y      -0.2052      3.6761      0.3878
            z      -0.1556      0.2186      2.9902
-------------------------------------------------------------------------------
   24 Si    x       3.3238     -0.2646      0.1615
            y       0.1011      3.6786     -0.0533
            z       0.1604     -0.0243      2.7778
-------------------------------------------------------------------------------
   25 O3    x      -2.0930     -0.9125      0.4584
            y      -0.9772     -2.2638      0.5200
            z       0.5182      0.4938     -1.6539
-------------------------------------------------------------------------------
   26 O2    x      -1.7425     -0.7123     -0.3698
            y      -0.7296     -1.9598     -0.3663
            z      -0.3892     -0.3563     -1.3695
-------------------------------------------------------------------------------
   27 O2    x      -1.7640      0.7318      0.3307
            y       0.7615     -1.9686     -0.3366
            z       0.3651     -0.3305     -1.3307
-------------------------------------------------------------------------------
   28 O2    x      -1.7664      0.7312     -0.2900
            y       0.7632     -1.9590      0.3309
            z      -0.3639      0.3003     -1.3235
-------------------------------------------------------------------------------
   29 O2    x      -1.6536     -0.6834      0.3025
            y      -0.6498     -2.0108      0.3072
            z       0.3289      0.3147     -1.3520
-------------------------------------------------------------------------------
   30 O2    x      -1.6541     -0.7130     -0.2786
            y      -0.6656     -1.9979     -0.2847
            z      -0.3655     -0.2914     -1.3351
-------------------------------------------------------------------------------
   31 O3    x      -2.0190      0.9364      0.4839
            y       0.9020     -2.3691     -0.5028
            z       0.5861     -0.5071     -1.6131
-------------------------------------------------------------------------------
   32 O2    x      -1.6153      0.6794     -0.3665
            y       0.6150     -2.0070      0.3803
            z      -0.3692      0.3698     -1.3946
-------------------------------------------------------------------------------
   33 O3    x      -1.9876     -0.0117      1.1445
            y      -0.0028     -1.2045      0.0147
            z       1.4489      0.0542     -3.5096
-------------------------------------------------------------------------------
   34 O2    x      -1.6545     -0.0075     -0.8159
            y      -0.0141     -1.0973     -0.0086
            z      -1.0360     -0.0052     -2.6798
-------------------------------------------------------------------------------
   35 O3    x      -2.0066     -0.0932     -0.9656
            y      -0.0560     -1.2860     -0.0824
            z      -0.9686     -0.0966     -2.7091
-------------------------------------------------------------------------------
   36 O3    x      -2.0776      0.0428      0.9792
            y       0.0656     -1.2437     -0.0388
            z       0.9323     -0.0213     -2.7712
-------------------------------------------------------------------------------
   37 O2    x      -1.7393      0.0172     -0.7004
            y      -0.0194     -1.1183      0.0167
            z      -0.6738      0.0336     -2.1889
-------------------------------------------------------------------------------
   38 O2    x      -1.7910     -0.0060      0.7280
            y      -0.0043     -1.1230     -0.0030
            z       0.7256      0.0001     -2.1299
-------------------------------------------------------------------------------
   39 O3    x      -2.0905     -0.9390      0.5907
            y      -0.8192     -2.3663      0.5761
            z       0.5880      0.5459     -1.5062
-------------------------------------------------------------------------------
   40 O3    x      -1.8642     -0.8158     -0.3244
            y      -0.6831     -2.5902     -0.3114
            z      -0.3846     -0.3145     -1.3708
-------------------------------------------------------------------------------
   41 O2    x      -1.6497      0.6254      0.3605
            y       0.5656     -1.9358     -0.4040
            z       0.3944     -0.3533     -1.2999
-------------------------------------------------------------------------------
   42 O2    x      -1.6391      0.6763     -0.3672
            y       0.5441     -2.0582      0.3973
            z      -0.3451      0.3535     -1.2410
-------------------------------------------------------------------------------
   43 O3    x      -2.1344     -0.9183      0.3312
            y      -0.9087     -2.2483      0.3786
            z       0.3615      0.3251     -1.4507
-------------------------------------------------------------------------------
   44 O2    x      -1.7753     -0.7186     -0.4032
            y      -0.6743     -1.9189     -0.4165
            z      -0.3510     -0.3609     -1.2692
-------------------------------------------------------------------------------
   45 O3    x      -2.0817      0.9289      0.5481
            y       0.9010     -2.2956     -0.5847
            z       0.5108     -0.5437     -1.5555
-------------------------------------------------------------------------------
   46 O2    x      -1.8297      0.6136     -0.2638
            y       0.6302     -1.8221      0.3007
            z      -0.3219      0.2727     -1.2308
-------------------------------------------------------------------------------
   47 O3    x      -2.0602     -0.0136     -0.7465
            y       0.0002     -1.3874      0.0832
            z      -0.4342      0.0885     -2.1206
-------------------------------------------------------------------------------
   48 O2    x      -1.7910      0.0350      0.5627
            y       0.0374     -1.2042     -0.0194
            z       0.3094     -0.0189     -1.6680
-------------------------------------------------------------------------------
   49 O2    x      -1.1909      0.0739      0.0587
            y       0.1191     -2.4716      0.0142
            z       0.0770      0.0059     -1.0838
-------------------------------------------------------------------------------
   50 O2    x      -1.1801      0.0630     -0.0446
            y       0.1364     -2.5833     -0.0189
            z      -0.0665     -0.0336     -1.0570
-------------------------------------------------------------------------------
   51 O2    x      -1.1918     -0.0738      0.0447
            y      -0.1204     -2.5602      0.0231
            z       0.0700      0.0056     -1.0534
-------------------------------------------------------------------------------
   52 O2    x      -1.1694     -0.0505     -0.0570
            y      -0.1087     -2.5689     -0.0372
            z      -0.0758     -0.0029     -1.0470
-------------------------------------------------------------------------------
   53 O2    x      -2.3649     -0.0994      0.0203
            y      -0.0416     -1.2443      0.0741
            z       0.0010      0.0410     -1.0774
-------------------------------------------------------------------------------
   54 O2    x      -2.3608     -0.1302     -0.0146
            y      -0.0875     -1.2735     -0.0727
            z      -0.0061     -0.0466     -1.0883
-------------------------------------------------------------------------------
   55 O2    x      -2.3746      0.1042     -0.0114
            y       0.0556     -1.2401     -0.0697
            z      -0.0273     -0.0380     -1.0841
-------------------------------------------------------------------------------
   56 O2    x      -2.4126      0.1114      0.0297
            y       0.0440     -1.2632      0.0635
            z       0.0346      0.0365     -1.0531
-------------------------------------------------------------------------------
   57 O2    x      -1.1955     -0.1444     -0.0688
            y      -0.0886     -1.3148     -0.0131
            z      -0.0553     -0.0237     -2.0365
-------------------------------------------------------------------------------
   58 O3    x      -1.3058     -0.1479      0.0280
            y      -0.0922     -1.4778      0.0722
            z       0.0121      0.0596     -2.6292
-------------------------------------------------------------------------------
   59 O2    x      -1.1888      0.1195     -0.0076
            y       0.0627     -1.2618      0.0427
            z       0.0354      0.0682     -2.0682
-------------------------------------------------------------------------------
   60 O2    x      -1.1798      0.1234      0.0422
            y       0.0718     -1.3276      0.0389
            z       0.0156      0.0243     -2.0383
-------------------------------------------------------------------------------
   61 O3    x      -1.3623     -0.1656     -0.1384
            y      -0.1599     -1.4366     -0.0570
            z      -0.1221      0.0066     -2.5914
-------------------------------------------------------------------------------
   62 O2    x      -1.2028     -0.1252      0.0346
            y      -0.1190     -1.2886     -0.0105
            z       0.0522     -0.0241     -2.0450
-------------------------------------------------------------------------------
   63 O2    x      -1.2119      0.1224     -0.1179
            y       0.1188     -1.3100      0.0010
            z      -0.1133     -0.0174     -2.0565
-------------------------------------------------------------------------------
   64 O2    x      -1.2282      0.1314      0.0106
            y       0.1225     -1.2694     -0.0378
            z       0.0158     -0.0399     -2.0760
-------------------------------------------------------------------------------
   65 O2    x      -1.2606     -0.0615      0.0818
            y      -0.1237     -2.4209     -0.0341
            z       0.1105     -0.0174     -1.0453
-------------------------------------------------------------------------------
   66 O3    x      -1.4607     -0.2241     -0.1309
            y      -0.3468     -3.0392     -0.0738
            z      -0.1663     -0.1089     -1.1577
-------------------------------------------------------------------------------
   67 O3    x      -1.4025     -0.0032      0.1159
            y       0.0887     -3.1249      0.1135
            z       0.1310      0.0960     -1.1452
-------------------------------------------------------------------------------
   68 O2    x      -1.2522      0.1030     -0.0813
            y       0.1833     -2.5273      0.0169
            z      -0.0964      0.0206     -1.0125
-------------------------------------------------------------------------------
   69 O2    x      -2.3789      0.1891     -0.0233
            y       0.1233     -1.2489      0.0634
            z      -0.0115      0.0350     -1.0865
-------------------------------------------------------------------------------
   70 O3    x      -3.0328      0.1579     -0.1178
            y       0.0903     -1.3820     -0.0686
            z      -0.0790     -0.0282     -1.1978
-------------------------------------------------------------------------------
   71 O2    x      -2.4916     -0.1009      0.0389
            y      -0.0486     -1.2331     -0.0540
            z       0.0406     -0.0194     -1.0474
-------------------------------------------------------------------------------
   72 O3    x      -3.0228     -0.1904      0.1526
            y      -0.1301     -1.3902      0.1112
            z       0.1276      0.0543     -1.2070
-------------------------------------------------------------------------------




  Elastic Constant Matrix: (Units=GPa)

-------------------------------------------------------------------------------
  Indices      1         2         3         4         5         6    
-------------------------------------------------------------------------------
       1     48.6455   24.6978   24.9415    0.0973   -0.0818   -0.8382
       2     24.6978   69.6114   23.7140    1.0457   -1.3965   -0.4765
       3     24.9415   23.7140   22.8088   -0.6561   -2.1018   -0.6068
       4      0.0973    1.0457   -0.6561   11.2866   -0.0509    1.5790
       5     -0.0818   -1.3965   -2.1018   -0.0509   23.3072   -0.5689
       6     -0.8382   -0.4765   -0.6068    1.5790   -0.5689   26.1602
-------------------------------------------------------------------------------


  Elastic Compliance Matrix: (Units=1/GPa)

-------------------------------------------------------------------------------
  Indices      1         2         3         4         5         6    
-------------------------------------------------------------------------------
       1    0.047505  0.001528 -0.054058 -0.003773 -0.004615  0.000423
       2    0.001528  0.022439 -0.025187 -0.003570 -0.000928  0.000069
       3   -0.054058 -0.025187  0.130381  0.010364  0.010092  0.000427
       4   -0.003773 -0.003570  0.010364  0.090323  0.000773 -0.005380
       5   -0.004615 -0.000928  0.010092  0.000773  0.043769  0.000975
       6    0.000423  0.000069  0.000427 -0.005380  0.000975  0.038597
-------------------------------------------------------------------------------

  Mechanical properties :

-------------------------------------------------------------------------------
  Convention :                    Reuss         Voigt         Hill
-------------------------------------------------------------------------------
  Bulk  Modulus (GPa)     =      22.27587      31.97470      27.12529
  Shear Modulus (GPa)     =       9.20114      16.66497      12.93305
-------------------------------------------------------------------------------
  Velocity S-wave (km/s)  =       2.14416       2.88562       2.54207
  Velocity P-wave (km/s)  =       4.15454       5.20373       4.70845
-------------------------------------------------------------------------------
  Compressibility (1/GPa) =    0.04489162
-------------------------------------------------------------------------------
  Stress axis :                     x             y             z
-------------------------------------------------------------------------------
  Youngs Moduli (GPa)     =      21.05051      44.56515       7.66980
-------------------------------------------------------------------------------
  Poissons Ratio (x)      =                    -0.06810       0.41461
  Poissons Ratio (y)      =      -0.03217                     0.19318
  Poissons Ratio (z)      =       1.13795       1.12246
-------------------------------------------------------------------------------


  Piezoelectric Strain Matrix: (Units=C/m**2)

-------------------------------------------------------------------------------
  Indices      1         2         3         4         5         6    
-------------------------------------------------------------------------------
       x     0.02272   0.75625  -0.07527   0.22360  -0.05880   0.06106
       y    -0.10052  -0.82196   0.39816  -0.10135   0.32675   0.37533
       z    -0.31849  -0.35163  -0.41590   0.10174  -0.37681   0.03223
-------------------------------------------------------------------------------


  Piezoelectric Stress Matrix: (Units=10**-11 C/N)

-------------------------------------------------------------------------------
  Indices      1         2         3         4         5         6    
-------------------------------------------------------------------------------
       x     0.57573   1.81604  -2.83393   1.62563  -0.39071   0.11257
       y    -2.85212  -2.85413   8.04562  -0.34805   1.98332   1.54212
       z     0.81841   0.20869  -3.08869   0.68714  -1.87838  -0.00075
-------------------------------------------------------------------------------


  Static dielectric constant tensor : 

-------------------------------------------------------------------------------
              x         y         z
-------------------------------------------------------------------------------
       x     4.20272   0.06688  -0.15646
       y     0.06688   4.28490   0.08473
       z    -0.15646   0.08473   3.42221
--------------------------------------------------------------------------------

  High frequency dielectric constant tensor : 

-------------------------------------------------------------------------------
              x         y         z
-------------------------------------------------------------------------------
       x     1.66947  -0.00013   0.00021
       y    -0.00013   1.67676   0.00031
       z     0.00021   0.00031   1.60970
-------------------------------------------------------------------------------

  Static refractive indices : 

-------------------------------------------------------------------------------
    1 =    1.83897      2 =    2.05078      3 =    2.07902
-------------------------------------------------------------------------------

  High frequency refractive indices : 

-------------------------------------------------------------------------------
    1 =    1.26874      2 =    1.29208      3 =    1.29490
-------------------------------------------------------------------------------


  Time to end of optimisation =      11.2039 seconds


  Peak dynamic memory used =       5.01 MB 


  Timing analysis for GULP :

--------------------------------------------------------------------------------
  Task / Subroutine                                          Time (Seconds)
--------------------------------------------------------------------------------
  Calculation of reciprocal space energy and derivatives          0.6634
  Calculation of real space energy and derivatives                6.9963
  Calculation of three-body energy and derivatives                0.5541
  Calculation and manipulation of Hessian matrix                  3.3319
  Calculation of matrix inversion                                 0.0357
  Global summation overhead                                       0.0001
--------------------------------------------------------------------------------
  Total CPU time                                                 11.2039
--------------------------------------------------------------------------------


  Dump file written as c00266.vasp.grs
  CIF file written as c00266.vasp.cif


  Job Finished at 12:35.46 31st October    2025                               

