********************************************************************************
*                       GENERAL UTILITY LATTICE PROGRAM                        *
*                                 Julian Gale                                  *
*                       Curtin Institute for Computation                       *
*                    School of Molecular and Life Sciences                     *
*                    Curtin University, Western Australia                      *
********************************************************************************
* Version = 6.1.2 * Last modified =   3rd November 2022                        *
********************************************************************************
*  optimise     - perform optimisation run                                     *
*  conp         - constant pressure calculation                                *
*  property     - calculate properties for final geometry                      *
********************************************************************************

  Job Started  at 12:39.44 31st October    2025                               

  Number of CPUs =     1


  Total number of configurations input =      1

********************************************************************************
*  Input for Configuration =   1 : c00287.vasp                                 *
********************************************************************************

  Formula = Ge4Si20O48                                                  

  Number of irreducible atoms/shells =     120


  Total number atoms/shells =     120

  Dimensionality = 3               :  Bulk   



  Cartesian lattice vectors (Angstroms) :

       17.182800    0.000000    0.000000
        0.000000    7.513760    0.000000
        0.000000    0.000000   10.447700

  Cell parameters (Angstroms/Degrees):

  a =      17.1828    alpha =  90.0000
  b =       7.5138    beta  =  90.0000
  c =      10.4477    gamma =  90.0000

  Initial cell volume =        1348.875752 Angs**3

  Temperature of configuration =   0.00     K 

  Pressure of configuration =         0.000 GPa 

  Fractional coordinates of asymmetric unit :

--------------------------------------------------------------------------------
   No.  Atomic       x           y          z         Charge      Occupancy
        Label      (Frac)      (Frac)     (Frac)        (e)         (Frac)  
--------------------------------------------------------------------------------
      1 Ge    c    0.052090    0.000000    0.372270     4.00000    1.000000    
      2 Ge    c    0.943270 *  0.000000 *  0.122130 *   4.00000    1.000000    
      3 Ge    c    0.056730 *  0.000000 *  0.877870 *   4.00000    1.000000    
      4 Ge    c    0.839340 *  0.705910 *  0.017440 *   4.00000    1.000000    
      5 Si    c    0.447910 *  0.000000 *  0.372270 *   4.00000    1.000000    
      6 Si    c    0.947910 *  0.000000 *  0.627730 *   4.00000    1.000000    
      7 Si    c    0.552090 *  0.000000 *  0.627730 *   4.00000    1.000000    
      8 Si    c    0.556730 *  0.000000 *  0.122130 *   4.00000    1.000000    
      9 Si    c    0.443270 *  0.000000 *  0.877870 *   4.00000    1.000000    
     10 Si    c    0.160190 *  0.293910 *  0.273440 *   4.00000    1.000000    
     11 Si    c    0.339810 *  0.706090 *  0.273440 *   4.00000    1.000000    
     12 Si    c    0.839810 *  0.293910 *  0.726560 *   4.00000    1.000000    
     13 Si    c    0.660190 *  0.706090 *  0.726560 *   4.00000    1.000000    
     14 Si    c    0.839810 *  0.706090 *  0.726560 *   4.00000    1.000000    
     15 Si    c    0.660190 *  0.293910 *  0.726560 *   4.00000    1.000000    
     16 Si    c    0.160190 *  0.706090 *  0.273440 *   4.00000    1.000000    
     17 Si    c    0.339810 *  0.293910 *  0.273440 *   4.00000    1.000000    
     18 Si    c    0.660660 *  0.294090 *  0.017440 *   4.00000    1.000000    
     19 Si    c    0.339340 *  0.294090 *  0.982560 *   4.00000    1.000000    
     20 Si    c    0.160660 *  0.705910 *  0.982560 *   4.00000    1.000000    
     21 Si    c    0.339340 *  0.705910 *  0.982560 *   4.00000    1.000000    
     22 Si    c    0.160660 *  0.294090 *  0.982560 *   4.00000    1.000000    
     23 Si    c    0.660660 *  0.705910 *  0.017440 *   4.00000    1.000000    
     24 Si    c    0.839340 *  0.294090 *  0.017440 *   4.00000    1.000000    
     25 O3    c    0.106570 *  0.174340 *  0.366200 *   1.33043    1.000000    
     26 O2    c    0.393430 *  0.825660 *  0.366200 *   0.87073    1.000000    
     27 O2    c    0.893430 *  0.174340 *  0.633800 *   0.87073    1.000000    
     28 O2    c    0.606570 *  0.825660 *  0.633800 *   0.87073    1.000000    
     29 O2    c    0.893430 *  0.825660 *  0.633800 *   0.87073    1.000000    
     30 O2    c    0.606570 *  0.174340 *  0.633800 *   0.87073    1.000000    
     31 O3    c    0.106570 *  0.825660 *  0.366200 *   1.33043    1.000000    
     32 O2    c    0.393430 *  0.174340 *  0.366200 *   0.87073    1.000000    
     33 O3    c    0.000000 *  0.000000 *  0.500000 *   1.33043    1.000000    
     34 O2    c    0.500000 *  0.000000 *  0.500000 *   0.87073    1.000000    
     35 O1    c    0.994520 *  0.000000 *  0.250840 *   1.73396    1.000000    
     36 O2    c    0.505480 *  0.000000 *  0.250840 *   0.87073    1.000000    
     37 O3    c    0.005480 *  0.000000 *  0.749160 *   1.33043    1.000000    
     38 O2    c    0.494520 *  0.000000 *  0.749160 *   0.87073    1.000000    
     39 O2    c    0.610230 *  0.175520 *  0.115390 *   0.87073    1.000000    
     40 O1    c    0.889770 *  0.824480 *  0.115390 *   1.73396    1.000000    
     41 O2    c    0.389770 *  0.175520 *  0.884610 *   0.87073    1.000000    
     42 O3    c    0.110230 *  0.824480 *  0.884610 *   1.33043    1.000000    
     43 O2    c    0.389770 *  0.824480 *  0.884610 *   0.87073    1.000000    
     44 O3    c    0.110230 *  0.175520 *  0.884610 *   1.33043    1.000000    
     45 O2    c    0.610230 *  0.824480 *  0.115390 *   0.87073    1.000000    
     46 O3    c    0.889770 *  0.175520 *  0.115390 *   1.33043    1.000000    
     47 O2    c    0.500000 *  0.000000 *  0.000000 *   0.87073    1.000000    
     48 O1    c    0.000000 *  0.000000 *  0.000000 *   1.73396    1.000000    
     49 O2    c    0.151750 *  0.500000 *  0.313330 *   0.87073    1.000000    
     50 O2    c    0.348250 *  0.500000 *  0.313330 *   0.87073    1.000000    
     51 O2    c    0.848250 *  0.500000 *  0.686670 *   0.87073    1.000000    
     52 O2    c    0.651750 *  0.500000 *  0.686670 *   0.87073    1.000000    
     53 O2    c    0.250000 *  0.234950 *  0.285720 *   0.87073    1.000000    
     54 O2    c    0.250000 *  0.765050 *  0.285720 *   0.87073    1.000000    
     55 O2    c    0.750000 *  0.234950 *  0.714280 *   0.87073    1.000000    
     56 O2    c    0.750000 *  0.765050 *  0.714280 *   0.87073    1.000000    
     57 O2    c    0.131410 *  0.268650 *  0.127790 *   0.87073    1.000000    
     58 O2    c    0.368590 *  0.731350 *  0.127790 *   0.87073    1.000000    
     59 O2    c    0.868590 *  0.268650 *  0.872210 *   0.87073    1.000000    
     60 O2    c    0.631410 *  0.731350 *  0.872210 *   0.87073    1.000000    
     61 O3    c    0.868590 *  0.731350 *  0.872210 *   1.33043    1.000000    
     62 O2    c    0.631410 *  0.268650 *  0.872210 *   0.87073    1.000000    
     63 O2    c    0.131410 *  0.731350 *  0.127790 *   0.87073    1.000000    
     64 O2    c    0.368590 *  0.268650 *  0.127790 *   0.87073    1.000000    
     65 O2    c    0.653920 *  0.500000 *  0.058200 *   0.87073    1.000000    
     66 O3    c    0.846080 *  0.500000 *  0.058200 *   1.33043    1.000000    
     67 O2    c    0.346080 *  0.500000 *  0.941800 *   0.87073    1.000000    
     68 O2    c    0.153920 *  0.500000 *  0.941800 *   0.87073    1.000000    
     69 O2    c    0.750000 *  0.231060 *  0.027050 *   0.87073    1.000000    
     70 O3    c    0.750000 *  0.768940 *  0.027050 *   1.33043    1.000000    
     71 O2    c    0.250000 *  0.231060 *  0.972950 *   0.87073    1.000000    
     72 O2    c    0.250000 *  0.768940 *  0.972950 *   0.87073    1.000000    
     73 O3    s    0.106570 *  0.174340 *  0.366200 *  -3.33043    1.000000    
     74 O2    s    0.393430 *  0.825660 *  0.366200 *  -2.87073    1.000000    
     75 O2    s    0.893430 *  0.174340 *  0.633800 *  -2.87073    1.000000    
     76 O2    s    0.606570 *  0.825660 *  0.633800 *  -2.87073    1.000000    
     77 O2    s    0.893430 *  0.825660 *  0.633800 *  -2.87073    1.000000    
     78 O2    s    0.606570 *  0.174340 *  0.633800 *  -2.87073    1.000000    
     79 O3    s    0.106570 *  0.825660 *  0.366200 *  -3.33043    1.000000    
     80 O2    s    0.393430 *  0.174340 *  0.366200 *  -2.87073    1.000000    
     81 O3    s    0.000000 *  0.000000 *  0.500000 *  -3.33043    1.000000    
     82 O2    s    0.500000 *  0.000000 *  0.500000 *  -2.87073    1.000000    
     83 O1    s    0.994520 *  0.000000 *  0.250840 *  -3.73396    1.000000    
     84 O2    s    0.505480 *  0.000000 *  0.250840 *  -2.87073    1.000000    
     85 O3    s    0.005480 *  0.000000 *  0.749160 *  -3.33043    1.000000    
     86 O2    s    0.494520 *  0.000000 *  0.749160 *  -2.87073    1.000000    
     87 O2    s    0.610230 *  0.175520 *  0.115390 *  -2.87073    1.000000    
     88 O1    s    0.889770 *  0.824480 *  0.115390 *  -3.73396    1.000000    
     89 O2    s    0.389770 *  0.175520 *  0.884610 *  -2.87073    1.000000    
     90 O3    s    0.110230 *  0.824480 *  0.884610 *  -3.33043    1.000000    
     91 O2    s    0.389770 *  0.824480 *  0.884610 *  -2.87073    1.000000    
     92 O3    s    0.110230 *  0.175520 *  0.884610 *  -3.33043    1.000000    
     93 O2    s    0.610230 *  0.824480 *  0.115390 *  -2.87073    1.000000    
     94 O3    s    0.889770 *  0.175520 *  0.115390 *  -3.33043    1.000000    
     95 O2    s    0.500000 *  0.000000 *  0.000000 *  -2.87073    1.000000    
     96 O1    s    0.000000 *  0.000000 *  0.000000 *  -3.73396    1.000000    
     97 O2    s    0.151750 *  0.500000 *  0.313330 *  -2.87073    1.000000    
     98 O2    s    0.348250 *  0.500000 *  0.313330 *  -2.87073    1.000000    
     99 O2    s    0.848250 *  0.500000 *  0.686670 *  -2.87073    1.000000    
    100 O2    s    0.651750 *  0.500000 *  0.686670 *  -2.87073    1.000000    
    101 O2    s    0.250000 *  0.234950 *  0.285720 *  -2.87073    1.000000    
    102 O2    s    0.250000 *  0.765050 *  0.285720 *  -2.87073    1.000000    
    103 O2    s    0.750000 *  0.234950 *  0.714280 *  -2.87073    1.000000    
    104 O2    s    0.750000 *  0.765050 *  0.714280 *  -2.87073    1.000000    
    105 O2    s    0.131410 *  0.268650 *  0.127790 *  -2.87073    1.000000    
    106 O2    s    0.368590 *  0.731350 *  0.127790 *  -2.87073    1.000000    
    107 O2    s    0.868590 *  0.268650 *  0.872210 *  -2.87073    1.000000    
    108 O2    s    0.631410 *  0.731350 *  0.872210 *  -2.87073    1.000000    
    109 O3    s    0.868590 *  0.731350 *  0.872210 *  -3.33043    1.000000    
    110 O2    s    0.631410 *  0.268650 *  0.872210 *  -2.87073    1.000000    
    111 O2    s    0.131410 *  0.731350 *  0.127790 *  -2.87073    1.000000    
    112 O2    s    0.368590 *  0.268650 *  0.127790 *  -2.87073    1.000000    
    113 O2    s    0.653920 *  0.500000 *  0.058200 *  -2.87073    1.000000    
    114 O3    s    0.846080 *  0.500000 *  0.058200 *  -3.33043    1.000000    
    115 O2    s    0.346080 *  0.500000 *  0.941800 *  -2.87073    1.000000    
    116 O2    s    0.153920 *  0.500000 *  0.941800 *  -2.87073    1.000000    
    117 O2    s    0.750000 *  0.231060 *  0.027050 *  -2.87073    1.000000    
    118 O3    s    0.750000 *  0.768940 *  0.027050 *  -3.33043    1.000000    
    119 O2    s    0.250000 *  0.231060 *  0.972950 *  -2.87073    1.000000    
    120 O2    s    0.250000 *  0.768940 *  0.972950 *  -2.87073    1.000000    
--------------------------------------------------------------------------------



********************************************************************************
*  General input information                                                   *
********************************************************************************

  Species output for all configurations : 

--------------------------------------------------------------------------------
  Species    Type    Atomic    Atomic    Charge       Radii (Angs)     Library
                     Number     Mass       (e)     Cova   Ionic  VDW   Symbol
--------------------------------------------------------------------------------
    Ge       Core       32      72.61   4.000000   1.170  0.000  1.750 Ge       
    Si       Core       14      28.09   4.000000   1.200  0.000  2.100 Si       
    O1       Core        8      16.00   1.733957   0.730  0.000  1.360 O1       
    O2       Core        8      16.00   0.870733   0.730  0.000  1.360 O2       
    O3       Core        8      16.00   1.330431   0.730  0.000  1.360 O3       
    O1       Shell       8       0.00  -3.733957   0.730  0.000  0.000 O1       
    O2       Shell       8       0.00  -2.870733   0.730  0.000  0.000 O2       
    O3       Shell       8       0.00  -3.330431   0.730  0.000  0.000 O3       
--------------------------------------------------------------------------------


  Lattice summation method               =    Ewald          (3-D)
                                         =    Parry          (2-D)
                                         =    Saunders et al (1-D)
  Accuracy factor for lattice sums       =   12.000


  Analytic derivatives to be used

  Time limit = Infinity

  Maximum range for interatomic potentials =    100000.000000 Angstroms

  General interatomic potentials :

--------------------------------------------------------------------------------
Atom  Types   Potential      Parameter       Value         Units   Cutoffs(Ang)
  1     2                                                            Min /  Max 
--------------------------------------------------------------------------------
Si   c O1   s Buckingham    Buckingham A     1315.2478    eV        0.000 16.000
                            Buckingham rho  0.31775900    Ang       
                            Buckingham C     10.141118    eV*Ang^6  
--------------------------------------------------------------------------------
Si   c O2   s Buckingham    Buckingham A     1315.2478    eV        0.000 16.000
                            Buckingham rho  0.31775900    Ang       
                            Buckingham C     10.141118    eV*Ang^6  
--------------------------------------------------------------------------------
Si   c O3   s Buckingham    Buckingham A     1315.2478    eV        0.000 16.000
                            Buckingham rho  0.31775900    Ang       
                            Buckingham C     10.141118    eV*Ang^6  
--------------------------------------------------------------------------------
Ge   c O1   s Buckingham    Buckingham A     1497.3996    eV        0.000 16.000
                            Buckingham rho  0.32564600    Ang       
                            Buckingham C     16.808599    eV*Ang^6  
--------------------------------------------------------------------------------
Ge   c O2   s Buckingham    Buckingham A     1497.3996    eV        0.000 16.000
                            Buckingham rho  0.32564600    Ang       
                            Buckingham C     16.808599    eV*Ang^6  
--------------------------------------------------------------------------------
Ge   c O3   s Buckingham    Buckingham A     1497.3996    eV        0.000 16.000
                            Buckingham rho  0.32564600    Ang       
                            Buckingham C     16.808599    eV*Ang^6  
--------------------------------------------------------------------------------
O1   s O1   s Buckingham    Buckingham A     22764.000    eV        0.000 16.000
                            Buckingham rho  0.14900000    Ang       
                            Buckingham C     10.937044    eV*Ang^6  
--------------------------------------------------------------------------------
O1   s O2   s Buckingham    Buckingham A     22764.000    eV        0.000 16.000
                            Buckingham rho  0.14900000    Ang       
                            Buckingham C     10.937044    eV*Ang^6  
--------------------------------------------------------------------------------
O1   s O3   s Buckingham    Buckingham A     22764.000    eV        0.000 16.000
                            Buckingham rho  0.14900000    Ang       
                            Buckingham C     10.937044    eV*Ang^6  
--------------------------------------------------------------------------------
O2   s O2   s Buckingham    Buckingham A     22764.000    eV        0.000 16.000
                            Buckingham rho  0.14900000    Ang       
                            Buckingham C     10.937044    eV*Ang^6  
--------------------------------------------------------------------------------
O2   s O3   s Buckingham    Buckingham A     22764.000    eV        0.000 16.000
                            Buckingham rho  0.14900000    Ang       
                            Buckingham C     10.937044    eV*Ang^6  
--------------------------------------------------------------------------------
O3   s O3   s Buckingham    Buckingham A     22764.000    eV        0.000 16.000
                            Buckingham rho  0.14900000    Ang       
                            Buckingham C     10.937044    eV*Ang^6  
--------------------------------------------------------------------------------
O1   c O1   s Spring (c-s)  Spring k 2       180.31577    eV*Ang^-2 0.000  0.800
                            Spring k 4       0.0000000    eV*Ang^-4 
--------------------------------------------------------------------------------
O2   c O2   s Spring (c-s)  Spring k 2       75.969800    eV*Ang^-2 0.000  0.800
                            Spring k 4       0.0000000    eV*Ang^-4 
--------------------------------------------------------------------------------
O3   c O3   s Spring (c-s)  Spring k 2       128.14270    eV*Ang^-2 0.000  0.800
                            Spring k 4       0.0000000    eV*Ang^-4 
--------------------------------------------------------------------------------

  General Three-body potentials :

--------------------------------------------------------------------------------
  Atoms       Potential      Parameter       Value         Units   Cutoffs(Ang)
  1 / 2 / 3                                                          Min /  Max 
--------------------------------------------------------------------------------
Si    core    Harmonic      Three-body cnst  1.2614000    eV*rad^-2 0.000  1.900
O1    shel                  Three-body angl  109.47000    degrees   0.000  1.900
O1    shel                  Three-body k4    0.0000000    eV*rad^-4 0.000  3.500
                            Three-body k3    0.0000000    eV*rad^-3 
--------------------------------------------------------------------------------
Si    core    Harmonic      Three-body cnst  1.2614000    eV*rad^-2 0.000  1.900
O1    shel                  Three-body angl  109.47000    degrees   0.000  1.900
õ(1   shel                  Three-body k4    0.0000000    eV*rad^-4 0.000  3.500
                            Three-body k3    0.0000000    eV*rad^-3 
--------------------------------------------------------------------------------
Si    core    Harmonic      Three-body cnst  1.2614000    eV*rad^-2 0.000  1.900
õ(1   shel                  Three-body angl  109.47000    degrees   0.000  1.900
õ(1   shel                  Three-body k4    0.0000000    eV*rad^-4 0.000  3.500
                            Three-body k3    0.0000000    eV*rad^-3 
--------------------------------------------------------------------------------
Si    core    Harmonic      Three-body cnst  1.2614000    eV*rad^-2 0.000  1.900
O1    shel                  Three-body angl  109.47000    degrees   0.000  1.900
O2    shel                  Three-body k4    0.0000000    eV*rad^-4 0.000  3.500
                            Three-body k3    0.0000000    eV*rad^-3 
--------------------------------------------------------------------------------
Si    core    Harmonic      Three-body cnst  1.2614000    eV*rad^-2 0.000  1.900
O1    shel                  Three-body angl  109.47000    degrees   0.000  1.900
õ(2   shel                  Three-body k4    0.0000000    eV*rad^-4 0.000  3.500
                            Three-body k3    0.0000000    eV*rad^-3 
--------------------------------------------------------------------------------
Si    core    Harmonic      Three-body cnst  1.2614000    eV*rad^-2 0.000  1.900
O2    shel                  Three-body angl  109.47000    degrees   0.000  1.900
õ(1   shel                  Three-body k4    0.0000000    eV*rad^-4 0.000  3.500
                            Three-body k3    0.0000000    eV*rad^-3 
--------------------------------------------------------------------------------
Si    core    Harmonic      Three-body cnst  1.2614000    eV*rad^-2 0.000  1.900
õ(1   shel                  Three-body angl  109.47000    degrees   0.000  1.900
õ(2   shel                  Three-body k4    0.0000000    eV*rad^-4 0.000  3.500
                            Three-body k3    0.0000000    eV*rad^-3 
--------------------------------------------------------------------------------
Si    core    Harmonic      Three-body cnst  1.2614000    eV*rad^-2 0.000  1.900
O2    shel                  Three-body angl  109.47000    degrees   0.000  1.900
O2    shel                  Three-body k4    0.0000000    eV*rad^-4 0.000  3.500
                            Three-body k3    0.0000000    eV*rad^-3 
--------------------------------------------------------------------------------
Si    core    Harmonic      Three-body cnst  1.2614000    eV*rad^-2 0.000  1.900
O2    shel                  Three-body angl  109.47000    degrees   0.000  1.900
õ(2   shel                  Three-body k4    0.0000000    eV*rad^-4 0.000  3.500
                            Three-body k3    0.0000000    eV*rad^-3 
--------------------------------------------------------------------------------
Si    core    Harmonic      Three-body cnst  1.2614000    eV*rad^-2 0.000  1.900
õ(2   shel                  Three-body angl  109.47000    degrees   0.000  1.900
õ(2   shel                  Three-body k4    0.0000000    eV*rad^-4 0.000  3.500
                            Three-body k3    0.0000000    eV*rad^-3 
--------------------------------------------------------------------------------

********************************************************************************
*  Output for configuration   1 : c00287.vasp                                  *
********************************************************************************


  Components of energy : 

--------------------------------------------------------------------------------
  Interatomic potentials     =         768.41840442 eV    
  Three-body potentials      =           0.01094471 eV    
  Monopole - monopole (real) =       -2676.00317478 eV    
  Monopole - monopole (recip)=       -1115.35404472 eV    
  Monopole - monopole (total)=       -3791.35721950 eV    
--------------------------------------------------------------------------------
  Total lattice energy       =       -3022.92787037 eV    
--------------------------------------------------------------------------------
  Total lattice energy       =         -291666.3298 kJ/(mole unit cells)
--------------------------------------------------------------------------------


  Number of variables =      363

  Maximum number of calculations  =          1000
  Maximum Hessian update interval =            10
  Maximum step size               =   0.100000000
  Maximum parameter tolerance     =   0.000010000
  Maximum function  tolerance     =   0.000010000
  Maximum gradient  tolerance     =   0.001000000
  Maximum gradient  component     =   0.010000000

  Symmetry not applied to optimisation

  Cell parameters to be optimised using strains

  Newton-Raphson optimiser to be used

  BFGS hessian update to be used

  Lower half triangular hessian to be used

  Minimiser to switch to RFO
  When gradient norm is less than     0.050000

  Dumpfile to be written after every cycle

  Start of bulk optimisation :

  Cycle:      0 Energy:     -3022.927870  Gnorm:      4.391716  CPU:    0.118
  ** Hessian calculated **
  Cycle:      1 Energy:     -3036.555088  Gnorm:      3.447483  CPU:    0.324
  ** Hessian calculated **
  Cycle:      2 Energy:     -3055.873716  Gnorm:      0.768041  CPU:    0.554
  ** Hessian calculated **
  Cycle:      3 Energy:     -3057.397734  Gnorm:      0.408244  CPU:    0.785
  Cycle:      4 Energy:     -3057.881902  Gnorm:      0.265006  CPU:    0.914
  Cycle:      5 Energy:     -3058.326574  Gnorm:      0.221930  CPU:    1.069
  Cycle:      6 Energy:     -3058.789122  Gnorm:      0.183194  CPU:    1.219
  Cycle:      7 Energy:     -3059.162722  Gnorm:      0.165520  CPU:    1.376
  Cycle:      8 Energy:     -3059.337602  Gnorm:      0.127152  CPU:    1.507
  Cycle:      9 Energy:     -3059.448595  Gnorm:      0.105819  CPU:    1.635
  Cycle:     10 Energy:     -3059.522169  Gnorm:      0.083343  CPU:    1.787
  Cycle:     11 Energy:     -3059.574978  Gnorm:      0.077531  CPU:    1.939
  Cycle:     12 Energy:     -3059.628224  Gnorm:      0.076262  CPU:    2.090
  ** Hessian calculated **
  Cycle:     13 Energy:     -3059.700792  Gnorm:      0.072682  CPU:    2.345
  Cycle:     14 Energy:     -3059.815861  Gnorm:      0.066653  CPU:    2.519
  Cycle:     15 Energy:     -3059.947845  Gnorm:      0.058997  CPU:    2.670
  Cycle:     16 Energy:     -3060.099601  Gnorm:      0.048855  CPU:    2.824
  ** Hessian has wrong structure
  ** Imaginary eigenvectors =   4
  Cycle:     17 Energy:     -3060.150708  Gnorm:      0.203329  CPU:    3.189
  ** Hessian has wrong structure
  ** Imaginary eigenvectors =   3
  ** Hessian has wrong structure
  ** Imaginary eigenvectors =   2
  Cycle:     18 Energy:     -3060.285969  Gnorm:      0.227429  CPU:    3.784
  ** Hessian has wrong structure
  ** Imaginary eigenvectors =   1
  ** Hessian has required structure
  Cycle:     19 Energy:     -3060.672784  Gnorm:      0.116133  CPU:    4.242
  ** Hessian has required structure
  Cycle:     20 Energy:     -3060.778663  Gnorm:      0.067127  CPU:    4.435
  ** Hessian has required structure
  Cycle:     21 Energy:     -3060.847110  Gnorm:      0.041555  CPU:    4.630
  ** Hessian has required structure
  Cycle:     22 Energy:     -3060.882549  Gnorm:      0.025970  CPU:    4.819
  ** Hessian has required structure
  Cycle:     23 Energy:     -3060.906407  Gnorm:      0.033490  CPU:    5.015
  ** Hessian has required structure
  Cycle:     24 Energy:     -3060.926491  Gnorm:      0.030671  CPU:    5.212
  ** Hessian has required structure
  Cycle:     25 Energy:     -3060.944065  Gnorm:      0.026992  CPU:    5.425
  ** Hessian has required structure
  Cycle:     26 Energy:     -3060.958098  Gnorm:      0.021244  CPU:    5.620
  ** Hessian has required structure
  Cycle:     27 Energy:     -3060.966296  Gnorm:      0.021031  CPU:    5.815
  ** Hessian has required structure
  Cycle:     28 Energy:     -3060.972528  Gnorm:      0.021883  CPU:    6.007
  ** Hessian has required structure
  Cycle:     29 Energy:     -3060.987343  Gnorm:      0.020570  CPU:    6.318
  ** Hessian has required structure
  Cycle:     30 Energy:     -3061.004311  Gnorm:      0.018990  CPU:    6.533
  ** Hessian has required structure
  Cycle:     31 Energy:     -3061.017626  Gnorm:      0.014397  CPU:    6.729
  ** Hessian has required structure
  Cycle:     32 Energy:     -3061.021907  Gnorm:      0.008097  CPU:    6.922
  ** Hessian has required structure
  Cycle:     33 Energy:     -3061.024176  Gnorm:      0.008426  CPU:    7.124
  ** Hessian has required structure
  Cycle:     34 Energy:     -3061.025259  Gnorm:      0.005762  CPU:    7.324
  ** Hessian has required structure
  Cycle:     35 Energy:     -3061.025746  Gnorm:      0.003185  CPU:    7.523
  ** Hessian has required structure
  Cycle:     36 Energy:     -3061.025998  Gnorm:      0.002682  CPU:    7.761
  ** Hessian has required structure
  Cycle:     37 Energy:     -3061.026208  Gnorm:      0.001926  CPU:    7.972
  ** Hessian has required structure
  Cycle:     38 Energy:     -3061.026378  Gnorm:      0.001325  CPU:    8.169
  ** Hessian has required structure
  Cycle:     39 Energy:     -3061.026531  Gnorm:      0.000762  CPU:    8.443
  ** Hessian has required structure
  Cycle:     40 Energy:     -3061.026570  Gnorm:      0.000527  CPU:    8.615
  ** Hessian has required structure
  Cycle:     41 Energy:     -3061.026588  Gnorm:      0.000338  CPU:    8.785
  ** Hessian has required structure
  Cycle:     42 Energy:     -3061.026596  Gnorm:      0.000215  CPU:    8.959
  ** Hessian has required structure
  Cycle:     43 Energy:     -3061.026597  Gnorm:      0.000153  CPU:    9.121
  ** Hessian has required structure
  Cycle:     44 Energy:     -3061.026599  Gnorm:      0.000109  CPU:    9.274
  ** Hessian has required structure
  Cycle:     45 Energy:     -3061.026601  Gnorm:      0.000077  CPU:    9.425
  ** Hessian has required structure


  **** Optimisation achieved ****


  Final energy =   -3061.02660095 eV      
  Final Gnorm  =       0.00005412

  Components of energy : 

--------------------------------------------------------------------------------
  Interatomic potentials     =         815.53185296 eV    
  Three-body potentials      =           0.23496257 eV    
  Monopole - monopole (real) =       -2167.44929258 eV    
  Monopole - monopole (recip)=       -1709.34412390 eV    
  Monopole - monopole (total)=       -3876.79341648 eV    
--------------------------------------------------------------------------------
  Total lattice energy       =       -3061.02660095 eV    
--------------------------------------------------------------------------------
  Total lattice energy       =         -295342.2749 kJ/(mole unit cells)
--------------------------------------------------------------------------------

  Final fractional coordinates of atoms :

--------------------------------------------------------------------------------
   No.  Atomic        x           y          z          Radius
        Label       (Frac)      (Frac)     (Frac)       (Angs) 
--------------------------------------------------------------------------------
     1  Ge    c     0.052090    0.000000    0.372270    0.000000
     2  Ge    c     0.938440    0.995676    0.117391    0.000000
     3  Ge    c     0.051148    0.996167    0.870834    0.000000
     4  Ge    c     0.818375    0.712557    0.037876    0.000000
     5  Si    c     0.450900    0.984622    0.375010    0.000000
     6  Si    c     0.944273    0.001873    0.623026    0.000000
     7  Si    c     0.547269    0.985807    0.637259    0.000000
     8  Si    c     0.549421    0.981673    0.120002    0.000000
     9  Si    c     0.437343    0.994695    0.885235    0.000000
    10  Si    c     0.157581    0.307258    0.295099    0.000000
    11  Si    c     0.349488    0.678242    0.283679    0.000000
    12  Si    c     0.841458    0.303835    0.728730    0.000000
    13  Si    c     0.651475    0.676156    0.718649    0.000000
    14  Si    c     0.828043    0.713173    0.728098    0.000000
    15  Si    c     0.662618    0.274717    0.717798    0.000000
    16  Si    c     0.169535    0.713821    0.292438    0.000000
    17  Si    c     0.336385    0.275989    0.282940    0.000000
    18  Si    c     0.660094    0.268985    0.022804    0.000000
    19  Si    c     0.327691    0.279321    0.977166    0.000000
    20  Si    c     0.165301    0.713942    0.990542    0.000000
    21  Si    c     0.345624    0.677134    0.980398    0.000000
    22  Si    c     0.148156    0.309696    0.992316    0.000000
    23  Si    c     0.639491    0.661528    0.027261    0.000000
    24  Si    c     0.840979    0.311136    0.030629    0.000000
    25  O3    c     0.101139    0.197907    0.387790    0.000000
    26  O2    c     0.407209    0.797374    0.368241    0.000000
    27  O2    c     0.901418    0.189176    0.644591    0.000000
    28  O2    c     0.590575    0.798267    0.642424    0.000000
    29  O2    c     0.884800    0.840444    0.646316    0.000000
    30  O2    c     0.612199    0.139449    0.633273    0.000000
    31  O3    c     0.120998    0.834677    0.388366    0.000000
    32  O2    c     0.388351    0.140776    0.364283    0.000000
    33  O3    c     0.973328    0.990304    0.475119    0.000000
    34  O2    c     0.494588    0.998185    0.510778    0.000000
    35  O1    c     0.013717    0.976451    0.220191    0.000000
    36  O2    c     0.515888    0.002300    0.263816    0.000000
    37  O3    c     0.021674    0.991528    0.709725    0.000000
    38  O2    c     0.490253    0.012435    0.758872    0.000000
    39  O2    c     0.622662    0.113423    0.107773    0.000000
    40  O1    c     0.863725    0.850064    0.141598    0.000000
    41  O2    c     0.369479    0.140635    0.882716    0.000000
    42  O3    c     0.123898    0.843144    0.892344    0.000000
    43  O2    c     0.400108    0.799621    0.890183    0.000000
    44  O3    c     0.086768    0.203511    0.909191    0.000000
    45  O2    c     0.574705    0.780252    0.096877    0.000000
    46  O3    c     0.896365    0.201863    0.123044    0.000000
    47  O2    c     0.486779    0.038420    0.013304    0.000000
    48  O1    c     0.973036    0.945652    0.963882    0.000000
    49  O2    c     0.143472    0.513030    0.316427    0.000000
    50  O2    c     0.364862    0.473647    0.314309    0.000000
    51  O2    c     0.857877    0.512019    0.712243    0.000000
    52  O2    c     0.633826    0.472340    0.687016    0.000000
    53  O2    c     0.246740    0.255875    0.326274    0.000000
    54  O2    c     0.261433    0.730434    0.319459    0.000000
    55  O2    c     0.753892    0.258955    0.682376    0.000000
    56  O2    c     0.739373    0.724293    0.674333    0.000000
    57  O2    c     0.137748    0.256223    0.144897    0.000000
    58  O2    c     0.366219    0.716640    0.131086    0.000000
    59  O2    c     0.854353    0.250212    0.879840    0.000000
    60  O2    c     0.642805    0.707599    0.873254    0.000000
    61  O3    c     0.827056    0.776493    0.875921    0.000000
    62  O2    c     0.651943    0.224939    0.869854    0.000000
    63  O2    c     0.152520    0.770693    0.141776    0.000000
    64  O2    c     0.343308    0.234955    0.129079    0.000000
    65  O2    c     0.618462    0.455977    0.050354    0.000000
    66  O3    c     0.862866    0.510896    0.049655    0.000000
    67  O2    c     0.360812    0.473934    0.945371    0.000000
    68  O2    c     0.132356    0.516703    0.973191    0.000000
    69  O2    c     0.749821    0.282166    0.063701    0.000000
    70  O3    c     0.722706    0.702268    0.086629    0.000000
    71  O2    c     0.236182    0.266862    0.947358    0.000000
    72  O2    c     0.256204    0.721456    0.955047    0.000000
    73  O3    s     0.103057    0.193538    0.377097    0.000000
    74  O2    s     0.405474    0.804258    0.359560    0.000000
    75  O2    s     0.899248    0.182449    0.651613    0.000000
    76  O2    s     0.592664    0.804886    0.650275    0.000000
    77  O2    s     0.884899    0.843688    0.652867    0.000000
    78  O2    s     0.610898    0.138078    0.643082    0.000000
    79  O3    s     0.120615    0.835064    0.377279    0.000000
    80  O2    s     0.389286    0.139014    0.356239    0.000000
    81  O3    s     0.977012    0.992325    0.481498    0.000000
    82  O2    s     0.495660    0.995092    0.509679    0.000000
    83  O1    s     0.010284    0.980036    0.223618    0.000000
    84  O2    s     0.512438    0.997876    0.259558    0.000000
    85  O3    s     0.016573    0.992921    0.714188    0.000000
    86  O2    s     0.490501    0.007279    0.760017    0.000000
    87  O2    s     0.619019    0.116622    0.099499    0.000000
    88  O1    s     0.865743    0.849886    0.131294    0.000000
    89  O2    s     0.372126    0.140275    0.893355    0.000000
    90  O3    s     0.122379    0.841782    0.901143    0.000000
    91  O2    s     0.398113    0.806833    0.899503    0.000000
    92  O3    s     0.090445    0.198447    0.914969    0.000000
    93  O2    s     0.579120    0.788597    0.091636    0.000000
    94  O3    s     0.893916    0.196966    0.112986    0.000000
    95  O2    s     0.488370    0.027255    0.011124    0.000000
    96  O1    s     0.976843    0.953339    0.967638    0.000000
    97  O2    s     0.147839    0.511930    0.311490    0.000000
    98  O2    s     0.360169    0.474750    0.307680    0.000000
    99  O2    s     0.853078    0.510734    0.715606    0.000000
   100  O2    s     0.638766    0.473049    0.693625    0.000000
   101  O2    s     0.246997    0.263465    0.318318    0.000000
   102  O2    s     0.261063    0.722981    0.312680    0.000000
   103  O2    s     0.753437    0.265414    0.690993    0.000000
   104  O2    s     0.739246    0.718068    0.684397    0.000000
   105  O2    s     0.140796    0.266731    0.144515    0.000000
   106  O2    s     0.362277    0.708493    0.131322    0.000000
   107  O2    s     0.851697    0.261746    0.879083    0.000000
   108  O2    s     0.643394    0.699314    0.872867    0.000000
   109  O3    s     0.826459    0.765003    0.873769    0.000000
   110  O2    s     0.653973    0.234977    0.869997    0.000000
   111  O2    s     0.155500    0.759333    0.141523    0.000000
   112  O2    s     0.340886    0.244038    0.129393    0.000000
   113  O2    s     0.624904    0.457877    0.045108    0.000000
   114  O3    s     0.856928    0.506304    0.046683    0.000000
   115  O2    s     0.355706    0.475258    0.952466    0.000000
   116  O2    s     0.137497    0.515457    0.977068    0.000000
   117  O2    s     0.749550    0.283809    0.055692    0.000000
   118  O3    s     0.721990    0.698897    0.076475    0.000000
   119  O2    s     0.236809    0.272755    0.955347    0.000000
   120  O2    s     0.256299    0.715570    0.961836    0.000000
--------------------------------------------------------------------------------

  Final Cartesian lattice vectors (Angstroms) :

       17.199786   -0.024714    0.028455
       -0.010480    7.615296    0.018755
        0.016744    0.023324   10.229895


  Final cell parameters and derivatives :

--------------------------------------------------------------------------------
       a           17.199827 Angstrom     dE/de1(xx)     0.001961 eV/strain
       b            7.615327 Angstrom     dE/de2(yy)    -0.000150 eV/strain
       c           10.229935 Angstrom     dE/de3(zz)     0.002664 eV/strain
       alpha       89.728390 Degrees      dE/de4(yz)    -0.000031 eV/strain
       beta        89.811619 Degrees      dE/de5(xz)    -0.000144 eV/strain
       gamma       90.160940 Degrees      dE/de6(xy)    -0.000216 eV/strain
--------------------------------------------------------------------------------

  Primitive cell volume =          1339.912782 Angs**3

  Density of cell =      2.007977 g/cm**3

  Non-primitive cell volume =          1339.912782 Angs**3


  Final internal derivatives :

--------------------------------------------------------------------------------
   No.  Atomic          a             b             c           Radius
        Label          (eV)          (eV)          (eV)        (eV/Angs)
--------------------------------------------------------------------------------
      1 Ge    c       0.000000      0.000000      0.000000      0.000000
      2 Ge    c      -0.000344     -0.000017     -0.000678      0.000000
      3 Ge    c       0.000385     -0.000063     -0.000286      0.000000
      4 Ge    c      -0.001754     -0.001016     -0.000587      0.000000
      5 Si    c      -0.003685     -0.000332     -0.000495      0.000000
      6 Si    c       0.000117     -0.000007     -0.000249      0.000000
      7 Si    c       0.007351     -0.000665      0.000524      0.000000
      8 Si    c       0.003476     -0.000589      0.000834      0.000000
      9 Si    c      -0.005328     -0.000726      0.001691      0.000000
     10 Si    c       0.000086      0.000033     -0.000070      0.000000
     11 Si    c       0.000361     -0.000044      0.000047      0.000000
     12 Si    c       0.000281      0.000123      0.000146      0.000000
     13 Si    c      -0.000368      0.000032      0.000220      0.000000
     14 Si    c      -0.000152      0.000247      0.001058      0.000000
     15 Si    c      -0.000920      0.000161     -0.000223      0.000000
     16 Si    c       0.000127     -0.000023     -0.000238      0.000000
     17 Si    c       0.000105      0.000266     -0.000089      0.000000
     18 Si    c       0.000573      0.000064      0.000403      0.000000
     19 Si    c       0.000624      0.000163      0.000212      0.000000
     20 Si    c      -0.000079      0.000006      0.000123      0.000000
     21 Si    c       0.000591     -0.000189     -0.000101      0.000000
     22 Si    c       0.000103      0.000042     -0.000027      0.000000
     23 Si    c       0.002188     -0.000188      0.000263      0.000000
     24 Si    c      -0.000567      0.000766      0.000433      0.000000
     25 O3    c       0.000253      0.000224      0.000073      0.000000
     26 O2    c       0.000164     -0.000155     -0.000045      0.000000
     27 O2    c       0.000027     -0.000006     -0.000043      0.000000
     28 O2    c      -0.000081     -0.000454     -0.000136      0.000000
     29 O2    c      -0.000035     -0.000069     -0.000030      0.000000
     30 O2    c       0.000560      0.000637     -0.000215      0.000000
     31 O3    c       0.000125     -0.000093      0.000236      0.000000
     32 O2    c      -0.000511      0.000468      0.000237      0.000000
     33 O3    c      -0.001042     -0.000019      0.000437      0.000000
     34 O2    c      -0.006745      0.000504     -0.002426      0.000000
     35 O1    c       0.003171     -0.000045      0.000737      0.000000
     36 O2    c       0.005447      0.000205     -0.000528      0.000000
     37 O3    c       0.000782     -0.000019      0.000288      0.000000
     38 O2    c       0.003749      0.000889     -0.001608      0.000000
     39 O2    c       0.000850      0.000412      0.000029      0.000000
     40 O1    c      -0.000627     -0.000018      0.000912      0.000000
     41 O2    c      -0.000590      0.000571     -0.000321      0.000000
     42 O3    c      -0.000004     -0.000002     -0.000103      0.000000
     43 O2    c      -0.000213     -0.000832     -0.000163      0.000000
     44 O3    c       0.000127      0.000023     -0.000020      0.000000
     45 O2    c      -0.000405     -0.000274     -0.000117      0.000000
     46 O3    c      -0.000938      0.000632     -0.000023      0.000000
     47 O2    c      -0.004439      0.001662     -0.000065      0.000000
     48 O1    c      -0.001354     -0.000231      0.000343      0.000000
     49 O2    c      -0.000051     -0.000075      0.000024      0.000000
     50 O2    c       0.000124      0.000053      0.000039      0.000000
     51 O2    c      -0.000209     -0.000264      0.000146      0.000000
     52 O2    c       0.000172     -0.000264      0.000265      0.000000
     53 O2    c      -0.000219     -0.000006      0.000058      0.000000
     54 O2    c       0.000244     -0.000017      0.000014      0.000000
     55 O2    c       0.000114      0.000084      0.000052      0.000000
     56 O2    c       0.000013     -0.000131      0.000363      0.000000
     57 O2    c      -0.000076     -0.000018      0.000059      0.000000
     58 O2    c       0.000004     -0.000083     -0.000036      0.000000
     59 O2    c      -0.000269      0.000194     -0.000062      0.000000
     60 O2    c      -0.000266     -0.000314      0.000250      0.000000
     61 O3    c      -0.000442     -0.000683     -0.000608      0.000000
     62 O2    c       0.000467      0.000260      0.000078      0.000000
     63 O2    c       0.000022     -0.000016     -0.000017      0.000000
     64 O2    c       0.000089     -0.000004     -0.000220      0.000000
     65 O2    c       0.000620      0.000528     -0.000543      0.000000
     66 O3    c      -0.001980      0.000223     -0.001418      0.000000
     67 O2    c       0.000190      0.000062     -0.000051      0.000000
     68 O2    c      -0.000046     -0.000085     -0.000029      0.000000
     69 O2    c      -0.000164      0.000554     -0.000321      0.000000
     70 O3    c      -0.001694     -0.001031     -0.001498      0.000000
     71 O2    c      -0.000249     -0.000006     -0.000070      0.000000
     72 O2    c       0.000463     -0.000014     -0.000043      0.000000
     73 O3    s       0.000074     -0.000009      0.000005      0.000000
     74 O2    s      -0.001656     -0.000364      0.000094      0.000000
     75 O2    s      -0.000274      0.000168      0.000253      0.000000
     76 O2    s       0.003112     -0.000641      0.000346      0.000000
     77 O2    s      -0.000418     -0.000060      0.000183      0.000000
     78 O2    s       0.003293      0.000406      0.000325      0.000000
     79 O3    s       0.000027     -0.000005     -0.000071      0.000000
     80 O2    s      -0.001968      0.000069     -0.000192      0.000000
     81 O3    s       0.000323      0.000030     -0.000114      0.000000
     82 O2    s       0.000600     -0.000146      0.000008      0.000000
     83 O1    s      -0.001317     -0.000023     -0.000408      0.000000
     84 O2    s      -0.000486     -0.000334      0.000514      0.000000
     85 O3    s      -0.000426      0.000073     -0.000094      0.000000
     86 O2    s      -0.000295      0.000202      0.000161      0.000000
     87 O2    s       0.002390      0.000362     -0.000427      0.000000
     88 O1    s      -0.000471     -0.000445     -0.000480      0.000000
     89 O2    s      -0.002974      0.000277     -0.000277      0.000000
     90 O3    s       0.000049      0.000055      0.000062      0.000000
     91 O2    s      -0.003026     -0.000558      0.000333      0.000000
     92 O3    s      -0.000095      0.000013      0.000045      0.000000
     93 O2    s       0.002808     -0.000925      0.000017      0.000000
     94 O3    s      -0.000303      0.000335     -0.000278      0.000000
     95 O2    s       0.001069      0.000034      0.001247      0.000000
     96 O1    s       0.000958      0.000245     -0.000401      0.000000
     97 O2    s       0.000023     -0.000041     -0.000035      0.000000
     98 O2    s      -0.000307      0.000056     -0.000087      0.000000
     99 O2    s      -0.001169      0.000046      0.000298      0.000000
    100 O2    s       0.001245      0.000089      0.000605      0.000000
    101 O2    s      -0.000154     -0.000008     -0.000044      0.000000
    102 O2    s       0.000016      0.000039     -0.000032      0.000000
    103 O2    s      -0.000069      0.000380      0.000682      0.000000
    104 O2    s       0.000306     -0.000317      0.000691      0.000000
    105 O2    s       0.000144      0.000067     -0.000002      0.000000
    106 O2    s      -0.000130      0.000205      0.000174      0.000000
    107 O2    s      -0.001359      0.000341      0.000300      0.000000
    108 O2    s       0.001384     -0.000238      0.000704      0.000000
    109 O3    s      -0.000565     -0.000390      0.000375      0.000000
    110 O2    s       0.000499     -0.000086      0.000298      0.000000
    111 O2    s      -0.000004     -0.000017      0.000024      0.000000
    112 O2    s      -0.000001     -0.000141      0.000400      0.000000
    113 O2    s       0.001606      0.000149     -0.000761      0.000000
    114 O3    s      -0.000534     -0.000427     -0.000242      0.000000
    115 O2    s      -0.000498      0.000112      0.000165      0.000000
    116 O2    s      -0.000032     -0.000046      0.000061      0.000000
    117 O2    s       0.000580      0.000505     -0.000887      0.000000
    118 O3    s       0.000177     -0.000043     -0.000662      0.000000
    119 O2    s      -0.000346     -0.000026      0.000047      0.000000
    120 O2    s      -0.000080      0.000056      0.000087      0.000000
--------------------------------------------------------------------------------
  Maximum abs         0.007351      0.001662      0.002426      0.000000
--------------------------------------------------------------------------------


  Born effective charge tensors : 

-------------------------------------------------------------------------------
  Atom             x           y             z
-------------------------------------------------------------------------------
    1 Ge    x       4.3365      0.1276      0.0121
            y      -0.1029      3.8893      0.0109
            z      -0.9369      0.0126      4.3593
-------------------------------------------------------------------------------
    2 Ge    x       4.5883     -0.1764      0.0903
            y       0.1783      3.8844     -0.0558
            z       0.8323     -0.0639      3.7124
-------------------------------------------------------------------------------
    3 Ge    x       4.4686      0.2005      0.4831
            y      -0.1873      3.9338      0.0244
            z       0.4559      0.0099      3.8801
-------------------------------------------------------------------------------
    4 Ge    x       3.9902      0.4479      0.1845
            y       0.1229      4.1223      0.3625
            z       0.2386      0.1287      3.4125
-------------------------------------------------------------------------------
    5 Si    x       3.3829      0.0912      0.2643
            y      -0.1170      3.2510      0.0059
            z       0.4137      0.0503      3.8295
-------------------------------------------------------------------------------
    6 Si    x       3.8974     -0.1063     -0.4226
            y       0.0641      3.3624      0.0119
            z      -0.1964      0.0859      4.2919
-------------------------------------------------------------------------------
    7 Si    x       3.4528     -0.1305      0.1387
            y       0.1099      3.2526     -0.0153
            z       0.5195      0.0005      3.7904
-------------------------------------------------------------------------------
    8 Si    x       3.3620     -0.1764     -0.2902
            y       0.2484      3.2437      0.0237
            z      -0.4140      0.0372      3.1206
-------------------------------------------------------------------------------
    9 Si    x       3.4184      0.1628     -0.1665
            y      -0.1646      3.2567     -0.0156
            z      -0.5827     -0.0305      3.0788
-------------------------------------------------------------------------------
   10 Si    x       3.3945      0.3430     -0.2720
            y       0.3871      3.5158     -0.3562
            z      -0.2703     -0.1762      2.9898
-------------------------------------------------------------------------------
   11 Si    x       3.1417      0.2054      0.0689
            y       0.2909      3.4324      0.1676
            z       0.0709      0.0957      2.8220
-------------------------------------------------------------------------------
   12 Si    x       3.2359     -0.2295     -0.0535
            y      -0.2734      3.4323      0.2184
            z      -0.1219      0.0505      2.7717
-------------------------------------------------------------------------------
   13 Si    x       3.1712     -0.2493      0.0210
            y      -0.3018      3.4601     -0.1641
            z       0.1380     -0.0938      2.8059
-------------------------------------------------------------------------------
   14 Si    x       3.3147      0.3153     -0.0892
            y       0.2102      3.5825     -0.0914
            z      -0.2048      0.0494      3.0663
-------------------------------------------------------------------------------
   15 Si    x       3.2019      0.3177      0.1089
            y       0.1893      3.4599      0.1452
            z       0.1096      0.0601      2.7993
-------------------------------------------------------------------------------
   16 Si    x       3.3655     -0.4151     -0.3197
            y      -0.3118      3.5772      0.3693
            z      -0.2356      0.1781      2.9878
-------------------------------------------------------------------------------
   17 Si    x       3.1492     -0.2910      0.1035
            y      -0.2106      3.4773     -0.1386
            z       0.1105     -0.0850      2.8275
-------------------------------------------------------------------------------
   18 Si    x       3.1472      0.3909     -0.1542
            y       0.0677      3.4326     -0.1594
            z      -0.1156     -0.0859      2.7388
-------------------------------------------------------------------------------
   19 Si    x       3.2015     -0.3123     -0.1859
            y      -0.1239      3.4550      0.1778
            z      -0.1067      0.0853      2.7435
-------------------------------------------------------------------------------
   20 Si    x       3.3594     -0.4165      0.3590
            y      -0.2025      3.6075     -0.4118
            z       0.2271     -0.2225      2.9660
-------------------------------------------------------------------------------
   21 Si    x       3.2048      0.2483     -0.1556
            y       0.2827      3.4167     -0.1616
            z      -0.1173     -0.0781      2.7169
-------------------------------------------------------------------------------
   22 Si    x       3.5596      0.3699      0.3127
            y       0.4205      3.5192      0.3318
            z       0.3467      0.1522      2.9005
-------------------------------------------------------------------------------
   23 Si    x       3.4995     -0.2125      0.0302
            y      -0.2517      3.4981      0.1921
            z      -0.1455      0.0908      2.8083
-------------------------------------------------------------------------------
   24 Si    x       3.5667     -0.3353      0.3205
            y      -0.2528      3.7883     -0.2996
            z       0.3311     -0.0898      2.9477
-------------------------------------------------------------------------------
   25 O3    x      -2.0115     -0.9236      0.4731
            y      -0.8879     -2.3215      0.4604
            z       0.5896      0.4725     -1.6215
-------------------------------------------------------------------------------
   26 O2    x      -1.6180     -0.6885     -0.3279
            y      -0.6648     -2.0073     -0.3448
            z      -0.3471     -0.3424     -1.3683
-------------------------------------------------------------------------------
   27 O2    x      -1.6889      0.7013      0.3849
            y       0.6408     -2.0089     -0.3881
            z       0.3634     -0.3651     -1.3746
-------------------------------------------------------------------------------
   28 O2    x      -1.6563      0.7219     -0.2815
            y       0.7022     -2.0419      0.3147
            z      -0.3646      0.3184     -1.3213
-------------------------------------------------------------------------------
   29 O2    x      -1.7805     -0.7323      0.3706
            y      -0.7390     -1.9942      0.3574
            z       0.3899      0.3522     -1.3419
-------------------------------------------------------------------------------
   30 O2    x      -1.7425     -0.7163     -0.2825
            y      -0.7629     -1.9505     -0.3120
            z      -0.3524     -0.3165     -1.3460
-------------------------------------------------------------------------------
   31 O3    x      -2.0760      0.9184      0.4547
            y       0.9745     -2.2816     -0.5052
            z       0.5481     -0.4664     -1.6287
-------------------------------------------------------------------------------
   32 O2    x      -1.7296      0.7257     -0.3413
            y       0.7706     -1.9768      0.3580
            z      -0.3662      0.3401     -1.3494
-------------------------------------------------------------------------------
   33 O3    x      -2.0681      0.0091      1.0502
            y      -0.0174     -1.2159     -0.0033
            z       1.2951     -0.0403     -3.2138
-------------------------------------------------------------------------------
   34 O2    x      -1.6155      0.0015     -0.8251
            y      -0.0017     -1.0882     -0.0028
            z      -1.0639     -0.0098     -2.7797
-------------------------------------------------------------------------------
   35 O1    x      -2.3444      0.0386     -1.0143
            y       0.0447     -1.3343      0.0155
            z      -0.9658     -0.0001     -2.7203
-------------------------------------------------------------------------------
   36 O2    x      -1.6277      0.0223      0.6792
            y      -0.0210     -1.1164     -0.0209
            z       0.6524     -0.0384     -2.2417
-------------------------------------------------------------------------------
   37 O3    x      -2.2661      0.0255     -0.9195
            y       0.0550     -1.2427      0.0206
            z      -0.8566      0.0024     -2.5584
-------------------------------------------------------------------------------
   38 O2    x      -1.7420      0.0019      0.7353
            y       0.0112     -1.1198     -0.0098
            z       0.7789     -0.0139     -2.2105
-------------------------------------------------------------------------------
   39 O2    x      -1.7376     -0.6999      0.3414
            y      -0.6630     -1.9211      0.3657
            z       0.3353      0.3569     -1.2463
-------------------------------------------------------------------------------
   40 O1    x      -2.2701     -0.9402     -0.3327
            y      -0.9635     -2.3530     -0.4237
            z      -0.4229     -0.3752     -1.5784
-------------------------------------------------------------------------------
   41 O2    x      -1.7307      0.6932      0.3034
            y       0.6965     -1.9194     -0.3549
            z       0.3282     -0.3264     -1.2685
-------------------------------------------------------------------------------
   42 O3    x      -2.1001      0.9426     -0.6664
            y       0.9032     -2.2920      0.6696
            z      -0.5637      0.5826     -1.6143
-------------------------------------------------------------------------------
   43 O2    x      -1.6046     -0.6778      0.3216
            y      -0.5887     -2.0372      0.3602
            z       0.3521      0.3519     -1.2525
-------------------------------------------------------------------------------
   44 O3    x      -2.1109     -0.9398     -0.6618
            y      -0.8249     -2.3704     -0.6456
            z      -0.6039     -0.5817     -1.5607
-------------------------------------------------------------------------------
   45 O2    x      -1.6073      0.6599      0.3235
            y       0.5304     -2.0646     -0.3649
            z       0.3412     -0.3496     -1.2092
-------------------------------------------------------------------------------
   46 O3    x      -2.0169      0.8787     -0.4906
            y       0.7979     -2.2685      0.4866
            z      -0.5455      0.4546     -1.5165
-------------------------------------------------------------------------------
   47 O2    x      -1.7604      0.0403     -0.5673
            y       0.0261     -1.2073      0.0235
            z      -0.3187      0.0096     -1.6732
-------------------------------------------------------------------------------
   48 O1    x      -2.3491     -0.0784      0.7866
            y      -0.0604     -1.4276     -0.0265
            z       0.4406     -0.0435     -2.1660
-------------------------------------------------------------------------------
   49 O2    x      -1.1855     -0.0583      0.0785
            y      -0.0871     -2.4657      0.0106
            z       0.0854      0.0004     -1.0783
-------------------------------------------------------------------------------
   50 O2    x      -1.1461     -0.0588     -0.0585
            y      -0.1028     -2.5492     -0.0108
            z      -0.0687      0.0054     -1.0733
-------------------------------------------------------------------------------
   51 O2    x      -1.2052      0.0583      0.0362
            y       0.1110     -2.6236      0.0217
            z       0.0653      0.0423     -1.0418
-------------------------------------------------------------------------------
   52 O2    x      -1.1547      0.0534     -0.0526
            y       0.0972     -2.5490     -0.0042
            z      -0.0794     -0.0114     -1.0758
-------------------------------------------------------------------------------
   53 O2    x      -2.3466      0.1169      0.0377
            y       0.0730     -1.2601      0.0719
            z       0.0571      0.0451     -1.0836
-------------------------------------------------------------------------------
   54 O2    x      -2.3592      0.0948      0.0243
            y       0.0312     -1.2530     -0.0728
            z       0.0258     -0.0497     -1.0654
-------------------------------------------------------------------------------
   55 O2    x      -2.4096     -0.0918     -0.0489
            y      -0.0437     -1.2418     -0.0749
            z      -0.0033     -0.0401     -1.0725
-------------------------------------------------------------------------------
   56 O2    x      -2.3682     -0.1039     -0.0067
            y      -0.0589     -1.2582      0.0703
            z      -0.0038      0.0443     -1.0943
-------------------------------------------------------------------------------
   57 O2    x      -1.2399     -0.1366     -0.0589
            y      -0.1321     -1.3059      0.0103
            z      -0.0715      0.0186     -2.0305
-------------------------------------------------------------------------------
   58 O2    x      -1.2026     -0.1310      0.0050
            y      -0.1359     -1.2642      0.0083
            z       0.0112     -0.0022     -2.0568
-------------------------------------------------------------------------------
   59 O2    x      -1.2451      0.1413     -0.0034
            y       0.1200     -1.2906      0.0095
            z      -0.0179      0.0030     -2.0316
-------------------------------------------------------------------------------
   60 O2    x      -1.1795      0.0991      0.1186
            y       0.1025     -1.2828      0.0234
            z       0.1255      0.0464     -2.1013
-------------------------------------------------------------------------------
   61 O3    x      -1.3258     -0.1347      0.0318
            y      -0.0727     -1.4835     -0.0674
            z       0.0598     -0.0888     -2.5674
-------------------------------------------------------------------------------
   62 O2    x      -1.1647     -0.1354      0.0595
            y      -0.0797     -1.2793     -0.0076
            z       0.0284      0.0128     -2.0674
-------------------------------------------------------------------------------
   63 O2    x      -1.2149      0.1447     -0.0347
            y       0.1067     -1.3319     -0.0247
            z      -0.0364     -0.0069     -2.0196
-------------------------------------------------------------------------------
   64 O2    x      -1.1641      0.1249     -0.0145
            y       0.0927     -1.2844      0.0098
            z      -0.0313     -0.0062     -2.0860
-------------------------------------------------------------------------------
   65 O2    x      -1.2407      0.1064      0.0812
            y       0.1910     -2.4593     -0.0049
            z       0.1163     -0.0244     -1.0298
-------------------------------------------------------------------------------
   66 O3    x      -1.4349      0.0212     -0.0815
            y       0.1038     -3.0083     -0.0857
            z      -0.1209     -0.0647     -1.1366
-------------------------------------------------------------------------------
   67 O2    x      -1.1988     -0.0657      0.0912
            y      -0.1505     -2.5030     -0.0222
            z       0.0912     -0.0042     -1.0344
-------------------------------------------------------------------------------
   68 O2    x      -1.2609     -0.0728     -0.0908
            y      -0.1293     -2.4724      0.0081
            z      -0.1030     -0.0000     -1.0353
-------------------------------------------------------------------------------
   69 O2    x      -2.4227     -0.1233     -0.0185
            y      -0.0748     -1.2430      0.0520
            z      -0.0240      0.0180     -1.0729
-------------------------------------------------------------------------------
   70 O3    x      -2.8893     -0.1935     -0.1285
            y      -0.1208     -1.3831     -0.1041
            z      -0.1389     -0.0638     -1.2528
-------------------------------------------------------------------------------
   71 O2    x      -2.4038      0.1035      0.0696
            y       0.0740     -1.2508     -0.0816
            z       0.0215     -0.0457     -1.0589
-------------------------------------------------------------------------------
   72 O2    x      -2.3930      0.0877      0.0619
            y       0.0556     -1.2470      0.0632
            z       0.0217      0.0388     -1.0394
-------------------------------------------------------------------------------




  Elastic Constant Matrix: (Units=GPa)

-------------------------------------------------------------------------------
  Indices      1         2         3         4         5         6    
-------------------------------------------------------------------------------
       1     53.8936   26.4628   27.8791    0.0331   -1.4748    1.9771
       2     26.4628   71.5982   25.7865   -0.2986   -1.0999    2.1968
       3     27.8791   25.7865   29.0533   -0.3626    0.1712    0.6431
       4      0.0331   -0.2986   -0.3626   11.4904   -0.1227   -0.2638
       5     -1.4748   -1.0999    0.1712   -0.1227   24.4549    1.4579
       6      1.9771    2.1968    0.6431   -0.2638    1.4579   26.0168
-------------------------------------------------------------------------------


  Elastic Compliance Matrix: (Units=1/GPa)

-------------------------------------------------------------------------------
  Indices      1         2         3         4         5         6    
-------------------------------------------------------------------------------
       1    0.037192 -0.001178 -0.034628 -0.001250  0.002547 -0.002026
       2   -0.001178  0.020641 -0.017167 -0.000020  0.001054 -0.001288
       3   -0.034628 -0.017167  0.082884  0.002283 -0.003564  0.002255
       4   -0.001250 -0.000020  0.002283  0.087128  0.000291  0.000907
       5    0.002547  0.001054 -0.003564  0.000291  0.041268 -0.002504
       6   -0.002026 -0.001288  0.002255  0.000907 -0.002504  0.038793
-------------------------------------------------------------------------------

  Mechanical properties :

-------------------------------------------------------------------------------
  Convention :                    Reuss         Voigt         Hill
-------------------------------------------------------------------------------
  Bulk  Modulus (GPa)     =      28.76092      34.97800      31.86946
  Shear Modulus (GPa)     =      11.75243      17.35354      14.55299
-------------------------------------------------------------------------------
  Velocity S-wave (km/s)  =       2.41927       2.93978       2.69213
  Velocity P-wave (km/s)  =       4.70395       5.37983       5.05320
-------------------------------------------------------------------------------
  Compressibility (1/GPa) =    0.03476941
-------------------------------------------------------------------------------
  Stress axis :                     x             y             z
-------------------------------------------------------------------------------
  Youngs Moduli (GPa)     =      26.88775      48.44772      12.06500
-------------------------------------------------------------------------------
  Poissons Ratio (x)      =                     0.05709       0.41779
  Poissons Ratio (y)      =       0.03169                     0.20712
  Poissons Ratio (z)      =       0.93108       0.83170
-------------------------------------------------------------------------------


  Piezoelectric Strain Matrix: (Units=C/m**2)

-------------------------------------------------------------------------------
  Indices      1         2         3         4         5         6    
-------------------------------------------------------------------------------
       x     0.17942   0.89534   0.17613  -0.29822   0.30122  -0.06251
       y    -0.20557  -0.55479   0.15657  -0.02209  -0.46650   0.23094
       z     0.63230   0.17682   0.61115   0.09173  -0.39145   0.02189
-------------------------------------------------------------------------------


  Piezoelectric Stress Matrix: (Units=10**-11 C/N)

-------------------------------------------------------------------------------
  Indices      1         2         3         4         5         6    
-------------------------------------------------------------------------------
       x     0.07852   1.56496  -0.88800  -2.57929   1.32738  -0.45696
       y    -1.40419  -1.46857   3.17527  -0.12249  -2.15029   1.15912
       z     0.09890  -0.80297   2.73775   0.84997  -1.65636   0.17819
-------------------------------------------------------------------------------


  Static dielectric constant tensor : 

-------------------------------------------------------------------------------
              x         y         z
-------------------------------------------------------------------------------
       x     4.02366   0.02270   0.04417
       y     0.02270   4.18967  -0.07356
       z     0.04417  -0.07356   3.47736
--------------------------------------------------------------------------------

  High frequency dielectric constant tensor : 

-------------------------------------------------------------------------------
              x         y         z
-------------------------------------------------------------------------------
       x     1.67113  -0.00053  -0.00145
       y    -0.00053   1.68091   0.00019
       z    -0.00145   0.00019   1.61182
-------------------------------------------------------------------------------

  Static refractive indices : 

-------------------------------------------------------------------------------
    1 =    1.86172      2 =    2.00639      3 =    2.04917
-------------------------------------------------------------------------------

  High frequency refractive indices : 

-------------------------------------------------------------------------------
    1 =    1.26956      2 =    1.29272      3 =    1.29651
-------------------------------------------------------------------------------


  Time to end of optimisation =       9.7624 seconds


  Peak dynamic memory used =       5.01 MB 


  Timing analysis for GULP :

--------------------------------------------------------------------------------
  Task / Subroutine                                          Time (Seconds)
--------------------------------------------------------------------------------
  Calculation of reciprocal space energy and derivatives          0.4882
  Calculation of real space energy and derivatives                6.7085
  Calculation of three-body energy and derivatives                0.5085
  Calculation and manipulation of Hessian matrix                  2.4900
  Calculation of matrix inversion                                 0.0302
  Global summation overhead                                       0.0001
--------------------------------------------------------------------------------
  Total CPU time                                                  9.7624
--------------------------------------------------------------------------------


  Dump file written as c00287.vasp.grs
  CIF file written as c00287.vasp.cif


  Job Finished at 12:39.54 31st October    2025                               

