********************************************************************************
*                       GENERAL UTILITY LATTICE PROGRAM                        *
*                                 Julian Gale                                  *
*                       Curtin Institute for Computation                       *
*                    School of Molecular and Life Sciences                     *
*                    Curtin University, Western Australia                      *
********************************************************************************
* Version = 6.1.2 * Last modified =   3rd November 2022                        *
********************************************************************************
*  optimise     - perform optimisation run                                     *
*  conp         - constant pressure calculation                                *
*  property     - calculate properties for final geometry                      *
********************************************************************************

  Job Started  at 12:40.22 31st October    2025                               

  Number of CPUs =     1


  Total number of configurations input =      1

********************************************************************************
*  Input for Configuration =   1 : c00291.vasp                                 *
********************************************************************************

  Formula = Ge4Si20O48                                                  

  Number of irreducible atoms/shells =     120


  Total number atoms/shells =     120

  Dimensionality = 3               :  Bulk   



  Cartesian lattice vectors (Angstroms) :

       17.182800    0.000000    0.000000
        0.000000    7.513760    0.000000
        0.000000    0.000000   10.447700

  Cell parameters (Angstroms/Degrees):

  a =      17.1828    alpha =  90.0000
  b =       7.5138    beta  =  90.0000
  c =      10.4477    gamma =  90.0000

  Initial cell volume =        1348.875752 Angs**3

  Temperature of configuration =   0.00     K 

  Pressure of configuration =         0.000 GPa 

  Fractional coordinates of asymmetric unit :

--------------------------------------------------------------------------------
   No.  Atomic       x           y          z         Charge      Occupancy
        Label      (Frac)      (Frac)     (Frac)        (e)         (Frac)  
--------------------------------------------------------------------------------
      1 Ge    c    0.052090    0.000000    0.372270     4.00000    1.000000    
      2 Ge    c    0.943270 *  0.000000 *  0.122130 *   4.00000    1.000000    
      3 Ge    c    0.160190 *  0.293910 *  0.273440 *   4.00000    1.000000    
      4 Ge    c    0.839810 *  0.293910 *  0.726560 *   4.00000    1.000000    
      5 Si    c    0.447910 *  0.000000 *  0.372270 *   4.00000    1.000000    
      6 Si    c    0.947910 *  0.000000 *  0.627730 *   4.00000    1.000000    
      7 Si    c    0.552090 *  0.000000 *  0.627730 *   4.00000    1.000000    
      8 Si    c    0.556730 *  0.000000 *  0.122130 *   4.00000    1.000000    
      9 Si    c    0.443270 *  0.000000 *  0.877870 *   4.00000    1.000000    
     10 Si    c    0.056730 *  0.000000 *  0.877870 *   4.00000    1.000000    
     11 Si    c    0.339810 *  0.706090 *  0.273440 *   4.00000    1.000000    
     12 Si    c    0.660190 *  0.706090 *  0.726560 *   4.00000    1.000000    
     13 Si    c    0.839810 *  0.706090 *  0.726560 *   4.00000    1.000000    
     14 Si    c    0.660190 *  0.293910 *  0.726560 *   4.00000    1.000000    
     15 Si    c    0.160190 *  0.706090 *  0.273440 *   4.00000    1.000000    
     16 Si    c    0.339810 *  0.293910 *  0.273440 *   4.00000    1.000000    
     17 Si    c    0.660660 *  0.294090 *  0.017440 *   4.00000    1.000000    
     18 Si    c    0.839340 *  0.705910 *  0.017440 *   4.00000    1.000000    
     19 Si    c    0.339340 *  0.294090 *  0.982560 *   4.00000    1.000000    
     20 Si    c    0.160660 *  0.705910 *  0.982560 *   4.00000    1.000000    
     21 Si    c    0.339340 *  0.705910 *  0.982560 *   4.00000    1.000000    
     22 Si    c    0.160660 *  0.294090 *  0.982560 *   4.00000    1.000000    
     23 Si    c    0.660660 *  0.705910 *  0.017440 *   4.00000    1.000000    
     24 Si    c    0.839340 *  0.294090 *  0.017440 *   4.00000    1.000000    
     25 O1    c    0.106570 *  0.174340 *  0.366200 *   1.73396    1.000000    
     26 O2    c    0.393430 *  0.825660 *  0.366200 *   0.87073    1.000000    
     27 O3    c    0.893430 *  0.174340 *  0.633800 *   1.33043    1.000000    
     28 O2    c    0.606570 *  0.825660 *  0.633800 *   0.87073    1.000000    
     29 O2    c    0.893430 *  0.825660 *  0.633800 *   0.87073    1.000000    
     30 O2    c    0.606570 *  0.174340 *  0.633800 *   0.87073    1.000000    
     31 O3    c    0.106570 *  0.825660 *  0.366200 *   1.33043    1.000000    
     32 O2    c    0.393430 *  0.174340 *  0.366200 *   0.87073    1.000000    
     33 O3    c    0.000000 *  0.000000 *  0.500000 *   1.33043    1.000000    
     34 O2    c    0.500000 *  0.000000 *  0.500000 *   0.87073    1.000000    
     35 O1    c    0.994520 *  0.000000 *  0.250840 *   1.73396    1.000000    
     36 O2    c    0.505480 *  0.000000 *  0.250840 *   0.87073    1.000000    
     37 O2    c    0.005480 *  0.000000 *  0.749160 *   0.87073    1.000000    
     38 O2    c    0.494520 *  0.000000 *  0.749160 *   0.87073    1.000000    
     39 O2    c    0.610230 *  0.175520 *  0.115390 *   0.87073    1.000000    
     40 O3    c    0.889770 *  0.824480 *  0.115390 *   1.33043    1.000000    
     41 O2    c    0.389770 *  0.175520 *  0.884610 *   0.87073    1.000000    
     42 O2    c    0.110230 *  0.824480 *  0.884610 *   0.87073    1.000000    
     43 O2    c    0.389770 *  0.824480 *  0.884610 *   0.87073    1.000000    
     44 O2    c    0.110230 *  0.175520 *  0.884610 *   0.87073    1.000000    
     45 O2    c    0.610230 *  0.824480 *  0.115390 *   0.87073    1.000000    
     46 O3    c    0.889770 *  0.175520 *  0.115390 *   1.33043    1.000000    
     47 O2    c    0.500000 *  0.000000 *  0.000000 *   0.87073    1.000000    
     48 O3    c    0.000000 *  0.000000 *  0.000000 *   1.33043    1.000000    
     49 O3    c    0.151750 *  0.500000 *  0.313330 *   1.33043    1.000000    
     50 O2    c    0.348250 *  0.500000 *  0.313330 *   0.87073    1.000000    
     51 O3    c    0.848250 *  0.500000 *  0.686670 *   1.33043    1.000000    
     52 O2    c    0.651750 *  0.500000 *  0.686670 *   0.87073    1.000000    
     53 O3    c    0.250000 *  0.234950 *  0.285720 *   1.33043    1.000000    
     54 O2    c    0.250000 *  0.765050 *  0.285720 *   0.87073    1.000000    
     55 O3    c    0.750000 *  0.234950 *  0.714280 *   1.33043    1.000000    
     56 O2    c    0.750000 *  0.765050 *  0.714280 *   0.87073    1.000000    
     57 O3    c    0.131410 *  0.268650 *  0.127790 *   1.33043    1.000000    
     58 O2    c    0.368590 *  0.731350 *  0.127790 *   0.87073    1.000000    
     59 O3    c    0.868590 *  0.268650 *  0.872210 *   1.33043    1.000000    
     60 O2    c    0.631410 *  0.731350 *  0.872210 *   0.87073    1.000000    
     61 O2    c    0.868590 *  0.731350 *  0.872210 *   0.87073    1.000000    
     62 O2    c    0.631410 *  0.268650 *  0.872210 *   0.87073    1.000000    
     63 O2    c    0.131410 *  0.731350 *  0.127790 *   0.87073    1.000000    
     64 O2    c    0.368590 *  0.268650 *  0.127790 *   0.87073    1.000000    
     65 O2    c    0.653920 *  0.500000 *  0.058200 *   0.87073    1.000000    
     66 O2    c    0.846080 *  0.500000 *  0.058200 *   0.87073    1.000000    
     67 O2    c    0.346080 *  0.500000 *  0.941800 *   0.87073    1.000000    
     68 O2    c    0.153920 *  0.500000 *  0.941800 *   0.87073    1.000000    
     69 O2    c    0.750000 *  0.231060 *  0.027050 *   0.87073    1.000000    
     70 O2    c    0.750000 *  0.768940 *  0.027050 *   0.87073    1.000000    
     71 O2    c    0.250000 *  0.231060 *  0.972950 *   0.87073    1.000000    
     72 O2    c    0.250000 *  0.768940 *  0.972950 *   0.87073    1.000000    
     73 O1    s    0.106570 *  0.174340 *  0.366200 *  -3.73396    1.000000    
     74 O2    s    0.393430 *  0.825660 *  0.366200 *  -2.87073    1.000000    
     75 O3    s    0.893430 *  0.174340 *  0.633800 *  -3.33043    1.000000    
     76 O2    s    0.606570 *  0.825660 *  0.633800 *  -2.87073    1.000000    
     77 O2    s    0.893430 *  0.825660 *  0.633800 *  -2.87073    1.000000    
     78 O2    s    0.606570 *  0.174340 *  0.633800 *  -2.87073    1.000000    
     79 O3    s    0.106570 *  0.825660 *  0.366200 *  -3.33043    1.000000    
     80 O2    s    0.393430 *  0.174340 *  0.366200 *  -2.87073    1.000000    
     81 O3    s    0.000000 *  0.000000 *  0.500000 *  -3.33043    1.000000    
     82 O2    s    0.500000 *  0.000000 *  0.500000 *  -2.87073    1.000000    
     83 O1    s    0.994520 *  0.000000 *  0.250840 *  -3.73396    1.000000    
     84 O2    s    0.505480 *  0.000000 *  0.250840 *  -2.87073    1.000000    
     85 O2    s    0.005480 *  0.000000 *  0.749160 *  -2.87073    1.000000    
     86 O2    s    0.494520 *  0.000000 *  0.749160 *  -2.87073    1.000000    
     87 O2    s    0.610230 *  0.175520 *  0.115390 *  -2.87073    1.000000    
     88 O3    s    0.889770 *  0.824480 *  0.115390 *  -3.33043    1.000000    
     89 O2    s    0.389770 *  0.175520 *  0.884610 *  -2.87073    1.000000    
     90 O2    s    0.110230 *  0.824480 *  0.884610 *  -2.87073    1.000000    
     91 O2    s    0.389770 *  0.824480 *  0.884610 *  -2.87073    1.000000    
     92 O2    s    0.110230 *  0.175520 *  0.884610 *  -2.87073    1.000000    
     93 O2    s    0.610230 *  0.824480 *  0.115390 *  -2.87073    1.000000    
     94 O3    s    0.889770 *  0.175520 *  0.115390 *  -3.33043    1.000000    
     95 O2    s    0.500000 *  0.000000 *  0.000000 *  -2.87073    1.000000    
     96 O3    s    0.000000 *  0.000000 *  0.000000 *  -3.33043    1.000000    
     97 O3    s    0.151750 *  0.500000 *  0.313330 *  -3.33043    1.000000    
     98 O2    s    0.348250 *  0.500000 *  0.313330 *  -2.87073    1.000000    
     99 O3    s    0.848250 *  0.500000 *  0.686670 *  -3.33043    1.000000    
    100 O2    s    0.651750 *  0.500000 *  0.686670 *  -2.87073    1.000000    
    101 O3    s    0.250000 *  0.234950 *  0.285720 *  -3.33043    1.000000    
    102 O2    s    0.250000 *  0.765050 *  0.285720 *  -2.87073    1.000000    
    103 O3    s    0.750000 *  0.234950 *  0.714280 *  -3.33043    1.000000    
    104 O2    s    0.750000 *  0.765050 *  0.714280 *  -2.87073    1.000000    
    105 O3    s    0.131410 *  0.268650 *  0.127790 *  -3.33043    1.000000    
    106 O2    s    0.368590 *  0.731350 *  0.127790 *  -2.87073    1.000000    
    107 O3    s    0.868590 *  0.268650 *  0.872210 *  -3.33043    1.000000    
    108 O2    s    0.631410 *  0.731350 *  0.872210 *  -2.87073    1.000000    
    109 O2    s    0.868590 *  0.731350 *  0.872210 *  -2.87073    1.000000    
    110 O2    s    0.631410 *  0.268650 *  0.872210 *  -2.87073    1.000000    
    111 O2    s    0.131410 *  0.731350 *  0.127790 *  -2.87073    1.000000    
    112 O2    s    0.368590 *  0.268650 *  0.127790 *  -2.87073    1.000000    
    113 O2    s    0.653920 *  0.500000 *  0.058200 *  -2.87073    1.000000    
    114 O2    s    0.846080 *  0.500000 *  0.058200 *  -2.87073    1.000000    
    115 O2    s    0.346080 *  0.500000 *  0.941800 *  -2.87073    1.000000    
    116 O2    s    0.153920 *  0.500000 *  0.941800 *  -2.87073    1.000000    
    117 O2    s    0.750000 *  0.231060 *  0.027050 *  -2.87073    1.000000    
    118 O2    s    0.750000 *  0.768940 *  0.027050 *  -2.87073    1.000000    
    119 O2    s    0.250000 *  0.231060 *  0.972950 *  -2.87073    1.000000    
    120 O2    s    0.250000 *  0.768940 *  0.972950 *  -2.87073    1.000000    
--------------------------------------------------------------------------------



********************************************************************************
*  General input information                                                   *
********************************************************************************

  Species output for all configurations : 

--------------------------------------------------------------------------------
  Species    Type    Atomic    Atomic    Charge       Radii (Angs)     Library
                     Number     Mass       (e)     Cova   Ionic  VDW   Symbol
--------------------------------------------------------------------------------
    Ge       Core       32      72.61   4.000000   1.170  0.000  1.750 Ge       
    Si       Core       14      28.09   4.000000   1.200  0.000  2.100 Si       
    O1       Core        8      16.00   1.733957   0.730  0.000  1.360 O1       
    O2       Core        8      16.00   0.870733   0.730  0.000  1.360 O2       
    O3       Core        8      16.00   1.330431   0.730  0.000  1.360 O3       
    O1       Shell       8       0.00  -3.733957   0.730  0.000  0.000 O1       
    O2       Shell       8       0.00  -2.870733   0.730  0.000  0.000 O2       
    O3       Shell       8       0.00  -3.330431   0.730  0.000  0.000 O3       
--------------------------------------------------------------------------------


  Lattice summation method               =    Ewald          (3-D)
                                         =    Parry          (2-D)
                                         =    Saunders et al (1-D)
  Accuracy factor for lattice sums       =   12.000


  Analytic derivatives to be used

  Time limit = Infinity

  Maximum range for interatomic potentials =    100000.000000 Angstroms

  General interatomic potentials :

--------------------------------------------------------------------------------
Atom  Types   Potential      Parameter       Value         Units   Cutoffs(Ang)
  1     2                                                            Min /  Max 
--------------------------------------------------------------------------------
Si   c O1   s Buckingham    Buckingham A     1315.2478    eV        0.000 16.000
                            Buckingham rho  0.31775900    Ang       
                            Buckingham C     10.141118    eV*Ang^6  
--------------------------------------------------------------------------------
Si   c O2   s Buckingham    Buckingham A     1315.2478    eV        0.000 16.000
                            Buckingham rho  0.31775900    Ang       
                            Buckingham C     10.141118    eV*Ang^6  
--------------------------------------------------------------------------------
Si   c O3   s Buckingham    Buckingham A     1315.2478    eV        0.000 16.000
                            Buckingham rho  0.31775900    Ang       
                            Buckingham C     10.141118    eV*Ang^6  
--------------------------------------------------------------------------------
Ge   c O1   s Buckingham    Buckingham A     1497.3996    eV        0.000 16.000
                            Buckingham rho  0.32564600    Ang       
                            Buckingham C     16.808599    eV*Ang^6  
--------------------------------------------------------------------------------
Ge   c O2   s Buckingham    Buckingham A     1497.3996    eV        0.000 16.000
                            Buckingham rho  0.32564600    Ang       
                            Buckingham C     16.808599    eV*Ang^6  
--------------------------------------------------------------------------------
Ge   c O3   s Buckingham    Buckingham A     1497.3996    eV        0.000 16.000
                            Buckingham rho  0.32564600    Ang       
                            Buckingham C     16.808599    eV*Ang^6  
--------------------------------------------------------------------------------
O1   s O1   s Buckingham    Buckingham A     22764.000    eV        0.000 16.000
                            Buckingham rho  0.14900000    Ang       
                            Buckingham C     10.937044    eV*Ang^6  
--------------------------------------------------------------------------------
O1   s O2   s Buckingham    Buckingham A     22764.000    eV        0.000 16.000
                            Buckingham rho  0.14900000    Ang       
                            Buckingham C     10.937044    eV*Ang^6  
--------------------------------------------------------------------------------
O1   s O3   s Buckingham    Buckingham A     22764.000    eV        0.000 16.000
                            Buckingham rho  0.14900000    Ang       
                            Buckingham C     10.937044    eV*Ang^6  
--------------------------------------------------------------------------------
O2   s O2   s Buckingham    Buckingham A     22764.000    eV        0.000 16.000
                            Buckingham rho  0.14900000    Ang       
                            Buckingham C     10.937044    eV*Ang^6  
--------------------------------------------------------------------------------
O2   s O3   s Buckingham    Buckingham A     22764.000    eV        0.000 16.000
                            Buckingham rho  0.14900000    Ang       
                            Buckingham C     10.937044    eV*Ang^6  
--------------------------------------------------------------------------------
O3   s O3   s Buckingham    Buckingham A     22764.000    eV        0.000 16.000
                            Buckingham rho  0.14900000    Ang       
                            Buckingham C     10.937044    eV*Ang^6  
--------------------------------------------------------------------------------
O1   c O1   s Spring (c-s)  Spring k 2       180.31577    eV*Ang^-2 0.000  0.800
                            Spring k 4       0.0000000    eV*Ang^-4 
--------------------------------------------------------------------------------
O2   c O2   s Spring (c-s)  Spring k 2       75.969800    eV*Ang^-2 0.000  0.800
                            Spring k 4       0.0000000    eV*Ang^-4 
--------------------------------------------------------------------------------
O3   c O3   s Spring (c-s)  Spring k 2       128.14270    eV*Ang^-2 0.000  0.800
                            Spring k 4       0.0000000    eV*Ang^-4 
--------------------------------------------------------------------------------

  General Three-body potentials :

--------------------------------------------------------------------------------
  Atoms       Potential      Parameter       Value         Units   Cutoffs(Ang)
  1 / 2 / 3                                                          Min /  Max 
--------------------------------------------------------------------------------
Si    core    Harmonic      Three-body cnst  1.2614000    eV*rad^-2 0.000  1.900
O1    shel                  Three-body angl  109.47000    degrees   0.000  1.900
O1    shel                  Three-body k4    0.0000000    eV*rad^-4 0.000  3.500
                            Three-body k3    0.0000000    eV*rad^-3 
--------------------------------------------------------------------------------
Si    core    Harmonic      Three-body cnst  1.2614000    eV*rad^-2 0.000  1.900
O1    shel                  Three-body angl  109.47000    degrees   0.000  1.900
õ(1   shel                  Three-body k4    0.0000000    eV*rad^-4 0.000  3.500
                            Three-body k3    0.0000000    eV*rad^-3 
--------------------------------------------------------------------------------
Si    core    Harmonic      Three-body cnst  1.2614000    eV*rad^-2 0.000  1.900
õ(1   shel                  Three-body angl  109.47000    degrees   0.000  1.900
õ(1   shel                  Three-body k4    0.0000000    eV*rad^-4 0.000  3.500
                            Three-body k3    0.0000000    eV*rad^-3 
--------------------------------------------------------------------------------
Si    core    Harmonic      Three-body cnst  1.2614000    eV*rad^-2 0.000  1.900
O1    shel                  Three-body angl  109.47000    degrees   0.000  1.900
O2    shel                  Three-body k4    0.0000000    eV*rad^-4 0.000  3.500
                            Three-body k3    0.0000000    eV*rad^-3 
--------------------------------------------------------------------------------
Si    core    Harmonic      Three-body cnst  1.2614000    eV*rad^-2 0.000  1.900
O1    shel                  Three-body angl  109.47000    degrees   0.000  1.900
õ(2   shel                  Three-body k4    0.0000000    eV*rad^-4 0.000  3.500
                            Three-body k3    0.0000000    eV*rad^-3 
--------------------------------------------------------------------------------
Si    core    Harmonic      Three-body cnst  1.2614000    eV*rad^-2 0.000  1.900
O2    shel                  Three-body angl  109.47000    degrees   0.000  1.900
õ(1   shel                  Three-body k4    0.0000000    eV*rad^-4 0.000  3.500
                            Three-body k3    0.0000000    eV*rad^-3 
--------------------------------------------------------------------------------
Si    core    Harmonic      Three-body cnst  1.2614000    eV*rad^-2 0.000  1.900
õ(1   shel                  Three-body angl  109.47000    degrees   0.000  1.900
õ(2   shel                  Three-body k4    0.0000000    eV*rad^-4 0.000  3.500
                            Three-body k3    0.0000000    eV*rad^-3 
--------------------------------------------------------------------------------
Si    core    Harmonic      Three-body cnst  1.2614000    eV*rad^-2 0.000  1.900
O2    shel                  Three-body angl  109.47000    degrees   0.000  1.900
O2    shel                  Three-body k4    0.0000000    eV*rad^-4 0.000  3.500
                            Three-body k3    0.0000000    eV*rad^-3 
--------------------------------------------------------------------------------
Si    core    Harmonic      Three-body cnst  1.2614000    eV*rad^-2 0.000  1.900
O2    shel                  Three-body angl  109.47000    degrees   0.000  1.900
õ(2   shel                  Three-body k4    0.0000000    eV*rad^-4 0.000  3.500
                            Three-body k3    0.0000000    eV*rad^-3 
--------------------------------------------------------------------------------
Si    core    Harmonic      Three-body cnst  1.2614000    eV*rad^-2 0.000  1.900
õ(2   shel                  Three-body angl  109.47000    degrees   0.000  1.900
õ(2   shel                  Three-body k4    0.0000000    eV*rad^-4 0.000  3.500
                            Three-body k3    0.0000000    eV*rad^-3 
--------------------------------------------------------------------------------

********************************************************************************
*  Output for configuration   1 : c00291.vasp                                  *
********************************************************************************


  Components of energy : 

--------------------------------------------------------------------------------
  Interatomic potentials     =         768.33385523 eV    
  Three-body potentials      =           0.01274716 eV    
  Monopole - monopole (real) =       -2676.00317478 eV    
  Monopole - monopole (recip)=       -1115.35404472 eV    
  Monopole - monopole (total)=       -3791.35721950 eV    
--------------------------------------------------------------------------------
  Total lattice energy       =       -3023.01061711 eV    
--------------------------------------------------------------------------------
  Total lattice energy       =         -291674.3136 kJ/(mole unit cells)
--------------------------------------------------------------------------------


  Number of variables =      363

  Maximum number of calculations  =          1000
  Maximum Hessian update interval =            10
  Maximum step size               =   0.100000000
  Maximum parameter tolerance     =   0.000010000
  Maximum function  tolerance     =   0.000010000
  Maximum gradient  tolerance     =   0.001000000
  Maximum gradient  component     =   0.010000000

  Symmetry not applied to optimisation

  Cell parameters to be optimised using strains

  Newton-Raphson optimiser to be used

  BFGS hessian update to be used

  Lower half triangular hessian to be used

  Minimiser to switch to RFO
  When gradient norm is less than     0.050000

  Dumpfile to be written after every cycle

  Start of bulk optimisation :

  Cycle:      0 Energy:     -3023.010617  Gnorm:      4.457255  CPU:    0.108
  ** Hessian calculated **
  Cycle:      1 Energy:     -3054.119621  Gnorm:      0.993499  CPU:    0.244
  ** Hessian calculated **
  Cycle:      2 Energy:     -3056.327753  Gnorm:      0.800817  CPU:    0.467
  ** Hessian calculated **
  Cycle:      3 Energy:     -3057.956448  Gnorm:      0.444713  CPU:    0.671
  Cycle:      4 Energy:     -3058.490984  Gnorm:      0.294142  CPU:    0.780
  Cycle:      5 Energy:     -3058.981763  Gnorm:      0.237076  CPU:    0.905
  Cycle:      6 Energy:     -3059.459644  Gnorm:      0.188497  CPU:    1.036
  Cycle:      7 Energy:     -3059.763378  Gnorm:      0.159056  CPU:    1.142
  Cycle:      8 Energy:     -3059.946441  Gnorm:      0.120233  CPU:    1.248
  Cycle:      9 Energy:     -3060.045282  Gnorm:      0.094971  CPU:    1.358
  Cycle:     10 Energy:     -3060.100266  Gnorm:      0.073953  CPU:    1.484
  Cycle:     11 Energy:     -3060.137287  Gnorm:      0.068573  CPU:    1.609
  Cycle:     12 Energy:     -3060.181573  Gnorm:      0.070451  CPU:    1.735
  ** Hessian calculated **
  Cycle:     13 Energy:     -3060.217269  Gnorm:      0.068930  CPU:    1.960
  Cycle:     14 Energy:     -3060.276543  Gnorm:      0.066324  CPU:    2.105
  Cycle:     15 Energy:     -3060.366995  Gnorm:      0.062170  CPU:    2.248
  Cycle:     16 Energy:     -3060.483005  Gnorm:      0.056410  CPU:    2.371
  Cycle:     17 Energy:     -3060.659195  Gnorm:      0.045872  CPU:    2.496
  ** Hessian has wrong structure
  ** Imaginary eigenvectors =   4
  Cycle:     18 Energy:     -3060.704429  Gnorm:      0.069249  CPU:    2.783
  ** Hessian has wrong structure
  ** Imaginary eigenvectors =   2
  ** Hessian has wrong structure
  ** Imaginary eigenvectors =   1
  Cycle:     19 Energy:     -3060.747761  Gnorm:      0.079335  CPU:    3.303
  ** Hessian has required structure
  Cycle:     20 Energy:     -3060.985806  Gnorm:      0.048107  CPU:    3.496
  ** Hessian has required structure
  Cycle:     21 Energy:     -3061.074070  Gnorm:      0.031548  CPU:    3.670
  ** Hessian has required structure
  Cycle:     22 Energy:     -3061.114696  Gnorm:      0.036999  CPU:    3.844
  ** Hessian has required structure
  Cycle:     23 Energy:     -3061.151437  Gnorm:      0.020277  CPU:    4.017
  ** Hessian has required structure
  Cycle:     24 Energy:     -3061.167061  Gnorm:      0.031476  CPU:    4.189
  ** Hessian has required structure
  Cycle:     25 Energy:     -3061.179521  Gnorm:      0.027322  CPU:    4.354
  ** Hessian has required structure
  Cycle:     26 Energy:     -3061.192887  Gnorm:      0.021650  CPU:    4.508
  ** Hessian has required structure
  Cycle:     27 Energy:     -3061.209500  Gnorm:      0.019020  CPU:    4.710
  ** Hessian has required structure
  Cycle:     28 Energy:     -3061.222874  Gnorm:      0.011971  CPU:    4.876
  ** Hessian has required structure
  Cycle:     29 Energy:     -3061.238549  Gnorm:      0.012694  CPU:    5.138
  ** Hessian has required structure
  Cycle:     30 Energy:     -3061.245226  Gnorm:      0.012064  CPU:    5.306
  ** Hessian has required structure
  Cycle:     31 Energy:     -3061.248007  Gnorm:      0.006352  CPU:    5.476
  ** Hessian has required structure
  Cycle:     32 Energy:     -3061.249011  Gnorm:      0.005506  CPU:    5.665
  ** Hessian has required structure
  Cycle:     33 Energy:     -3061.249776  Gnorm:      0.003520  CPU:    5.819
  ** Hessian has required structure
  Cycle:     34 Energy:     -3061.250080  Gnorm:      0.002255  CPU:    5.974
  ** Hessian has required structure
  Cycle:     35 Energy:     -3061.250212  Gnorm:      0.001139  CPU:    6.132
  ** Hessian has required structure
  Cycle:     36 Energy:     -3061.250270  Gnorm:      0.001004  CPU:    6.291
  ** Hessian has required structure
  Cycle:     37 Energy:     -3061.250302  Gnorm:      0.000462  CPU:    6.463
  ** Hessian has required structure
  Cycle:     38 Energy:     -3061.250313  Gnorm:      0.000331  CPU:    6.638
  ** Hessian has required structure


  **** Optimisation achieved ****


  Final energy =   -3061.25031917 eV      
  Final Gnorm  =       0.00013440

  Components of energy : 

--------------------------------------------------------------------------------
  Interatomic potentials     =         812.92420482 eV    
  Three-body potentials      =           0.19056154 eV    
  Monopole - monopole (real) =       -2170.11039047 eV    
  Monopole - monopole (recip)=       -1704.25469506 eV    
  Monopole - monopole (total)=       -3874.36508553 eV    
--------------------------------------------------------------------------------
  Total lattice energy       =       -3061.25031917 eV    
--------------------------------------------------------------------------------
  Total lattice energy       =         -295363.8603 kJ/(mole unit cells)
--------------------------------------------------------------------------------

  Final fractional coordinates of atoms :

--------------------------------------------------------------------------------
   No.  Atomic        x           y          z          Radius
        Label       (Frac)      (Frac)     (Frac)       (Angs) 
--------------------------------------------------------------------------------
     1  Ge    c     0.052090    0.000000    0.372270    0.000000
     2  Ge    c     0.938350    0.966341    0.120748    0.000000
     3  Ge    c     0.160027    0.304756    0.268473    0.000000
     4  Ge    c     0.833458    0.265096    0.692967    0.000000
     5  Si    c     0.455539    0.983092    0.345184    0.000000
     6  Si    c     0.951441    0.972939    0.627553    0.000000
     7  Si    c     0.548324    0.998002    0.611856    0.000000
     8  Si    c     0.556517    0.995525    0.097063    0.000000
     9  Si    c     0.440607    0.972706    0.860517    0.000000
    10  Si    c     0.053023    0.996168    0.881738    0.000000
    11  Si    c     0.350083    0.682936    0.247296    0.000000
    12  Si    c     0.663579    0.703683    0.692719    0.000000
    13  Si    c     0.842721    0.677048    0.699584    0.000000
    14  Si    c     0.652393    0.302812    0.685813    0.000000
    15  Si    c     0.171448    0.713879    0.258568    0.000000
    16  Si    c     0.341787    0.281292    0.257028    0.000000
    17  Si    c     0.650589    0.304188    0.994214    0.000000
    18  Si    c     0.842091    0.660015    0.002500    0.000000
    19  Si    c     0.334861    0.276715    0.949066    0.000000
    20  Si    c     0.161966    0.694816    0.952839    0.000000
    21  Si    c     0.340460    0.673663    0.941999    0.000000
    22  Si    c     0.156716    0.294514    0.955990    0.000000
    23  Si    c     0.663914    0.698614    0.999093    0.000000
    24  Si    c     0.827727    0.258347    0.001845    0.000000
    25  O1    c     0.092593    0.201763    0.358558    0.000000
    26  O2    c     0.408315    0.805205    0.326409    0.000000
    27  O3    c     0.893923    0.136347    0.599962    0.000000
    28  O2    c     0.613244    0.843655    0.610589    0.000000
    29  O2    c     0.899255    0.799389    0.618319    0.000000
    30  O2    c     0.590341    0.185005    0.609001    0.000000
    31  O3    c     0.128484    0.859004    0.341343    0.000000
    32  O2    c     0.399129    0.151356    0.334663    0.000000
    33  O3    c     0.021901    0.964956    0.530640    0.000000
    34  O2    c     0.492915    0.979714    0.488027    0.000000
    35  O1    c     0.971463    0.970178    0.278158    0.000000
    36  O2    c     0.524650    0.994440    0.242723    0.000000
    37  O2    c     0.985888    0.994803    0.774174    0.000000
    38  O2    c     0.496123    0.982465    0.738882    0.000000
    39  O2    c     0.592278    0.185111    0.072817    0.000000
    40  O3    c     0.898806    0.762993    0.095669    0.000000
    41  O2    c     0.384021    0.141989    0.862202    0.000000
    42  O2    c     0.108654    0.824592    0.866138    0.000000
    43  O2    c     0.390460    0.796760    0.849578    0.000000
    44  O2    c     0.102508    0.172821    0.866349    0.000000
    45  O2    c     0.620727    0.842076    0.086593    0.000000
    46  O3    c     0.870682    0.132013    0.101971    0.000000
    47  O2    c     0.488440    0.961507    0.994646    0.000000
    48  O3    c     0.016995    0.999004    0.024451    0.000000
    49  O3    c     0.141370    0.524177    0.293077    0.000000
    50  O2    c     0.369372    0.480484    0.279024    0.000000
    51  O3    c     0.863159    0.477335    0.672742    0.000000
    52  O2    c     0.635538    0.508355    0.658252    0.000000
    53  O3    c     0.255795    0.258861    0.308592    0.000000
    54  O2    c     0.262748    0.725968    0.290219    0.000000
    55  O3    c     0.738215    0.253153    0.641452    0.000000
    56  O2    c     0.753789    0.719879    0.656798    0.000000
    57  O3    c     0.146778    0.245739    0.106456    0.000000
    58  O2    c     0.357365    0.720839    0.093082    0.000000
    59  O3    c     0.839234    0.195139    0.853664    0.000000
    60  O2    c     0.653257    0.745401    0.846350    0.000000
    61  O2    c     0.853926    0.721700    0.853284    0.000000
    62  O2    c     0.644260    0.264850    0.840131    0.000000
    63  O2    c     0.155019    0.749268    0.104425    0.000000
    64  O2    c     0.345234    0.235422    0.102655    0.000000
    65  O2    c     0.629340    0.506651    0.024696    0.000000
    66  O2    c     0.861119    0.454090    0.013603    0.000000
    67  O2    c     0.363350    0.471566    0.915837    0.000000
    68  O2    c     0.132527    0.497366    0.932773    0.000000
    69  O2    c     0.737673    0.261168    0.040360    0.000000
    70  O2    c     0.753469    0.700477    0.041570    0.000000
    71  O2    c     0.244881    0.261156    0.911493    0.000000
    72  O2    c     0.250402    0.707763    0.907643    0.000000
    73  O1    s     0.094858    0.194417    0.352438    0.000000
    74  O2    s     0.406875    0.810792    0.319475    0.000000
    75  O3    s     0.894482    0.131272    0.610182    0.000000
    76  O2    s     0.611958    0.844512    0.619888    0.000000
    77  O2    s     0.898527    0.803973    0.628126    0.000000
    78  O2    s     0.592625    0.177950    0.617602    0.000000
    79  O3    s     0.126804    0.854932    0.334888    0.000000
    80  O2    s     0.398859    0.147426    0.327051    0.000000
    81  O3    s     0.016843    0.968648    0.528097    0.000000
    82  O2    s     0.495097    0.982278    0.485960    0.000000
    83  O1    s     0.975209    0.972253    0.273042    0.000000
    84  O2    s     0.520587    0.993302    0.237424    0.000000
    85  O2    s     0.989898    0.992675    0.771043    0.000000
    86  O2    s     0.495485    0.983067    0.738902    0.000000
    87  O2    s     0.594995    0.177945    0.066473    0.000000
    88  O3    s     0.895964    0.768505    0.087745    0.000000
    89  O2    s     0.384624    0.138796    0.871797    0.000000
    90  O2    s     0.108736    0.828097    0.877199    0.000000
    91  O2    s     0.390274    0.801828    0.860877    0.000000
    92  O2    s     0.103199    0.167610    0.877534    0.000000
    93  O2    s     0.618605    0.842607    0.077733    0.000000
    94  O3    s     0.871748    0.131686    0.092848    0.000000
    95  O2    s     0.490837    0.966695    0.991191    0.000000
    96  O3    s     0.013974    0.995925    0.018064    0.000000
    97  O3    s     0.145955    0.525598    0.287563    0.000000
    98  O2    s     0.364408    0.481320    0.273297    0.000000
    99  O3    s     0.858598    0.480790    0.677171    0.000000
   100  O2    s     0.640274    0.507489    0.664787    0.000000
   101  O3    s     0.256813    0.264715    0.300270    0.000000
   102  O2    s     0.262531    0.719980    0.282149    0.000000
   103  O3    s     0.737283    0.259059    0.650012    0.000000
   104  O2    s     0.753376    0.713727    0.665043    0.000000
   105  O3    s     0.148832    0.255318    0.104282    0.000000
   106  O2    s     0.354748    0.711738    0.093398    0.000000
   107  O3    s     0.837663    0.206816    0.855445    0.000000
   108  O2    s     0.655495    0.735980    0.846391    0.000000
   109  O2    s     0.851507    0.710678    0.853001    0.000000
   110  O2    s     0.645818    0.273171    0.840482    0.000000
   111  O2    s     0.157456    0.739843    0.104071    0.000000
   112  O2    s     0.343764    0.244660    0.102332    0.000000
   113  O2    s     0.635190    0.505444    0.018782    0.000000
   114  O2    s     0.855598    0.455832    0.011198    0.000000
   115  O2    s     0.357887    0.472615    0.922165    0.000000
   116  O2    s     0.138190    0.497046    0.937333    0.000000
   117  O2    s     0.737741    0.265672    0.031141    0.000000
   118  O2    s     0.753111    0.695923    0.032748    0.000000
   119  O2    s     0.245294    0.266516    0.920374    0.000000
   120  O2    s     0.250481    0.702589    0.916290    0.000000
--------------------------------------------------------------------------------

  Final Cartesian lattice vectors (Angstroms) :

       17.293285    0.145944   -0.091582
        0.063891    7.649316   -0.009245
       -0.056721   -0.011823   10.213489


  Final cell parameters and derivatives :

--------------------------------------------------------------------------------
       a           17.294143 Angstrom     dE/de1(xx)     0.007006 eV/strain
       b            7.649589 Angstrom     dE/de2(yy)     0.008591 eV/strain
       c           10.213653 Angstrom     dE/de3(zz)    -0.000991 eV/strain
       alpha       90.138218 Degrees      dE/de4(yz)     0.000462 eV/strain
       beta        90.622155 Degrees      dE/de5(xz)    -0.002844 eV/strain
       gamma       89.037564 Degrees      dE/de6(xy)    -0.000702 eV/strain
--------------------------------------------------------------------------------

  Primitive cell volume =          1350.921993 Angs**3

  Density of cell =      1.991614 g/cm**3

  Non-primitive cell volume =          1350.921993 Angs**3


  Final internal derivatives :

--------------------------------------------------------------------------------
   No.  Atomic          a             b             c           Radius
        Label          (eV)          (eV)          (eV)        (eV/Angs)
--------------------------------------------------------------------------------
      1 Ge    c       0.000000      0.000000      0.000000      0.000000
      2 Ge    c      -0.000766      0.000610      0.005720      0.000000
      3 Ge    c       0.000021      0.000270     -0.001219      0.000000
      4 Ge    c      -0.005445      0.002129      0.004313      0.000000
      5 Si    c       0.001863      0.000133      0.002500      0.000000
      6 Si    c       0.003693      0.000301      0.000188      0.000000
      7 Si    c       0.000787     -0.000119     -0.000190      0.000000
      8 Si    c      -0.002828     -0.000381     -0.000049      0.000000
      9 Si    c       0.003987      0.000279      0.001240      0.000000
     10 Si    c      -0.003479     -0.001052     -0.006715      0.000000
     11 Si    c      -0.001617      0.000058     -0.001395      0.000000
     12 Si    c       0.000054     -0.000280     -0.000585      0.000000
     13 Si    c       0.001361     -0.002256     -0.000391      0.000000
     14 Si    c       0.003998     -0.000355      0.001595      0.000000
     15 Si    c       0.003438     -0.002681     -0.003928      0.000000
     16 Si    c       0.000881      0.000191     -0.002281      0.000000
     17 Si    c       0.002492     -0.001100     -0.002975      0.000000
     18 Si    c      -0.000041     -0.001600     -0.002418      0.000000
     19 Si    c       0.000478     -0.000897      0.003522      0.000000
     20 Si    c      -0.002848      0.001995      0.002879      0.000000
     21 Si    c       0.002695      0.000503      0.002498      0.000000
     22 Si    c      -0.002782     -0.001863      0.001990      0.000000
     23 Si    c       0.000574     -0.000085      0.000037      0.000000
     24 Si    c      -0.005639      0.002415     -0.006470      0.000000
     25 O1    c       0.004857      0.003826     -0.000634      0.000000
     26 O2    c      -0.003304     -0.002667      0.000217      0.000000
     27 O3    c      -0.000422      0.000956     -0.002171      0.000000
     28 O2    c      -0.000876      0.000067     -0.000717      0.000000
     29 O2    c      -0.002519     -0.001418     -0.000467      0.000000
     30 O2    c       0.000348      0.000809     -0.000524      0.000000
     31 O3    c       0.006012      0.000116      0.004738      0.000000
     32 O2    c      -0.001533      0.001524      0.001098      0.000000
     33 O3    c      -0.002182     -0.000542      0.006048      0.000000
     34 O2    c      -0.004503     -0.000157     -0.002987      0.000000
     35 O1    c      -0.000463     -0.000093     -0.001157      0.000000
     36 O2    c       0.005434      0.000288     -0.001560      0.000000
     37 O2    c       0.001310      0.000149      0.001891      0.000000
     38 O2    c       0.003652      0.000058     -0.003825      0.000000
     39 O2    c       0.001619      0.002145      0.000061      0.000000
     40 O3    c      -0.002298     -0.005441     -0.000239      0.000000
     41 O2    c      -0.006813      0.005241     -0.002391      0.000000
     42 O2    c       0.005415     -0.003628     -0.001125      0.000000
     43 O2    c      -0.006809     -0.004827     -0.002638      0.000000
     44 O2    c       0.006987      0.004442     -0.000890      0.000000
     45 O2    c       0.001736     -0.000861      0.000571      0.000000
     46 O3    c      -0.003344     -0.000058      0.003793      0.000000
     47 O2    c       0.001637     -0.000734      0.004169      0.000000
     48 O3    c       0.009005      0.003934      0.006065      0.000000
     49 O3    c      -0.002327     -0.001755     -0.000908      0.000000
     50 O2    c       0.000381      0.001288     -0.000580      0.000000
     51 O3    c      -0.005099     -0.001078      0.003752      0.000000
     52 O2    c       0.001200      0.000339      0.001267      0.000000
     53 O3    c      -0.009258      0.000027      0.001049      0.000000
     54 O2    c       0.008254      0.000026      0.000271      0.000000
     55 O3    c       0.002914      0.002208      0.002663      0.000000
     56 O2    c      -0.001977      0.000153      0.000357      0.000000
     57 O3    c       0.000908      0.000194      0.002116      0.000000
     58 O2    c      -0.000529      0.000016      0.001110      0.000000
     59 O3    c      -0.006365      0.002751     -0.000694      0.000000
     60 O2    c      -0.000604     -0.000002      0.000484      0.000000
     61 O2    c      -0.000905     -0.000782      0.001113      0.000000
     62 O2    c       0.004385      0.001145      0.001596      0.000000
     63 O2    c      -0.001019      0.000140     -0.001576      0.000000
     64 O2    c      -0.001537      0.000328     -0.001293      0.000000
     65 O2    c       0.001508      0.000534     -0.000440      0.000000
     66 O2    c      -0.004366     -0.001802     -0.000356      0.000000
     67 O2    c       0.002072      0.001379     -0.001072      0.000000
     68 O2    c      -0.002298     -0.000847     -0.000617      0.000000
     69 O2    c       0.005713      0.000985     -0.001721      0.000000
     70 O2    c      -0.004427      0.000307     -0.000080      0.000000
     71 O2    c      -0.000332     -0.000622     -0.000505      0.000000
     72 O2    c       0.001047      0.000754     -0.001320      0.000000
     73 O1    s      -0.001746      0.000472     -0.000444      0.000000
     74 O2    s      -0.001939     -0.001422      0.000738      0.000000
     75 O3    s      -0.003645      0.001096      0.001253      0.000000
     76 O2    s       0.002545     -0.001136      0.000194      0.000000
     77 O2    s      -0.000925     -0.001188      0.000472      0.000000
     78 O2    s       0.003670      0.000963      0.001647      0.000000
     79 O3    s      -0.003507     -0.000486     -0.001326      0.000000
     80 O2    s      -0.000556      0.000840      0.000376      0.000000
     81 O3    s       0.000786     -0.000328     -0.002630      0.000000
     82 O2    s       0.001868     -0.000081      0.001238      0.000000
     83 O1    s      -0.001535      0.000111      0.001943      0.000000
     84 O2    s       0.001869      0.000225      0.000364      0.000000
     85 O2    s      -0.004249     -0.000054     -0.002354      0.000000
     86 O2    s       0.005562     -0.001020     -0.000703      0.000000
     87 O2    s       0.002649      0.001202     -0.001678      0.000000
     88 O3    s      -0.000454     -0.000752      0.000303      0.000000
     89 O2    s      -0.002125      0.002173      0.001261      0.000000
     90 O2    s       0.000912     -0.001648     -0.000678      0.000000
     91 O2    s      -0.002850     -0.002452     -0.001701      0.000000
     92 O2    s       0.001998      0.000944     -0.002057      0.000000
     93 O2    s       0.001928     -0.001091     -0.000733      0.000000
     94 O3    s      -0.005031      0.002659     -0.001291      0.000000
     95 O2    s       0.007032     -0.000573      0.001246      0.000000
     96 O3    s      -0.004480     -0.000624      0.000074      0.000000
     97 O3    s       0.003187     -0.001658     -0.000249      0.000000
     98 O2    s      -0.002312      0.001109     -0.001752      0.000000
     99 O3    s      -0.002791      0.000110      0.001496      0.000000
    100 O2    s       0.003438     -0.000911      0.002489      0.000000
    101 O3    s       0.001008      0.000777     -0.002044      0.000000
    102 O2    s       0.002124     -0.002187     -0.002533      0.000000
    103 O3    s      -0.001492      0.001468      0.002885      0.000000
    104 O2    s       0.000757     -0.002123      0.002344      0.000000
    105 O3    s       0.001617      0.001399      0.000980      0.000000
    106 O2    s      -0.003608     -0.001930      0.001570      0.000000
    107 O3    s      -0.001613      0.003078      0.001532      0.000000
    108 O2    s       0.004049     -0.001688      0.000125      0.000000
    109 O2    s      -0.001441     -0.002178     -0.001159      0.000000
    110 O2    s       0.005101      0.001171      0.000081      0.000000
    111 O2    s       0.002398     -0.000658     -0.000626      0.000000
    112 O2    s      -0.000185      0.000820      0.000398      0.000000
    113 O2    s       0.004355     -0.001012     -0.002887      0.000000
    114 O2    s      -0.004354     -0.000512     -0.003188      0.000000
    115 O2    s      -0.002061     -0.000109      0.002223      0.000000
    116 O2    s       0.002103     -0.000016      0.000112      0.000000
    117 O2    s      -0.001592      0.001849     -0.003702      0.000000
    118 O2    s       0.000025     -0.001713     -0.003055      0.000000
    119 O2    s      -0.000189      0.000708      0.001131      0.000000
    120 O2    s      -0.000133     -0.000675      0.001770      0.000000
--------------------------------------------------------------------------------
  Maximum abs         0.009258      0.005441      0.006715      0.000000
--------------------------------------------------------------------------------


  Born effective charge tensors : 

-------------------------------------------------------------------------------
  Atom             x           y             z
-------------------------------------------------------------------------------
    1 Ge    x       4.4028      0.3397     -0.4494
            y      -0.0498      3.9036      0.0248
            z      -0.2847     -0.1134      4.6100
-------------------------------------------------------------------------------
    2 Ge    x       4.3511      0.1717      0.3830
            y      -0.1112      3.9323      0.0382
            z       0.4430      0.0239      4.0163
-------------------------------------------------------------------------------
    3 Ge    x       4.0547      0.2887     -0.2030
            y       0.3889      4.1280     -0.2489
            z      -0.3111     -0.0826      3.5450
-------------------------------------------------------------------------------
    4 Ge    x       3.9983     -0.3735     -0.1352
            y      -0.2662      4.1627      0.2248
            z      -0.1545     -0.0017      3.3554
-------------------------------------------------------------------------------
    5 Si    x       3.3654      0.0648      0.2939
            y      -0.0219      3.2638      0.0363
            z       0.3095     -0.0157      3.8568
-------------------------------------------------------------------------------
    6 Si    x       3.9500     -0.0881     -0.0191
            y      -0.1728      3.4572     -0.0625
            z      -0.9307      0.0503      3.8232
-------------------------------------------------------------------------------
    7 Si    x       3.4198      0.1203      0.0692
            y      -0.0900      3.2501     -0.0132
            z       0.5475      0.0482      3.7880
-------------------------------------------------------------------------------
    8 Si    x       3.4352      0.1285     -0.3069
            y      -0.1176      3.2834     -0.0381
            z      -0.3868      0.0076      3.1397
-------------------------------------------------------------------------------
    9 Si    x       3.4815      0.0261     -0.1043
            y      -0.0089      3.2790      0.0156
            z      -0.5966     -0.0689      3.0655
-------------------------------------------------------------------------------
   10 Si    x       3.6756      0.0127     -0.1536
            y      -0.0022      3.3094     -0.0089
            z       0.5143      0.0045      3.1731
-------------------------------------------------------------------------------
   11 Si    x       3.1518      0.2385      0.0865
            y       0.2690      3.4318      0.1553
            z       0.1331      0.0788      2.8416
-------------------------------------------------------------------------------
   12 Si    x       3.1884     -0.3066      0.1100
            y      -0.1720      3.4422     -0.1425
            z       0.1123     -0.0742      2.8231
-------------------------------------------------------------------------------
   13 Si    x       3.3189      0.1836     -0.1072
            y       0.1499      3.7556     -0.1136
            z      -0.1172      0.0267      2.8153
-------------------------------------------------------------------------------
   14 Si    x       3.4933      0.1747     -0.0372
            y       0.2523      3.5521      0.1962
            z       0.0558      0.1065      2.8851
-------------------------------------------------------------------------------
   15 Si    x       3.3938     -0.3816     -0.2384
            y      -0.1371      3.9350      0.2335
            z      -0.2220      0.2076      3.0874
-------------------------------------------------------------------------------
   16 Si    x       3.4930     -0.2384     -0.0444
            y      -0.1913      3.5320     -0.1894
            z       0.0385     -0.1055      2.9220
-------------------------------------------------------------------------------
   17 Si    x       3.1822      0.2517     -0.1126
            y       0.2583      3.4236     -0.1627
            z      -0.1873     -0.0780      2.7269
-------------------------------------------------------------------------------
   18 Si    x       3.4890      0.3576      0.3079
            y       0.3664      3.4809      0.3591
            z       0.3118      0.1235      2.8767
-------------------------------------------------------------------------------
   19 Si    x       3.2189     -0.3184     -0.1248
            y      -0.1754      3.4309      0.1626
            z      -0.1385      0.0766      2.7296
-------------------------------------------------------------------------------
   20 Si    x       3.2832     -0.3113      0.1402
            y      -0.1808      3.3842     -0.1632
            z       0.1462     -0.0252      2.6557
-------------------------------------------------------------------------------
   21 Si    x       3.2432      0.2796     -0.1392
            y       0.2163      3.4280     -0.1923
            z      -0.1061     -0.0618      2.7181
-------------------------------------------------------------------------------
   22 Si    x       3.3343      0.3000      0.1064
            y       0.2388      3.5109      0.1168
            z       0.1059     -0.0299      2.9625
-------------------------------------------------------------------------------
   23 Si    x       3.1706     -0.3338     -0.1414
            y      -0.1200      3.4411      0.1707
            z      -0.1205      0.0825      2.7392
-------------------------------------------------------------------------------
   24 Si    x       3.4066     -0.4555      0.2314
            y      -0.2303      3.6483     -0.3199
            z       0.1967     -0.1191      3.1872
-------------------------------------------------------------------------------
   25 O1    x      -2.1476     -0.9311      0.5622
            y      -0.9486     -2.5748      0.5135
            z       0.6014      0.4951     -1.7205
-------------------------------------------------------------------------------
   26 O2    x      -1.6769     -0.7371     -0.3566
            y      -0.7191     -2.0170     -0.3752
            z      -0.3649     -0.3595     -1.3569
-------------------------------------------------------------------------------
   27 O3    x      -2.1134      0.9415      0.2105
            y       0.9927     -2.3577     -0.2347
            z       0.3440     -0.2087     -1.5062
-------------------------------------------------------------------------------
   28 O2    x      -1.7367      0.7309     -0.2729
            y       0.7539     -1.9636      0.3148
            z      -0.3520      0.3195     -1.3390
-------------------------------------------------------------------------------
   29 O2    x      -1.7604     -0.7016      0.2375
            y      -0.7020     -1.9135      0.2565
            z       0.3454      0.2266     -1.3228
-------------------------------------------------------------------------------
   30 O2    x      -1.6393     -0.7200     -0.2614
            y      -0.6832     -2.0466     -0.2804
            z      -0.3422     -0.2945     -1.3318
-------------------------------------------------------------------------------
   31 O3    x      -2.1066      0.9100      0.5865
            y       0.9354     -2.2638     -0.6139
            z       0.5880     -0.5965     -1.6735
-------------------------------------------------------------------------------
   32 O2    x      -1.6863      0.7166     -0.3250
            y       0.7276     -1.9902      0.3372
            z      -0.3408      0.3384     -1.3538
-------------------------------------------------------------------------------
   33 O3    x      -2.1061     -0.0955      1.0252
            y      -0.0043     -1.1955      0.0608
            z       1.3108      0.1440     -3.0982
-------------------------------------------------------------------------------
   34 O2    x      -1.5817     -0.0618     -0.8045
            y      -0.0052     -1.0916     -0.0317
            z      -1.0028     -0.0705     -2.7970
-------------------------------------------------------------------------------
   35 O1    x      -2.2555     -0.1516     -0.9100
            y      -0.0430     -1.2878     -0.0903
            z      -0.9787     -0.1276     -2.9396
-------------------------------------------------------------------------------
   36 O2    x      -1.6853     -0.0624      0.6873
            y      -0.0043     -1.1090      0.0294
            z       0.6708      0.0399     -2.2302
-------------------------------------------------------------------------------
   37 O2    x      -1.8167     -0.0581     -0.6845
            y      -0.0206     -1.1621     -0.0585
            z      -0.6487     -0.0932     -2.0703
-------------------------------------------------------------------------------
   38 O2    x      -1.7562     -0.0744      0.7555
            y      -0.0224     -1.1197      0.0529
            z       0.7803      0.0866     -2.2187
-------------------------------------------------------------------------------
   39 O2    x      -1.6501     -0.7077      0.3723
            y      -0.6202     -2.0426      0.4010
            z       0.3686      0.3693     -1.2372
-------------------------------------------------------------------------------
   40 O3    x      -2.0359     -0.9264     -0.6080
            y      -0.8166     -2.3330     -0.5987
            z      -0.5543     -0.5333     -1.5602
-------------------------------------------------------------------------------
   41 O2    x      -1.6977      0.7257      0.2975
            y       0.6880     -1.9925     -0.3524
            z       0.3537     -0.3267     -1.2316
-------------------------------------------------------------------------------
   42 O2    x      -1.7469      0.7323     -0.2755
            y       0.6735     -1.9600      0.2902
            z      -0.3391      0.2726     -1.2062
-------------------------------------------------------------------------------
   43 O2    x      -1.6804     -0.7221      0.2824
            y      -0.6666     -1.9863      0.3053
            z       0.3335      0.3033     -1.2512
-------------------------------------------------------------------------------
   44 O2    x      -1.7362     -0.7343     -0.2597
            y      -0.6667     -1.9991     -0.2697
            z      -0.3268     -0.2550     -1.1936
-------------------------------------------------------------------------------
   45 O2    x      -1.7098      0.7190      0.3550
            y       0.6766     -1.9586     -0.3729
            z       0.3420     -0.3649     -1.2567
-------------------------------------------------------------------------------
   46 O3    x      -2.0410      0.9173     -0.5605
            y       0.8661     -2.2987      0.6185
            z      -0.5023      0.5492     -1.5692
-------------------------------------------------------------------------------
   47 O2    x      -1.8252     -0.0798     -0.6047
            y      -0.0314     -1.1697     -0.0408
            z      -0.3422     -0.0310     -1.7003
-------------------------------------------------------------------------------
   48 O3    x      -2.2163     -0.1058      0.8612
            y      -0.0484     -1.2938      0.0622
            z       0.4917      0.0591     -2.1259
-------------------------------------------------------------------------------
   49 O3    x      -1.3569     -0.1473      0.0949
            y      -0.2001     -3.0740      0.1151
            z       0.1198      0.1204     -1.2374
-------------------------------------------------------------------------------
   50 O2    x      -1.1472     -0.0100     -0.0513
            y      -0.0512     -2.5695      0.0436
            z      -0.0709      0.0297     -1.0831
-------------------------------------------------------------------------------
   51 O3    x      -1.3349      0.0243      0.0776
            y      -0.0310     -3.2165     -0.0810
            z       0.0905     -0.1035     -1.1743
-------------------------------------------------------------------------------
   52 O2    x      -1.1532     -0.0802     -0.0606
            y      -0.1343     -2.5576     -0.0255
            z      -0.0793     -0.0169     -1.0923
-------------------------------------------------------------------------------
   53 O3    x      -2.9672      0.0493      0.1583
            y       0.0352     -1.3781      0.0905
            z       0.1479      0.0606     -1.2640
-------------------------------------------------------------------------------
   54 O2    x      -2.3647      0.0907      0.0287
            y       0.0602     -1.2409     -0.0641
            z       0.0510     -0.0518     -1.1038
-------------------------------------------------------------------------------
   55 O3    x      -2.9728      0.1773      0.0494
            y       0.1282     -1.3972     -0.1030
            z       0.0637     -0.0670     -1.2402
-------------------------------------------------------------------------------
   56 O2    x      -2.4368      0.0496     -0.0254
            y       0.0150     -1.2305      0.0651
            z      -0.0063      0.0347     -1.0874
-------------------------------------------------------------------------------
   57 O3    x      -1.3320     -0.1454     -0.0410
            y      -0.1273     -1.4485      0.0487
            z      -0.0221      0.0115     -2.5914
-------------------------------------------------------------------------------
   58 O2    x      -1.1788     -0.1246     -0.0210
            y      -0.1115     -1.2713     -0.0229
            z      -0.0312     -0.0072     -2.0772
-------------------------------------------------------------------------------
   59 O3    x      -1.3431      0.1597      0.1022
            y       0.1080     -1.4923     -0.1374
            z       0.0712     -0.0575     -2.5007
-------------------------------------------------------------------------------
   60 O2    x      -1.1697      0.1282      0.0324
            y       0.0853     -1.2741      0.0301
            z       0.0187      0.0112     -2.0815
-------------------------------------------------------------------------------
   61 O2    x      -1.2272     -0.1318      0.0200
            y      -0.1145     -1.2907      0.0715
            z      -0.0035      0.0783     -2.0051
-------------------------------------------------------------------------------
   62 O2    x      -1.1632     -0.1076      0.0006
            y      -0.1066     -1.2824     -0.0034
            z       0.0143     -0.0037     -2.0973
-------------------------------------------------------------------------------
   63 O2    x      -1.2257      0.1296     -0.0773
            y       0.0869     -1.2760     -0.0444
            z      -0.1019     -0.0467     -2.0517
-------------------------------------------------------------------------------
   64 O2    x      -1.1720      0.1169     -0.0595
            y       0.0851     -1.2922     -0.0146
            z      -0.0381     -0.0180     -2.0973
-------------------------------------------------------------------------------
   65 O2    x      -1.2167     -0.0653      0.0764
            y      -0.1134     -2.4981     -0.0243
            z       0.1036     -0.0012     -1.0240
-------------------------------------------------------------------------------
   66 O2    x      -1.2739     -0.0569     -0.0625
            y      -0.1082     -2.4521      0.0293
            z      -0.0860      0.0245     -1.0222
-------------------------------------------------------------------------------
   67 O2    x      -1.2086     -0.0208      0.0795
            y      -0.0473     -2.5084      0.0371
            z       0.0935      0.0051     -1.0263
-------------------------------------------------------------------------------
   68 O2    x      -1.2536     -0.0323     -0.0707
            y      -0.0474     -2.5194     -0.0131
            z      -0.0918     -0.0110     -0.9942
-------------------------------------------------------------------------------
   69 O2    x      -2.3538      0.1008     -0.0255
            y       0.0616     -1.2547      0.0718
            z      -0.0431      0.0444     -1.0604
-------------------------------------------------------------------------------
   70 O2    x      -2.3857      0.1275      0.0003
            y       0.0756     -1.2423     -0.0697
            z      -0.0086     -0.0327     -1.0617
-------------------------------------------------------------------------------
   71 O2    x      -2.4224      0.0530      0.0028
            y       0.0173     -1.2468     -0.0634
            z      -0.0129     -0.0341     -1.0372
-------------------------------------------------------------------------------
   72 O2    x      -2.4336      0.0603      0.0497
            y       0.0304     -1.2255      0.0621
            z       0.0275      0.0280     -1.0417
-------------------------------------------------------------------------------




  Elastic Constant Matrix: (Units=GPa)

-------------------------------------------------------------------------------
  Indices      1         2         3         4         5         6    
-------------------------------------------------------------------------------
       1     57.3358   36.6303   18.3910   -0.9323   -0.7664   18.2079
       2     36.6303   87.1216   17.1970   -1.8965    0.0034   20.2983
       3     18.3910   17.1970   22.6703   -1.3623    3.1046    5.5545
       4     -0.9323   -1.8965   -1.3623   10.4526    3.3534    0.4975
       5     -0.7664    0.0034    3.1046    3.3534   21.4307   -1.2692
       6     18.2079   20.2983    5.5545    0.4975   -1.2692   25.9016
-------------------------------------------------------------------------------


  Elastic Compliance Matrix: (Units=1/GPa)

-------------------------------------------------------------------------------
  Indices      1         2         3         4         5         6    
-------------------------------------------------------------------------------
       1    0.031624 -0.006793 -0.017835 -0.001125  0.003127 -0.012908
       2   -0.006793  0.017250 -0.005542  0.002242 -0.000244 -0.007610
       3   -0.017835 -0.005542  0.064306  0.009287 -0.011266  0.002360
       4   -0.001125  0.002242  0.009287  0.103200 -0.017879 -0.005816
       5    0.003127 -0.000244 -0.011266 -0.017879  0.051397  0.003271
       6   -0.012908 -0.007610  0.002360 -0.005816  0.003271  0.053411
-------------------------------------------------------------------------------

  Mechanical properties :

-------------------------------------------------------------------------------
  Convention :                    Reuss         Voigt         Hill
-------------------------------------------------------------------------------
  Bulk  Modulus (GPa)     =      18.92515      34.61827      26.77171
  Shear Modulus (GPa)     =      12.52688      17.88426      15.20557
-------------------------------------------------------------------------------
  Velocity S-wave (km/s)  =       2.50795       2.99663       2.76311
  Velocity P-wave (km/s)  =       4.22952       5.41803       4.86024
-------------------------------------------------------------------------------
  Compressibility (1/GPa) =    0.05283974
-------------------------------------------------------------------------------
  Stress axis :                     x             y             z
-------------------------------------------------------------------------------
  Youngs Moduli (GPa)     =      31.62106      57.97056      15.55075
-------------------------------------------------------------------------------
  Poissons Ratio (x)      =                     0.39381       0.27735
  Poissons Ratio (y)      =       0.21481                     0.08618
  Poissons Ratio (z)      =       0.56397       0.32126
-------------------------------------------------------------------------------


  Piezoelectric Strain Matrix: (Units=C/m**2)

-------------------------------------------------------------------------------
  Indices      1         2         3         4         5         6    
-------------------------------------------------------------------------------
       x     0.05747   0.38597  -0.00673   0.31463  -0.61002  -0.32193
       y     0.20875   0.97001   0.06210  -0.31473   0.30377  -0.01020
       z    -0.61065  -0.83514   1.11805  -0.34903  -0.00749   0.25437
-------------------------------------------------------------------------------


  Piezoelectric Stress Matrix: (Units=10**-11 C/N)

-------------------------------------------------------------------------------
  Indices      1         2         3         4         5         6    
-------------------------------------------------------------------------------
       x     0.12091   0.96092   0.54382   4.59871  -3.78705  -2.47145
       y     0.03402   1.42683  -1.14745  -3.53348   2.09229  -0.76499
       z    -3.64927  -1.91704   8.48596  -2.81678  -0.76145   3.24672
-------------------------------------------------------------------------------


  Static dielectric constant tensor : 

-------------------------------------------------------------------------------
              x         y         z
-------------------------------------------------------------------------------
       x     4.00793   0.03766  -0.05270
       y     0.03766   4.21117  -0.01439
       z    -0.05270  -0.01439   3.37778
--------------------------------------------------------------------------------

  High frequency dielectric constant tensor : 

-------------------------------------------------------------------------------
              x         y         z
-------------------------------------------------------------------------------
       x     1.66606   0.00185  -0.00084
       y     0.00185   1.67475   0.00011
       z    -0.00084   0.00011   1.60661
-------------------------------------------------------------------------------

  Static refractive indices : 

-------------------------------------------------------------------------------
    1 =    1.83664      2 =    2.00126      3 =    2.05392
-------------------------------------------------------------------------------

  High frequency refractive indices : 

-------------------------------------------------------------------------------
    1 =    1.26752      2 =    1.29062      3 =    1.29427
-------------------------------------------------------------------------------


  Time to end of optimisation =       7.0739 seconds


  Peak dynamic memory used =       5.01 MB 


  Timing analysis for GULP :

--------------------------------------------------------------------------------
  Task / Subroutine                                          Time (Seconds)
--------------------------------------------------------------------------------
  Calculation of reciprocal space energy and derivatives          0.4411
  Calculation of real space energy and derivatives                4.6586
  Calculation of three-body energy and derivatives                0.4099
  Calculation and manipulation of Hessian matrix                  1.7227
  Calculation of matrix inversion                                 0.0306
--------------------------------------------------------------------------------
  Total CPU time                                                  7.0739
--------------------------------------------------------------------------------


  Dump file written as c00291.vasp.grs
  CIF file written as c00291.vasp.cif


  Job Finished at 12:40.29 31st October    2025                               

