********************************************************************************
*                       GENERAL UTILITY LATTICE PROGRAM                        *
*                                 Julian Gale                                  *
*                       Curtin Institute for Computation                       *
*                    School of Molecular and Life Sciences                     *
*                    Curtin University, Western Australia                      *
********************************************************************************
* Version = 6.1.2 * Last modified =   3rd November 2022                        *
********************************************************************************
*  optimise     - perform optimisation run                                     *
*  conp         - constant pressure calculation                                *
*  property     - calculate properties for final geometry                      *
********************************************************************************

  Job Started  at 12:28.29 31st October    2025                               

  Number of CPUs =     1


  Total number of configurations input =      1

********************************************************************************
*  Input for Configuration =   1 : c00231.vasp                                 *
********************************************************************************

  Formula = Ge4Si20O48                                                  

  Number of irreducible atoms/shells =     120


  Total number atoms/shells =     120

  Dimensionality = 3               :  Bulk   



  Cartesian lattice vectors (Angstroms) :

       17.182800    0.000000    0.000000
        0.000000    7.513760    0.000000
        0.000000    0.000000   10.447700

  Cell parameters (Angstroms/Degrees):

  a =      17.1828    alpha =  90.0000
  b =       7.5138    beta  =  90.0000
  c =      10.4477    gamma =  90.0000

  Initial cell volume =        1348.875752 Angs**3

  Temperature of configuration =   0.00     K 

  Pressure of configuration =         0.000 GPa 

  Fractional coordinates of asymmetric unit :

--------------------------------------------------------------------------------
   No.  Atomic       x           y          z         Charge      Occupancy
        Label      (Frac)      (Frac)     (Frac)        (e)         (Frac)  
--------------------------------------------------------------------------------
      1 Ge    c    0.052090    0.000000    0.372270     4.00000    1.000000    
      2 Ge    c    0.556730 *  0.000000 *  0.122130 *   4.00000    1.000000    
      3 Ge    c    0.339810 *  0.706090 *  0.273440 *   4.00000    1.000000    
      4 Ge    c    0.339340 *  0.294090 *  0.982560 *   4.00000    1.000000    
      5 Si    c    0.447910 *  0.000000 *  0.372270 *   4.00000    1.000000    
      6 Si    c    0.947910 *  0.000000 *  0.627730 *   4.00000    1.000000    
      7 Si    c    0.552090 *  0.000000 *  0.627730 *   4.00000    1.000000    
      8 Si    c    0.943270 *  0.000000 *  0.122130 *   4.00000    1.000000    
      9 Si    c    0.443270 *  0.000000 *  0.877870 *   4.00000    1.000000    
     10 Si    c    0.056730 *  0.000000 *  0.877870 *   4.00000    1.000000    
     11 Si    c    0.160190 *  0.293910 *  0.273440 *   4.00000    1.000000    
     12 Si    c    0.839810 *  0.293910 *  0.726560 *   4.00000    1.000000    
     13 Si    c    0.660190 *  0.706090 *  0.726560 *   4.00000    1.000000    
     14 Si    c    0.839810 *  0.706090 *  0.726560 *   4.00000    1.000000    
     15 Si    c    0.660190 *  0.293910 *  0.726560 *   4.00000    1.000000    
     16 Si    c    0.160190 *  0.706090 *  0.273440 *   4.00000    1.000000    
     17 Si    c    0.339810 *  0.293910 *  0.273440 *   4.00000    1.000000    
     18 Si    c    0.660660 *  0.294090 *  0.017440 *   4.00000    1.000000    
     19 Si    c    0.839340 *  0.705910 *  0.017440 *   4.00000    1.000000    
     20 Si    c    0.160660 *  0.705910 *  0.982560 *   4.00000    1.000000    
     21 Si    c    0.339340 *  0.705910 *  0.982560 *   4.00000    1.000000    
     22 Si    c    0.160660 *  0.294090 *  0.982560 *   4.00000    1.000000    
     23 Si    c    0.660660 *  0.705910 *  0.017440 *   4.00000    1.000000    
     24 Si    c    0.839340 *  0.294090 *  0.017440 *   4.00000    1.000000    
     25 O3    c    0.106570 *  0.174340 *  0.366200 *   1.33043    1.000000    
     26 O3    c    0.393430 *  0.825660 *  0.366200 *   1.33043    1.000000    
     27 O2    c    0.893430 *  0.174340 *  0.633800 *   0.87073    1.000000    
     28 O2    c    0.606570 *  0.825660 *  0.633800 *   0.87073    1.000000    
     29 O2    c    0.893430 *  0.825660 *  0.633800 *   0.87073    1.000000    
     30 O2    c    0.606570 *  0.174340 *  0.633800 *   0.87073    1.000000    
     31 O3    c    0.106570 *  0.825660 *  0.366200 *   1.33043    1.000000    
     32 O2    c    0.393430 *  0.174340 *  0.366200 *   0.87073    1.000000    
     33 O3    c    0.000000 *  0.000000 *  0.500000 *   1.33043    1.000000    
     34 O2    c    0.500000 *  0.000000 *  0.500000 *   0.87073    1.000000    
     35 O3    c    0.994520 *  0.000000 *  0.250840 *   1.33043    1.000000    
     36 O3    c    0.505480 *  0.000000 *  0.250840 *   1.33043    1.000000    
     37 O2    c    0.005480 *  0.000000 *  0.749160 *   0.87073    1.000000    
     38 O2    c    0.494520 *  0.000000 *  0.749160 *   0.87073    1.000000    
     39 O3    c    0.610230 *  0.175520 *  0.115390 *   1.33043    1.000000    
     40 O2    c    0.889770 *  0.824480 *  0.115390 *   0.87073    1.000000    
     41 O3    c    0.389770 *  0.175520 *  0.884610 *   1.33043    1.000000    
     42 O2    c    0.110230 *  0.824480 *  0.884610 *   0.87073    1.000000    
     43 O2    c    0.389770 *  0.824480 *  0.884610 *   0.87073    1.000000    
     44 O2    c    0.110230 *  0.175520 *  0.884610 *   0.87073    1.000000    
     45 O3    c    0.610230 *  0.824480 *  0.115390 *   1.33043    1.000000    
     46 O2    c    0.889770 *  0.175520 *  0.115390 *   0.87073    1.000000    
     47 O3    c    0.500000 *  0.000000 *  0.000000 *   1.33043    1.000000    
     48 O2    c    0.000000 *  0.000000 *  0.000000 *   0.87073    1.000000    
     49 O2    c    0.151750 *  0.500000 *  0.313330 *   0.87073    1.000000    
     50 O3    c    0.348250 *  0.500000 *  0.313330 *   1.33043    1.000000    
     51 O2    c    0.848250 *  0.500000 *  0.686670 *   0.87073    1.000000    
     52 O2    c    0.651750 *  0.500000 *  0.686670 *   0.87073    1.000000    
     53 O2    c    0.250000 *  0.234950 *  0.285720 *   0.87073    1.000000    
     54 O3    c    0.250000 *  0.765050 *  0.285720 *   1.33043    1.000000    
     55 O2    c    0.750000 *  0.234950 *  0.714280 *   0.87073    1.000000    
     56 O2    c    0.750000 *  0.765050 *  0.714280 *   0.87073    1.000000    
     57 O2    c    0.131410 *  0.268650 *  0.127790 *   0.87073    1.000000    
     58 O3    c    0.368590 *  0.731350 *  0.127790 *   1.33043    1.000000    
     59 O2    c    0.868590 *  0.268650 *  0.872210 *   0.87073    1.000000    
     60 O2    c    0.631410 *  0.731350 *  0.872210 *   0.87073    1.000000    
     61 O2    c    0.868590 *  0.731350 *  0.872210 *   0.87073    1.000000    
     62 O2    c    0.631410 *  0.268650 *  0.872210 *   0.87073    1.000000    
     63 O2    c    0.131410 *  0.731350 *  0.127790 *   0.87073    1.000000    
     64 O3    c    0.368590 *  0.268650 *  0.127790 *   1.33043    1.000000    
     65 O2    c    0.653920 *  0.500000 *  0.058200 *   0.87073    1.000000    
     66 O2    c    0.846080 *  0.500000 *  0.058200 *   0.87073    1.000000    
     67 O3    c    0.346080 *  0.500000 *  0.941800 *   1.33043    1.000000    
     68 O2    c    0.153920 *  0.500000 *  0.941800 *   0.87073    1.000000    
     69 O2    c    0.750000 *  0.231060 *  0.027050 *   0.87073    1.000000    
     70 O2    c    0.750000 *  0.768940 *  0.027050 *   0.87073    1.000000    
     71 O3    c    0.250000 *  0.231060 *  0.972950 *   1.33043    1.000000    
     72 O2    c    0.250000 *  0.768940 *  0.972950 *   0.87073    1.000000    
     73 O3    s    0.106570 *  0.174340 *  0.366200 *  -3.33043    1.000000    
     74 O3    s    0.393430 *  0.825660 *  0.366200 *  -3.33043    1.000000    
     75 O2    s    0.893430 *  0.174340 *  0.633800 *  -2.87073    1.000000    
     76 O2    s    0.606570 *  0.825660 *  0.633800 *  -2.87073    1.000000    
     77 O2    s    0.893430 *  0.825660 *  0.633800 *  -2.87073    1.000000    
     78 O2    s    0.606570 *  0.174340 *  0.633800 *  -2.87073    1.000000    
     79 O3    s    0.106570 *  0.825660 *  0.366200 *  -3.33043    1.000000    
     80 O2    s    0.393430 *  0.174340 *  0.366200 *  -2.87073    1.000000    
     81 O3    s    0.000000 *  0.000000 *  0.500000 *  -3.33043    1.000000    
     82 O2    s    0.500000 *  0.000000 *  0.500000 *  -2.87073    1.000000    
     83 O3    s    0.994520 *  0.000000 *  0.250840 *  -3.33043    1.000000    
     84 O3    s    0.505480 *  0.000000 *  0.250840 *  -3.33043    1.000000    
     85 O2    s    0.005480 *  0.000000 *  0.749160 *  -2.87073    1.000000    
     86 O2    s    0.494520 *  0.000000 *  0.749160 *  -2.87073    1.000000    
     87 O3    s    0.610230 *  0.175520 *  0.115390 *  -3.33043    1.000000    
     88 O2    s    0.889770 *  0.824480 *  0.115390 *  -2.87073    1.000000    
     89 O3    s    0.389770 *  0.175520 *  0.884610 *  -3.33043    1.000000    
     90 O2    s    0.110230 *  0.824480 *  0.884610 *  -2.87073    1.000000    
     91 O2    s    0.389770 *  0.824480 *  0.884610 *  -2.87073    1.000000    
     92 O2    s    0.110230 *  0.175520 *  0.884610 *  -2.87073    1.000000    
     93 O3    s    0.610230 *  0.824480 *  0.115390 *  -3.33043    1.000000    
     94 O2    s    0.889770 *  0.175520 *  0.115390 *  -2.87073    1.000000    
     95 O3    s    0.500000 *  0.000000 *  0.000000 *  -3.33043    1.000000    
     96 O2    s    0.000000 *  0.000000 *  0.000000 *  -2.87073    1.000000    
     97 O2    s    0.151750 *  0.500000 *  0.313330 *  -2.87073    1.000000    
     98 O3    s    0.348250 *  0.500000 *  0.313330 *  -3.33043    1.000000    
     99 O2    s    0.848250 *  0.500000 *  0.686670 *  -2.87073    1.000000    
    100 O2    s    0.651750 *  0.500000 *  0.686670 *  -2.87073    1.000000    
    101 O2    s    0.250000 *  0.234950 *  0.285720 *  -2.87073    1.000000    
    102 O3    s    0.250000 *  0.765050 *  0.285720 *  -3.33043    1.000000    
    103 O2    s    0.750000 *  0.234950 *  0.714280 *  -2.87073    1.000000    
    104 O2    s    0.750000 *  0.765050 *  0.714280 *  -2.87073    1.000000    
    105 O2    s    0.131410 *  0.268650 *  0.127790 *  -2.87073    1.000000    
    106 O3    s    0.368590 *  0.731350 *  0.127790 *  -3.33043    1.000000    
    107 O2    s    0.868590 *  0.268650 *  0.872210 *  -2.87073    1.000000    
    108 O2    s    0.631410 *  0.731350 *  0.872210 *  -2.87073    1.000000    
    109 O2    s    0.868590 *  0.731350 *  0.872210 *  -2.87073    1.000000    
    110 O2    s    0.631410 *  0.268650 *  0.872210 *  -2.87073    1.000000    
    111 O2    s    0.131410 *  0.731350 *  0.127790 *  -2.87073    1.000000    
    112 O3    s    0.368590 *  0.268650 *  0.127790 *  -3.33043    1.000000    
    113 O2    s    0.653920 *  0.500000 *  0.058200 *  -2.87073    1.000000    
    114 O2    s    0.846080 *  0.500000 *  0.058200 *  -2.87073    1.000000    
    115 O3    s    0.346080 *  0.500000 *  0.941800 *  -3.33043    1.000000    
    116 O2    s    0.153920 *  0.500000 *  0.941800 *  -2.87073    1.000000    
    117 O2    s    0.750000 *  0.231060 *  0.027050 *  -2.87073    1.000000    
    118 O2    s    0.750000 *  0.768940 *  0.027050 *  -2.87073    1.000000    
    119 O3    s    0.250000 *  0.231060 *  0.972950 *  -3.33043    1.000000    
    120 O2    s    0.250000 *  0.768940 *  0.972950 *  -2.87073    1.000000    
--------------------------------------------------------------------------------



********************************************************************************
*  General input information                                                   *
********************************************************************************

  Species output for all configurations : 

--------------------------------------------------------------------------------
  Species    Type    Atomic    Atomic    Charge       Radii (Angs)     Library
                     Number     Mass       (e)     Cova   Ionic  VDW   Symbol
--------------------------------------------------------------------------------
    Ge       Core       32      72.61   4.000000   1.170  0.000  1.750 Ge       
    Si       Core       14      28.09   4.000000   1.200  0.000  2.100 Si       
    O1       Core        8      16.00   1.733957   0.730  0.000  0.000 O1       
    O2       Core        8      16.00   0.870733   0.730  0.000  1.360 O2       
    O3       Core        8      16.00   1.330431   0.730  0.000  1.360 O3       
    O1       Shell       8       0.00  -3.733957   0.730  0.000  0.000 O1       
    O2       Shell       8       0.00  -2.870733   0.730  0.000  0.000 O2       
    O3       Shell       8       0.00  -3.330431   0.730  0.000  0.000 O3       
--------------------------------------------------------------------------------


  Lattice summation method               =    Ewald          (3-D)
                                         =    Parry          (2-D)
                                         =    Saunders et al (1-D)
  Accuracy factor for lattice sums       =   12.000


  Analytic derivatives to be used

  Time limit = Infinity

  Maximum range for interatomic potentials =    100000.000000 Angstroms

  General interatomic potentials :

--------------------------------------------------------------------------------
Atom  Types   Potential      Parameter       Value         Units   Cutoffs(Ang)
  1     2                                                            Min /  Max 
--------------------------------------------------------------------------------
Si   c O1   s Buckingham    Buckingham A     1315.2478    eV        0.000 16.000
                            Buckingham rho  0.31775900    Ang       
                            Buckingham C     10.141118    eV*Ang^6  
--------------------------------------------------------------------------------
Si   c O2   s Buckingham    Buckingham A     1315.2478    eV        0.000 16.000
                            Buckingham rho  0.31775900    Ang       
                            Buckingham C     10.141118    eV*Ang^6  
--------------------------------------------------------------------------------
Si   c O3   s Buckingham    Buckingham A     1315.2478    eV        0.000 16.000
                            Buckingham rho  0.31775900    Ang       
                            Buckingham C     10.141118    eV*Ang^6  
--------------------------------------------------------------------------------
Ge   c O1   s Buckingham    Buckingham A     1497.3996    eV        0.000 16.000
                            Buckingham rho  0.32564600    Ang       
                            Buckingham C     16.808599    eV*Ang^6  
--------------------------------------------------------------------------------
Ge   c O2   s Buckingham    Buckingham A     1497.3996    eV        0.000 16.000
                            Buckingham rho  0.32564600    Ang       
                            Buckingham C     16.808599    eV*Ang^6  
--------------------------------------------------------------------------------
Ge   c O3   s Buckingham    Buckingham A     1497.3996    eV        0.000 16.000
                            Buckingham rho  0.32564600    Ang       
                            Buckingham C     16.808599    eV*Ang^6  
--------------------------------------------------------------------------------
O1   s O1   s Buckingham    Buckingham A     22764.000    eV        0.000 16.000
                            Buckingham rho  0.14900000    Ang       
                            Buckingham C     10.937044    eV*Ang^6  
--------------------------------------------------------------------------------
O1   s O2   s Buckingham    Buckingham A     22764.000    eV        0.000 16.000
                            Buckingham rho  0.14900000    Ang       
                            Buckingham C     10.937044    eV*Ang^6  
--------------------------------------------------------------------------------
O1   s O3   s Buckingham    Buckingham A     22764.000    eV        0.000 16.000
                            Buckingham rho  0.14900000    Ang       
                            Buckingham C     10.937044    eV*Ang^6  
--------------------------------------------------------------------------------
O2   s O2   s Buckingham    Buckingham A     22764.000    eV        0.000 16.000
                            Buckingham rho  0.14900000    Ang       
                            Buckingham C     10.937044    eV*Ang^6  
--------------------------------------------------------------------------------
O2   s O3   s Buckingham    Buckingham A     22764.000    eV        0.000 16.000
                            Buckingham rho  0.14900000    Ang       
                            Buckingham C     10.937044    eV*Ang^6  
--------------------------------------------------------------------------------
O3   s O3   s Buckingham    Buckingham A     22764.000    eV        0.000 16.000
                            Buckingham rho  0.14900000    Ang       
                            Buckingham C     10.937044    eV*Ang^6  
--------------------------------------------------------------------------------
O1   c O1   s Spring (c-s)  Spring k 2       180.31577    eV*Ang^-2 0.000  0.800
                            Spring k 4       0.0000000    eV*Ang^-4 
--------------------------------------------------------------------------------
O2   c O2   s Spring (c-s)  Spring k 2       75.969800    eV*Ang^-2 0.000  0.800
                            Spring k 4       0.0000000    eV*Ang^-4 
--------------------------------------------------------------------------------
O3   c O3   s Spring (c-s)  Spring k 2       128.14270    eV*Ang^-2 0.000  0.800
                            Spring k 4       0.0000000    eV*Ang^-4 
--------------------------------------------------------------------------------

  General Three-body potentials :

--------------------------------------------------------------------------------
  Atoms       Potential      Parameter       Value         Units   Cutoffs(Ang)
  1 / 2 / 3                                                          Min /  Max 
--------------------------------------------------------------------------------
Si    core    Harmonic      Three-body cnst  1.2614000    eV*rad^-2 0.000  1.900
O1    shel                  Three-body angl  109.47000    degrees   0.000  1.900
O1    shel                  Three-body k4    0.0000000    eV*rad^-4 0.000  3.500
                            Three-body k3    0.0000000    eV*rad^-3 
--------------------------------------------------------------------------------
Si    core    Harmonic      Three-body cnst  1.2614000    eV*rad^-2 0.000  1.900
O1    shel                  Three-body angl  109.47000    degrees   0.000  1.900
õ(1   shel                  Three-body k4    0.0000000    eV*rad^-4 0.000  3.500
                            Three-body k3    0.0000000    eV*rad^-3 
--------------------------------------------------------------------------------
Si    core    Harmonic      Three-body cnst  1.2614000    eV*rad^-2 0.000  1.900
õ(1   shel                  Three-body angl  109.47000    degrees   0.000  1.900
õ(1   shel                  Three-body k4    0.0000000    eV*rad^-4 0.000  3.500
                            Three-body k3    0.0000000    eV*rad^-3 
--------------------------------------------------------------------------------
Si    core    Harmonic      Three-body cnst  1.2614000    eV*rad^-2 0.000  1.900
O1    shel                  Three-body angl  109.47000    degrees   0.000  1.900
O2    shel                  Three-body k4    0.0000000    eV*rad^-4 0.000  3.500
                            Three-body k3    0.0000000    eV*rad^-3 
--------------------------------------------------------------------------------
Si    core    Harmonic      Three-body cnst  1.2614000    eV*rad^-2 0.000  1.900
O1    shel                  Three-body angl  109.47000    degrees   0.000  1.900
õ(2   shel                  Three-body k4    0.0000000    eV*rad^-4 0.000  3.500
                            Three-body k3    0.0000000    eV*rad^-3 
--------------------------------------------------------------------------------
Si    core    Harmonic      Three-body cnst  1.2614000    eV*rad^-2 0.000  1.900
O2    shel                  Three-body angl  109.47000    degrees   0.000  1.900
õ(1   shel                  Three-body k4    0.0000000    eV*rad^-4 0.000  3.500
                            Three-body k3    0.0000000    eV*rad^-3 
--------------------------------------------------------------------------------
Si    core    Harmonic      Three-body cnst  1.2614000    eV*rad^-2 0.000  1.900
õ(1   shel                  Three-body angl  109.47000    degrees   0.000  1.900
õ(2   shel                  Three-body k4    0.0000000    eV*rad^-4 0.000  3.500
                            Three-body k3    0.0000000    eV*rad^-3 
--------------------------------------------------------------------------------
Si    core    Harmonic      Three-body cnst  1.2614000    eV*rad^-2 0.000  1.900
O2    shel                  Three-body angl  109.47000    degrees   0.000  1.900
O2    shel                  Three-body k4    0.0000000    eV*rad^-4 0.000  3.500
                            Three-body k3    0.0000000    eV*rad^-3 
--------------------------------------------------------------------------------
Si    core    Harmonic      Three-body cnst  1.2614000    eV*rad^-2 0.000  1.900
O2    shel                  Three-body angl  109.47000    degrees   0.000  1.900
õ(2   shel                  Three-body k4    0.0000000    eV*rad^-4 0.000  3.500
                            Three-body k3    0.0000000    eV*rad^-3 
--------------------------------------------------------------------------------
Si    core    Harmonic      Three-body cnst  1.2614000    eV*rad^-2 0.000  1.900
õ(2   shel                  Three-body angl  109.47000    degrees   0.000  1.900
õ(2   shel                  Three-body k4    0.0000000    eV*rad^-4 0.000  3.500
                            Three-body k3    0.0000000    eV*rad^-3 
--------------------------------------------------------------------------------

********************************************************************************
*  Output for configuration   1 : c00231.vasp                                  *
********************************************************************************


  Components of energy : 

--------------------------------------------------------------------------------
  Interatomic potentials     =         768.36055999 eV    
  Three-body potentials      =           0.01000770 eV    
  Monopole - monopole (real) =       -2676.00317478 eV    
  Monopole - monopole (recip)=       -1115.35404472 eV    
  Monopole - monopole (total)=       -3791.35721950 eV    
--------------------------------------------------------------------------------
  Total lattice energy       =       -3022.98665182 eV    
--------------------------------------------------------------------------------
  Total lattice energy       =         -291672.0013 kJ/(mole unit cells)
--------------------------------------------------------------------------------


  Number of variables =      363

  Maximum number of calculations  =          1000
  Maximum Hessian update interval =            10
  Maximum step size               =   0.100000000
  Maximum parameter tolerance     =   0.000010000
  Maximum function  tolerance     =   0.000010000
  Maximum gradient  tolerance     =   0.001000000
  Maximum gradient  component     =   0.010000000

  Symmetry not applied to optimisation

  Cell parameters to be optimised using strains

  Newton-Raphson optimiser to be used

  BFGS hessian update to be used

  Lower half triangular hessian to be used

  Minimiser to switch to RFO
  When gradient norm is less than     0.050000

  Dumpfile to be written after every cycle

  Start of bulk optimisation :

  Cycle:      0 Energy:     -3022.986652  Gnorm:      4.470247  CPU:    0.131
  ** Hessian calculated **
  Cycle:      1 Energy:     -3054.316928  Gnorm:      1.022372  CPU:    0.273
  ** Hessian calculated **
  Cycle:      2 Energy:     -3060.170193  Gnorm:      0.309163  CPU:    0.554
  ** Hessian calculated **
  Cycle:      3 Energy:     -3060.405672  Gnorm:      0.186368  CPU:    0.779
  Cycle:      4 Energy:     -3060.511630  Gnorm:      0.135837  CPU:    0.901
  Cycle:      5 Energy:     -3060.630325  Gnorm:      0.107117  CPU:    1.043
  Cycle:      6 Energy:     -3060.738590  Gnorm:      0.082857  CPU:    1.184
  Cycle:      7 Energy:     -3060.796343  Gnorm:      0.066755  CPU:    1.308
  Cycle:      8 Energy:     -3060.829318  Gnorm:      0.049390  CPU:    1.428
  ** Hessian has required structure
  Cycle:      9 Energy:     -3060.837563  Gnorm:      0.063629  CPU:    1.602
  ** Hessian has required structure
  Cycle:     10 Energy:     -3060.847397  Gnorm:      0.058424  CPU:    1.772
  ** Hessian has required structure
  Cycle:     11 Energy:     -3060.859162  Gnorm:      0.070276  CPU:    1.945
  ** Hessian has required structure
  Cycle:     12 Energy:     -3060.863710  Gnorm:      0.069806  CPU:    2.115
  ** Hessian has wrong structure
  ** Imaginary eigenvectors =   4
  Cycle:     13 Energy:     -3060.889743  Gnorm:      0.073095  CPU:    2.667
  ** Hessian has wrong structure
  ** Imaginary eigenvectors =   2
  ** Hessian has wrong structure
  ** Imaginary eigenvectors =   2
  Cycle:     14 Energy:     -3060.911225  Gnorm:      0.075767  CPU:    3.304
  ** Hessian has wrong structure
  ** Imaginary eigenvectors =   1
  ** Hessian has required structure
  Cycle:     15 Energy:     -3061.080263  Gnorm:      0.060059  CPU:    3.936
  ** Hessian has required structure
  Cycle:     16 Energy:     -3061.237136  Gnorm:      0.043797  CPU:    4.144
  ** Hessian has required structure
  Cycle:     17 Energy:     -3061.294436  Gnorm:      0.030687  CPU:    4.320
  ** Hessian has required structure
  Cycle:     18 Energy:     -3061.334925  Gnorm:      0.034785  CPU:    4.495
  ** Hessian has required structure
  Cycle:     19 Energy:     -3061.359783  Gnorm:      0.034084  CPU:    4.655
  ** Hessian has required structure
  Cycle:     20 Energy:     -3061.375597  Gnorm:      0.042771  CPU:    4.836
  ** Hessian has required structure
  Cycle:     21 Energy:     -3061.403723  Gnorm:      0.030660  CPU:    5.020
  ** Hessian has required structure
  Cycle:     22 Energy:     -3061.420262  Gnorm:      0.023770  CPU:    5.199
  ** Hessian has required structure
  Cycle:     23 Energy:     -3061.434417  Gnorm:      0.016646  CPU:    5.381
  ** Hessian has required structure
  Cycle:     24 Energy:     -3061.444141  Gnorm:      0.020823  CPU:    5.561
  ** Hessian has required structure
  Cycle:     25 Energy:     -3061.466340  Gnorm:      0.026250  CPU:    5.835
  ** Hessian has required structure
  Cycle:     26 Energy:     -3061.481585  Gnorm:      0.017276  CPU:    6.043
  ** Hessian has required structure
  Cycle:     27 Energy:     -3061.491588  Gnorm:      0.011768  CPU:    6.252
  ** Hessian has required structure
  Cycle:     28 Energy:     -3061.496600  Gnorm:      0.004800  CPU:    6.441
  ** Hessian has required structure
  Cycle:     29 Energy:     -3061.498943  Gnorm:      0.006758  CPU:    6.628
  ** Hessian has required structure
  Cycle:     30 Energy:     -3061.500285  Gnorm:      0.003445  CPU:    6.816
  ** Hessian has required structure
  Cycle:     31 Energy:     -3061.500657  Gnorm:      0.001810  CPU:    7.007
  ** Hessian has required structure
  Cycle:     32 Energy:     -3061.500763  Gnorm:      0.001136  CPU:    7.198
  ** Hessian has required structure
  Cycle:     33 Energy:     -3061.500807  Gnorm:      0.000571  CPU:    7.410
  ** Hessian has required structure
  Cycle:     34 Energy:     -3061.500820  Gnorm:      0.000408  CPU:    7.621
  ** Hessian has required structure
  Cycle:     35 Energy:     -3061.500822  Gnorm:      0.000286  CPU:    7.889
  ** Hessian has required structure
  Cycle:     36 Energy:     -3061.500824  Gnorm:      0.000200  CPU:    8.053
  ** Hessian has required structure
  Cycle:     37 Energy:     -3061.500824  Gnorm:      0.000140  CPU:    8.218
  ** Hessian has required structure


  **** Optimisation achieved ****


  Final energy =   -3061.50082438 eV      
  Final Gnorm  =       0.00009787

  Components of energy : 

--------------------------------------------------------------------------------
  Interatomic potentials     =         816.32334164 eV    
  Three-body potentials      =           0.18442183 eV    
  Monopole - monopole (real) =       -2167.62274235 eV    
  Monopole - monopole (recip)=       -1710.38584550 eV    
  Monopole - monopole (total)=       -3878.00858785 eV    
--------------------------------------------------------------------------------
  Total lattice energy       =       -3061.50082438 eV    
--------------------------------------------------------------------------------
  Total lattice energy       =         -295388.0302 kJ/(mole unit cells)
--------------------------------------------------------------------------------

  Final fractional coordinates of atoms :

--------------------------------------------------------------------------------
   No.  Atomic        x           y          z          Radius
        Label       (Frac)      (Frac)     (Frac)       (Angs) 
--------------------------------------------------------------------------------
     1  Ge    c     0.052090    0.000000    0.372270    0.000000
     2  Ge    c     0.555688    0.020831    0.104535    0.000000
     3  Ge    c     0.335516    0.747576    0.283407    0.000000
     4  Ge    c     0.356194    0.361900    0.960272    0.000000
     5  Si    c     0.453873    0.026721    0.365298    0.000000
     6  Si    c     0.954670    0.025785    0.637941    0.000000
     7  Si    c     0.555537    0.032719    0.616463    0.000000
     8  Si    c     0.944359    0.017956    0.125066    0.000000
     9  Si    c     0.446810    0.043865    0.856750    0.000000
    10  Si    c     0.058795    0.029168    0.891320    0.000000
    11  Si    c     0.176626    0.288795    0.265076    0.000000
    12  Si    c     0.837867    0.311651    0.713948    0.000000
    13  Si    c     0.669998    0.743593    0.715821    0.000000
    14  Si    c     0.849729    0.714508    0.710513    0.000000
    15  Si    c     0.657714    0.336519    0.718538    0.000000
    16  Si    c     0.152483    0.689051    0.282822    0.000000
    17  Si    c     0.356658    0.336927    0.268319    0.000000
    18  Si    c     0.654652    0.341873    0.020697    0.000000
    19  Si    c     0.853453    0.703583    0.015208    0.000000
    20  Si    c     0.154376    0.712394    0.979417    0.000000
    21  Si    c     0.335034    0.769098    0.975130    0.000000
    22  Si    c     0.173855    0.317816    0.960186    0.000000
    23  Si    c     0.673786    0.741973    0.018408    0.000000
    24  Si    c     0.835236    0.306547    0.018542    0.000000
    25  O3    c     0.130301    0.139791    0.342616    0.000000
    26  O3    c     0.386240    0.881703    0.387527    0.000000
    27  O2    c     0.889968    0.179885    0.630661    0.000000
    28  O2    c     0.616846    0.873924    0.630831    0.000000
    29  O2    c     0.909016    0.838425    0.627518    0.000000
    30  O2    c     0.599298    0.219525    0.634059    0.000000
    31  O3    c     0.088036    0.788619    0.365342    0.000000
    32  O2    c     0.414822    0.219003    0.355535    0.000000
    33  O3    c     0.017452    0.044676    0.525197    0.000000
    34  O2    c     0.521156    0.028533    0.472511    0.000000
    35  O3    c     0.973811    0.029074    0.270326    0.000000
    36  O3    c     0.494792    0.973539    0.231108    0.000000
    37  O2    c     0.999715    0.039860    0.773529    0.000000
    38  O2    c     0.482295    0.010582    0.714219    0.000000
    39  O3    c     0.594801    0.231763    0.108786    0.000000
    40  O2    c     0.912260    0.821696    0.097579    0.000000
    41  O3    c     0.422339    0.246055    0.868994    0.000000
    42  O2    c     0.098754    0.837525    0.894182    0.000000
    43  O2    c     0.369195    0.922569    0.880250    0.000000
    44  O2    c     0.124562    0.181589    0.874824    0.000000
    45  O3    c     0.632708    0.875256    0.110933    0.000000
    46  O2    c     0.876314    0.160415    0.106768    0.000000
    47  O3    c     0.509254    0.980644    0.961202    0.000000
    48  O2    c     0.015348    0.065174    0.027191    0.000000
    49  O2    c     0.139512    0.478906    0.294614    0.000000
    50  O3    c     0.374526    0.539112    0.291689    0.000000
    51  O2    c     0.865787    0.510882    0.679576    0.000000
    52  O2    c     0.641750    0.543063    0.692612    0.000000
    53  O2    c     0.266986    0.290762    0.308951    0.000000
    54  O3    c     0.238741    0.739580    0.330362    0.000000
    55  O2    c     0.746546    0.290442    0.678546    0.000000
    56  O2    c     0.760770    0.763185    0.673169    0.000000
    57  O2    c     0.175259    0.253268    0.110850    0.000000
    58  O3    c     0.342821    0.824587    0.124273    0.000000
    59  O2    c     0.847654    0.266077    0.866632    0.000000
    60  O2    c     0.662463    0.795634    0.866442    0.000000
    61  O2    c     0.865104    0.748121    0.862548    0.000000
    62  O2    c     0.641361    0.288401    0.870012    0.000000
    63  O2    c     0.142679    0.752718    0.131873    0.000000
    64  O3    c     0.370405    0.288469    0.118406    0.000000
    65  O2    c     0.637571    0.546720    0.040478    0.000000
    66  O2    c     0.871703    0.499166    0.046729    0.000000
    67  O3    c     0.377110    0.584258    0.951645    0.000000
    68  O2    c     0.133572    0.509869    0.949101    0.000000
    69  O2    c     0.744136    0.300147    0.056647    0.000000
    70  O2    c     0.764900    0.743501    0.055086    0.000000
    71  O3    c     0.261789    0.326404    0.908069    0.000000
    72  O2    c     0.244023    0.746124    0.939615    0.000000
    73  O3    s     0.128796    0.144285    0.336654    0.000000
    74  O3    s     0.388767    0.885009    0.376998    0.000000
    75  O2    s     0.890974    0.178359    0.640630    0.000000
    76  O2    s     0.616173    0.876542    0.638799    0.000000
    77  O2    s     0.907286    0.844218    0.637518    0.000000
    78  O2    s     0.601115    0.212504    0.641609    0.000000
    79  O3    s     0.091695    0.795460    0.357548    0.000000
    80  O2    s     0.412733    0.211315    0.347259    0.000000
    81  O3    s     0.013596    0.038793    0.524345    0.000000
    82  O2    s     0.517475    0.028796    0.476849    0.000000
    83  O3    s     0.977258    0.025422    0.263392    0.000000
    84  O3    s     0.496157    0.983028    0.233085    0.000000
    85  O2    s     0.001657    0.037015    0.772338    0.000000
    86  O2    s     0.486389    0.016655    0.719094    0.000000
    87  O3    s     0.597877    0.226490    0.099364    0.000000
    88  O2    s     0.909106    0.829248    0.091249    0.000000
    89  O3    s     0.419374    0.235785    0.875200    0.000000
    90  O2    s     0.100623    0.844093    0.903267    0.000000
    91  O2    s     0.373488    0.918684    0.888049    0.000000
    92  O2    s     0.122956    0.180196    0.885887    0.000000
    93  O3    s     0.630965    0.872451    0.100294    0.000000
    94  O2    s     0.879050    0.161559    0.098600    0.000000
    95  O3    s     0.506765    0.990558    0.962741    0.000000
    96  O2    s     0.012366    0.056175    0.023147    0.000000
    97  O2    s     0.144741    0.481298    0.290280    0.000000
    98  O3    s     0.369500    0.535109    0.288614    0.000000
    99  O2    s     0.861088    0.511665    0.686522    0.000000
   100  O2    s     0.646453    0.542162    0.697830    0.000000
   101  O2    s     0.266673    0.295322    0.300107    0.000000
   102  O3    s     0.238186    0.735287    0.321871    0.000000
   103  O2    s     0.746868    0.297649    0.686573    0.000000
   104  O2    s     0.760546    0.755911    0.681630    0.000000
   105  O2    s     0.175260    0.263807    0.111360    0.000000
   106  O3    s     0.341487    0.813092    0.122354    0.000000
   107  O2    s     0.845255    0.275305    0.866588    0.000000
   108  O2    s     0.664446    0.784555    0.866060    0.000000
   109  O2    s     0.862195    0.739775    0.862685    0.000000
   110  O2    s     0.644402    0.298739    0.869418    0.000000
   111  O2    s     0.144876    0.742142    0.131065    0.000000
   112  O3    s     0.367991    0.298926    0.120252    0.000000
   113  O2    s     0.643243    0.544901    0.035976    0.000000
   114  O2    s     0.865967    0.500622    0.040438    0.000000
   115  O3    s     0.371375    0.584245    0.954561    0.000000
   116  O2    s     0.139923    0.511574    0.953480    0.000000
   117  O2    s     0.744465    0.305388    0.048566    0.000000
   118  O2    s     0.764823    0.738813    0.046601    0.000000
   119  O3    s     0.260555    0.328423    0.917553    0.000000
   120  O2    s     0.243920    0.744756    0.947871    0.000000
--------------------------------------------------------------------------------

  Final Cartesian lattice vectors (Angstroms) :

       17.101089   -0.079056    0.053659
       -0.034572    7.600914    0.069508
        0.032844    0.098187   10.267071


  Final cell parameters and derivatives :

--------------------------------------------------------------------------------
       a           17.101356 Angstrom     dE/de1(xx)    -0.006061 eV/strain
       b            7.601311 Angstrom     dE/de2(yy)    -0.001378 eV/strain
       c           10.267593 Angstrom     dE/de3(zz)    -0.007045 eV/strain
       alpha       88.928997 Degrees      dE/de4(yz)     0.000539 eV/strain
       beta        89.639488 Degrees      dE/de5(xz)    -0.000526 eV/strain
       gamma       90.523803 Degrees      dE/de6(xy)    -0.001023 eV/strain
--------------------------------------------------------------------------------

  Primitive cell volume =          1334.395471 Angs**3

  Density of cell =      2.016280 g/cm**3

  Non-primitive cell volume =          1334.395471 Angs**3


  Final internal derivatives :

--------------------------------------------------------------------------------
   No.  Atomic          a             b             c           Radius
        Label          (eV)          (eV)          (eV)        (eV/Angs)
--------------------------------------------------------------------------------
      1 Ge    c       0.000000      0.000000      0.000000      0.000000
      2 Ge    c      -0.002286     -0.000489      0.002155      0.000000
      3 Ge    c       0.003597      0.004368      0.000601      0.000000
      4 Ge    c      -0.007207      0.000383     -0.000785      0.000000
      5 Si    c       0.002515     -0.000566      0.000246      0.000000
      6 Si    c       0.003937      0.000299     -0.000103      0.000000
      7 Si    c      -0.000378     -0.000028      0.000725      0.000000
      8 Si    c       0.001128      0.000369     -0.000782      0.000000
      9 Si    c       0.002039     -0.000970      0.001658      0.000000
     10 Si    c      -0.003647      0.000437     -0.001843      0.000000
     11 Si    c      -0.000874     -0.000409     -0.005682      0.000000
     12 Si    c      -0.000695      0.000458     -0.000080      0.000000
     13 Si    c       0.000072     -0.000322     -0.000353      0.000000
     14 Si    c      -0.000388     -0.000029      0.000027      0.000000
     15 Si    c      -0.000084      0.000142     -0.000265      0.000000
     16 Si    c      -0.004119     -0.000695     -0.001754      0.000000
     17 Si    c      -0.002248     -0.004394     -0.003022      0.000000
     18 Si    c       0.000447      0.000178     -0.000214      0.000000
     19 Si    c      -0.000525     -0.000298     -0.000107      0.000000
     20 Si    c       0.003429     -0.000701     -0.000004      0.000000
     21 Si    c      -0.002918     -0.000121     -0.002278      0.000000
     22 Si    c       0.000736     -0.000132      0.003525      0.000000
     23 Si    c       0.001795     -0.000434      0.001268      0.000000
     24 Si    c      -0.001440      0.000647      0.000610      0.000000
     25 O3    c      -0.001135     -0.001188      0.001152      0.000000
     26 O3    c      -0.000665     -0.000423     -0.000135      0.000000
     27 O2    c       0.001788     -0.001052      0.000071      0.000000
     28 O2    c      -0.001119      0.000585      0.000003      0.000000
     29 O2    c       0.000385      0.000781      0.000205      0.000000
     30 O2    c      -0.000274     -0.000544     -0.000223      0.000000
     31 O3    c       0.000559     -0.000461      0.000248      0.000000
     32 O2    c       0.000766      0.000103      0.000505      0.000000
     33 O3    c      -0.008986     -0.000431      0.005402      0.000000
     34 O2    c      -0.003921     -0.000064     -0.001473      0.000000
     35 O3    c       0.003290     -0.000415     -0.000020      0.000000
     36 O3    c       0.006957      0.001661     -0.004305      0.000000
     37 O2    c       0.001445     -0.000335      0.000423      0.000000
     38 O2    c       0.003305      0.000117     -0.001914      0.000000
     39 O3    c      -0.001651     -0.001990      0.000596      0.000000
     40 O2    c       0.000364      0.001019      0.000461      0.000000
     41 O3    c       0.000598      0.000000     -0.000400      0.000000
     42 O2    c      -0.000090     -0.000002     -0.000371      0.000000
     43 O2    c       0.000539      0.000121     -0.000547      0.000000
     44 O2    c       0.000375      0.000247     -0.000003      0.000000
     45 O3    c      -0.003123      0.000420     -0.000946      0.000000
     46 O2    c       0.002919     -0.000564     -0.000087      0.000000
     47 O3    c      -0.002351      0.001889     -0.000534      0.000000
     48 O2    c      -0.004874     -0.000803      0.001614      0.000000
     49 O2    c      -0.000204      0.002183      0.001612      0.000000
     50 O3    c       0.008784      0.000133      0.005096      0.000000
     51 O2    c      -0.000828     -0.000662      0.000273      0.000000
     52 O2    c       0.000756      0.000652      0.000151      0.000000
     53 O2    c       0.002619     -0.000598     -0.000877      0.000000
     54 O3    c      -0.008418      0.001792      0.001080      0.000000
     55 O2    c       0.001288     -0.000096      0.000202      0.000000
     56 O2    c      -0.000651      0.000029      0.000267      0.000000
     57 O2    c       0.004046      0.002490     -0.000478      0.000000
     58 O3    c       0.000340      0.001901      0.000126      0.000000
     59 O2    c       0.000044     -0.000149     -0.000463      0.000000
     60 O2    c       0.000486     -0.000047     -0.000584      0.000000
     61 O2    c      -0.000361      0.000017      0.000253      0.000000
     62 O2    c      -0.000214     -0.000010      0.000393      0.000000
     63 O2    c       0.001290     -0.000519      0.000841      0.000000
     64 O3    c      -0.002799     -0.001004     -0.000206      0.000000
     65 O2    c       0.001834      0.001045     -0.000297      0.000000
     66 O2    c      -0.001667     -0.000995     -0.000394      0.000000
     67 O3    c       0.001662     -0.003322      0.001122      0.000000
     68 O2    c       0.002582      0.000171      0.000680      0.000000
     69 O2    c       0.003640     -0.000187     -0.000538      0.000000
     70 O2    c      -0.003849      0.000012     -0.000531      0.000000
     71 O3    c       0.007454      0.001280      0.002682      0.000000
     72 O2    c      -0.004633     -0.000262      0.001502      0.000000
     73 O3    s       0.000576     -0.000044     -0.001581      0.000000
     74 O3    s       0.001776      0.001258      0.000512      0.000000
     75 O2    s       0.002083     -0.000022     -0.000046      0.000000
     76 O2    s      -0.000408     -0.000164      0.000262      0.000000
     77 O2    s       0.002042      0.000610     -0.000267      0.000000
     78 O2    s      -0.000567     -0.000302      0.000078      0.000000
     79 O3    s      -0.000065      0.000172     -0.000777      0.000000
     80 O2    s       0.000423     -0.001289      0.000104      0.000000
     81 O3    s       0.001578     -0.000019     -0.001392      0.000000
     82 O2    s       0.001267     -0.000094      0.000336      0.000000
     83 O3    s      -0.002525      0.000196     -0.000688      0.000000
     84 O3    s      -0.001961     -0.000478      0.001047      0.000000
     85 O2    s      -0.000773      0.000013     -0.000345      0.000000
     86 O2    s      -0.000055     -0.000010      0.000553      0.000000
     87 O3    s      -0.000211     -0.000220     -0.000354      0.000000
     88 O2    s       0.001088      0.000744     -0.000350      0.000000
     89 O3    s      -0.001085      0.000080      0.000476      0.000000
     90 O2    s       0.000309     -0.000024      0.000123      0.000000
     91 O2    s       0.000703      0.000441     -0.000706      0.000000
     92 O2    s       0.000009     -0.000049      0.001319      0.000000
     93 O3    s      -0.000427     -0.000409     -0.000555      0.000000
     94 O2    s       0.001174      0.000147      0.000148      0.000000
     95 O3    s       0.003412     -0.000144      0.001178      0.000000
     96 O2    s       0.000364     -0.000171     -0.000796      0.000000
     97 O2    s       0.001492     -0.000096     -0.002268      0.000000
     98 O3    s      -0.001464     -0.000155     -0.001200      0.000000
     99 O2    s       0.000098     -0.000106      0.000132      0.000000
    100 O2    s       0.000123      0.000233      0.000015      0.000000
    101 O2    s      -0.003942     -0.001060      0.000634      0.000000
    102 O3    s      -0.000861     -0.000387      0.001028      0.000000
    103 O2    s       0.000607      0.000145      0.000347      0.000000
    104 O2    s      -0.000549     -0.000165      0.000185      0.000000
    105 O2    s      -0.001063      0.000358     -0.001649      0.000000
    106 O3    s       0.002035      0.000114     -0.001180      0.000000
    107 O2    s      -0.000733      0.000697      0.000231      0.000000
    108 O2    s      -0.000136     -0.000387      0.000989      0.000000
    109 O2    s       0.000168     -0.000091     -0.000242      0.000000
    110 O2    s       0.000149     -0.000091     -0.000071      0.000000
    111 O2    s       0.000942     -0.000979     -0.001494      0.000000
    112 O3    s       0.003357      0.000484     -0.002371      0.000000
    113 O2    s       0.000191      0.000668      0.000147      0.000000
    114 O2    s      -0.000282     -0.000192     -0.000116      0.000000
    115 O3    s      -0.000476      0.000018      0.001342      0.000000
    116 O2    s       0.002773     -0.000022      0.002680      0.000000
    117 O2    s       0.000256      0.000122     -0.000228      0.000000
    118 O2    s      -0.000753     -0.000085     -0.000261      0.000000
    119 O3    s      -0.006968      0.000166      0.000501      0.000000
    120 O2    s      -0.002951     -0.000444     -0.000151      0.000000
--------------------------------------------------------------------------------
  Maximum abs         0.008986      0.004394      0.005682      0.000000
--------------------------------------------------------------------------------


  Born effective charge tensors : 

-------------------------------------------------------------------------------
  Atom             x           y             z
-------------------------------------------------------------------------------
    1 Ge    x       4.2016     -0.2873     -0.4239
            y       0.1988      3.8514     -0.0051
            z      -0.3203      0.2226      4.6618
-------------------------------------------------------------------------------
    2 Ge    x       4.2689      0.2579     -0.1283
            y      -0.2093      3.8998     -0.0217
            z      -0.7396     -0.1271      3.7427
-------------------------------------------------------------------------------
    3 Ge    x       3.9427      0.4072      0.1840
            y       0.1597      4.1612      0.2856
            z       0.1803      0.0418      3.4386
-------------------------------------------------------------------------------
    4 Ge    x       4.0523     -0.3316     -0.1078
            y      -0.3322      4.1863      0.3008
            z      -0.2258      0.0335      3.3233
-------------------------------------------------------------------------------
    5 Si    x       3.7407     -0.0335     -0.0709
            y       0.2723      3.3917     -0.0214
            z       0.5847      0.1638      4.0313
-------------------------------------------------------------------------------
    6 Si    x       3.6792      0.1166     -0.1925
            y      -0.1040      3.2816      0.0159
            z      -0.9041     -0.0607      4.0387
-------------------------------------------------------------------------------
    7 Si    x       3.4370      0.0736      0.3526
            y      -0.1200      3.2567      0.0386
            z       0.3245      0.0333      3.7046
-------------------------------------------------------------------------------
    8 Si    x       3.5287      0.1530      0.4745
            y      -0.1939      3.2947      0.0383
            z       0.4964      0.0721      3.5827
-------------------------------------------------------------------------------
    9 Si    x       3.7633     -0.4771     -0.2054
            y       0.0524      3.5647     -0.0840
            z      -0.3211      0.0512      3.3337
-------------------------------------------------------------------------------
   10 Si    x       3.4992     -0.1307      0.0871
            y       0.1386      3.2513     -0.0522
            z       0.5984     -0.0199      2.9484
-------------------------------------------------------------------------------
   11 Si    x       3.3216      0.5040     -0.1597
            y       0.2425      3.6825     -0.3002
            z      -0.2160     -0.2320      2.9683
-------------------------------------------------------------------------------
   12 Si    x       3.1956     -0.2969     -0.1133
            y      -0.1961      3.4517      0.1394
            z      -0.0924      0.0538      2.7721
-------------------------------------------------------------------------------
   13 Si    x       3.2114     -0.2979      0.1315
            y      -0.2047      3.4843     -0.1785
            z       0.1519     -0.0631      2.7759
-------------------------------------------------------------------------------
   14 Si    x       3.1818      0.2295     -0.0495
            y       0.2819      3.4297     -0.1521
            z      -0.0715     -0.0710      2.7818
-------------------------------------------------------------------------------
   15 Si    x       3.1981      0.2241      0.0758
            y       0.2810      3.4503      0.2080
            z       0.1129      0.0815      2.7897
-------------------------------------------------------------------------------
   16 Si    x       3.7454     -0.2745     -0.0829
            y      -0.3882      3.6038      0.3537
            z      -0.1877      0.1600      3.0578
-------------------------------------------------------------------------------
   17 Si    x       3.3355     -0.2040      0.0388
            y      -0.2003      3.8163     -0.0301
            z       0.1393      0.0923      3.1780
-------------------------------------------------------------------------------
   18 Si    x       3.4908      0.3799     -0.2906
            y       0.4086      3.4878     -0.3116
            z      -0.3062     -0.1308      2.8715
-------------------------------------------------------------------------------
   19 Si    x       3.1931      0.2380      0.1400
            y       0.2686      3.3960      0.1659
            z       0.1739      0.0735      2.7152
-------------------------------------------------------------------------------
   20 Si    x       3.2594     -0.3028      0.1248
            y      -0.2289      3.3905     -0.1854
            z       0.1429     -0.0419      2.6871
-------------------------------------------------------------------------------
   21 Si    x       3.3945      0.3244     -0.1753
            y      -0.0767      3.7797     -0.0217
            z      -0.1505      0.0799      3.0883
-------------------------------------------------------------------------------
   22 Si    x       3.6239      0.3744      0.0203
            y       0.1011      3.4940      0.2194
            z       0.0597      0.0443      2.7650
-------------------------------------------------------------------------------
   23 Si    x       3.3373     -0.4710     -0.2841
            y      -0.2193      3.6173      0.3843
            z      -0.2138      0.2140      2.9070
-------------------------------------------------------------------------------
   24 Si    x       3.1607     -0.3171      0.1520
            y      -0.0974      3.4462     -0.1612
            z       0.1014     -0.0891      2.7224
-------------------------------------------------------------------------------
   25 O3    x      -2.1355     -0.9571      0.5290
            y      -1.0163     -2.3733      0.5832
            z       0.5518      0.5472     -1.5884
-------------------------------------------------------------------------------
   26 O3    x      -2.1388     -0.9165     -0.3098
            y      -0.9604     -2.2379     -0.3375
            z      -0.3843     -0.3056     -1.5795
-------------------------------------------------------------------------------
   27 O2    x      -1.7453      0.7110      0.2418
            y       0.7559     -1.9519     -0.2866
            z       0.3296     -0.2697     -1.3277
-------------------------------------------------------------------------------
   28 O2    x      -1.7580      0.7350     -0.3827
            y       0.7712     -1.9696      0.3743
            z      -0.3874      0.3501     -1.3478
-------------------------------------------------------------------------------
   29 O2    x      -1.6405     -0.6900      0.2416
            y      -0.6616     -2.0100      0.2413
            z       0.3362      0.2522     -1.3408
-------------------------------------------------------------------------------
   30 O2    x      -1.6523     -0.7004     -0.3752
            y      -0.6643     -2.0048     -0.4013
            z      -0.3676     -0.3759     -1.3708
-------------------------------------------------------------------------------
   31 O3    x      -1.9919      0.9028      0.5203
            y       0.8306     -2.3596     -0.4730
            z       0.5374     -0.4798     -1.6289
-------------------------------------------------------------------------------
   32 O2    x      -1.6509      0.6440     -0.3106
            y       0.6066     -1.9332      0.3491
            z      -0.4007      0.3219     -1.3949
-------------------------------------------------------------------------------
   33 O3    x      -1.9904      0.0489      1.0959
            y      -0.0082     -1.2261     -0.0475
            z       1.3819     -0.1412     -3.3817
-------------------------------------------------------------------------------
   34 O2    x      -1.6888      0.0090     -0.7816
            y       0.0060     -1.0854      0.0039
            z      -0.9975     -0.0062     -2.6080
-------------------------------------------------------------------------------
   35 O3    x      -1.9761      0.0345     -0.9053
            y       0.0479     -1.2236      0.0158
            z      -0.9393     -0.0048     -2.8654
-------------------------------------------------------------------------------
   36 O3    x      -1.9546      0.0135      0.9047
            y       0.0327     -1.3172     -0.1086
            z       0.8773     -0.1038     -2.7754
-------------------------------------------------------------------------------
   37 O2    x      -1.7607      0.0023     -0.7525
            y      -0.0034     -1.1353     -0.0005
            z      -0.7261     -0.0064     -2.1620
-------------------------------------------------------------------------------
   38 O2    x      -1.7566      0.0368      0.6428
            y      -0.0084     -1.1184     -0.0345
            z       0.6459     -0.0656     -2.1053
-------------------------------------------------------------------------------
   39 O3    x      -2.0366     -0.9178      0.4896
            y      -0.8254     -2.3592      0.4623
            z       0.5457      0.4509     -1.4833
-------------------------------------------------------------------------------
   40 O2    x      -1.6211     -0.6495     -0.3712
            y      -0.5556     -2.0342     -0.4046
            z      -0.3564     -0.3784     -1.2681
-------------------------------------------------------------------------------
   41 O3    x      -1.8919      0.8374      0.4509
            y       0.6821     -2.5796     -0.4745
            z       0.4613     -0.4547     -1.4363
-------------------------------------------------------------------------------
   42 O2    x      -1.6703      0.7203     -0.3023
            y       0.6086     -2.0263      0.3407
            z      -0.3453      0.3131     -1.1990
-------------------------------------------------------------------------------
   43 O2    x      -1.8029     -0.6068      0.4167
            y      -0.5841     -1.8200      0.4039
            z       0.3574      0.3297     -1.3147
-------------------------------------------------------------------------------
   44 O2    x      -1.7709     -0.7145     -0.2374
            y      -0.6889     -1.9185     -0.2771
            z      -0.3056     -0.2690     -1.2163
-------------------------------------------------------------------------------
   45 O3    x      -2.1048      0.9278      0.4485
            y       0.9310     -2.2832     -0.5357
            z       0.4952     -0.4942     -1.5182
-------------------------------------------------------------------------------
   46 O2    x      -1.7144      0.6938     -0.3566
            y       0.6727     -1.9383      0.3762
            z      -0.3356      0.3539     -1.2677
-------------------------------------------------------------------------------
   47 O3    x      -2.1478      0.1083     -0.8322
            y       0.0695     -1.3368      0.0926
            z      -0.5048      0.0837     -2.1037
-------------------------------------------------------------------------------
   48 O2    x      -1.8424     -0.0421      0.5629
            y      -0.0301     -1.1978     -0.0012
            z       0.3023     -0.0086     -1.6497
-------------------------------------------------------------------------------
   49 O2    x      -1.2181      0.1233      0.0589
            y       0.2060     -2.4547     -0.0803
            z       0.0859     -0.0445     -1.1011
-------------------------------------------------------------------------------
   50 O3    x      -1.3548      0.0485     -0.0608
            y       0.1412     -3.1926     -0.1269
            z      -0.0898     -0.0935     -1.1685
-------------------------------------------------------------------------------
   51 O2    x      -1.1555     -0.0445      0.0635
            y      -0.0911     -2.5390      0.0075
            z       0.0740     -0.0084     -1.0702
-------------------------------------------------------------------------------
   52 O2    x      -1.1659     -0.0523     -0.0565
            y      -0.0963     -2.5938     -0.0037
            z      -0.0723      0.0104     -1.0511
-------------------------------------------------------------------------------
   53 O2    x      -2.3934     -0.1010     -0.0695
            y      -0.0298     -1.2533      0.0547
            z      -0.0687      0.0299     -1.1098
-------------------------------------------------------------------------------
   54 O3    x      -2.9541     -0.2682     -0.1049
            y      -0.2036     -1.4091     -0.1080
            z      -0.1161     -0.0599     -1.2618
-------------------------------------------------------------------------------
   55 O2    x      -2.3879      0.0845      0.0172
            y       0.0354     -1.2498     -0.0724
            z      -0.0214     -0.0448     -1.0611
-------------------------------------------------------------------------------
   56 O2    x      -2.3840      0.0985      0.0128
            y       0.0528     -1.2486      0.0673
            z       0.0076      0.0434     -1.0695
-------------------------------------------------------------------------------
   57 O2    x      -1.1945     -0.1110     -0.1004
            y      -0.0422     -1.3162      0.0327
            z      -0.0829      0.0299     -2.0527
-------------------------------------------------------------------------------
   58 O3    x      -1.3325     -0.1611     -0.0319
            y      -0.0863     -1.4608     -0.0340
            z      -0.0253     -0.0105     -2.5948
-------------------------------------------------------------------------------
   59 O2    x      -1.1674      0.1269     -0.0276
            y       0.0868     -1.2789     -0.0186
            z      -0.0005      0.0054     -2.0501
-------------------------------------------------------------------------------
   60 O2    x      -1.1848      0.1330     -0.0126
            y       0.0903     -1.3123      0.0174
            z      -0.0252      0.0011     -2.0235
-------------------------------------------------------------------------------
   61 O2    x      -1.1847     -0.1198     -0.0440
            y      -0.1189     -1.2633      0.0097
            z      -0.0577      0.0239     -2.0604
-------------------------------------------------------------------------------
   62 O2    x      -1.2224     -0.1406      0.0106
            y      -0.1359     -1.2955     -0.0252
            z       0.0323     -0.0331     -2.0299
-------------------------------------------------------------------------------
   63 O2    x      -1.2116      0.1329     -0.0105
            y       0.1162     -1.3093      0.0521
            z      -0.0163      0.0670     -2.0554
-------------------------------------------------------------------------------
   64 O3    x      -1.3765      0.1588      0.0802
            y       0.1452     -1.4359     -0.0120
            z       0.0501      0.0158     -2.6234
-------------------------------------------------------------------------------
   65 O2    x      -1.2559     -0.0698      0.0869
            y      -0.1347     -2.4069     -0.0068
            z       0.1083      0.0003     -1.0347
-------------------------------------------------------------------------------
   66 O2    x      -1.2181     -0.0667     -0.0870
            y      -0.1402     -2.4866      0.0068
            z      -0.1019     -0.0078     -1.0230
-------------------------------------------------------------------------------
   67 O3    x      -1.4929      0.2177      0.1053
            y       0.2957     -3.1041     -0.1160
            z       0.1369     -0.0783     -1.1224
-------------------------------------------------------------------------------
   68 O2    x      -1.2497      0.0581     -0.0687
            y       0.1336     -2.4893     -0.0954
            z      -0.0877     -0.0629     -1.0148
-------------------------------------------------------------------------------
   69 O2    x      -2.3807      0.1257     -0.0038
            y       0.0827     -1.2499      0.0654
            z       0.0018      0.0360     -1.0511
-------------------------------------------------------------------------------
   70 O2    x      -2.3461      0.0942     -0.0192
            y       0.0572     -1.2443     -0.0689
            z       0.0035     -0.0422     -1.0525
-------------------------------------------------------------------------------
   71 O3    x      -3.0508     -0.1606      0.0970
            y      -0.0770     -1.3672     -0.0831
            z       0.1415     -0.0165     -1.2277
-------------------------------------------------------------------------------
   72 O2    x      -2.4372     -0.1956      0.0405
            y      -0.1300     -1.2679      0.0523
            z       0.0353      0.0185     -1.0426
-------------------------------------------------------------------------------




  Elastic Constant Matrix: (Units=GPa)

-------------------------------------------------------------------------------
  Indices      1         2         3         4         5         6    
-------------------------------------------------------------------------------
       1     46.9952   22.5274   20.8079    0.7512    7.2327   -4.0592
       2     22.5274   66.7890   19.0781    0.6034    7.0454   -3.5326
       3     20.8079   19.0781   23.2857    0.8825    2.8296   -4.6719
       4      0.7512    0.6034    0.8825   11.0537   -1.1360    1.1018
       5      7.2327    7.0454    2.8296   -1.1360   22.3918    2.7288
       6     -4.0592   -3.5326   -4.6719    1.1018    2.7288   25.9646
-------------------------------------------------------------------------------


  Elastic Compliance Matrix: (Units=1/GPa)

-------------------------------------------------------------------------------
  Indices      1         2         3         4         5         6    
-------------------------------------------------------------------------------
       1    0.037063 -0.003295 -0.029314 -0.000845 -0.007381  0.000883
       2   -0.003295  0.020239 -0.013125 -0.000240 -0.003691  0.000275
       3   -0.029314 -0.013125  0.081465 -0.004406  0.002074  0.008259
       4   -0.000845 -0.000240 -0.004406  0.092082  0.006249 -0.005522
       5   -0.007381 -0.003691  0.002074  0.006249  0.049077 -0.006706
       6    0.000883  0.000275  0.008259 -0.005522 -0.006706  0.041115
-------------------------------------------------------------------------------

  Mechanical properties :

-------------------------------------------------------------------------------
  Convention :                    Reuss         Voigt         Hill
-------------------------------------------------------------------------------
  Bulk  Modulus (GPa)     =      21.14175      29.09965      25.12070
  Shear Modulus (GPa)     =      11.67478      16.85912      14.26695
-------------------------------------------------------------------------------
  Velocity S-wave (km/s)  =       2.40630       2.89163       2.66005
  Velocity P-wave (km/s)  =       4.26683       5.05777       4.67904
-------------------------------------------------------------------------------
  Compressibility (1/GPa) =    0.04729977
-------------------------------------------------------------------------------
  Stress axis :                     x             y             z
-------------------------------------------------------------------------------
  Youngs Moduli (GPa)     =      26.98110      49.40962      12.27528
-------------------------------------------------------------------------------
  Poissons Ratio (x)      =                     0.16279       0.35983
  Poissons Ratio (y)      =       0.08890                     0.16111
  Poissons Ratio (z)      =       0.79092       0.64850
-------------------------------------------------------------------------------


  Piezoelectric Strain Matrix: (Units=C/m**2)

-------------------------------------------------------------------------------
  Indices      1         2         3         4         5         6    
-------------------------------------------------------------------------------
       x    -0.14286   0.21128  -0.29449   0.16065  -0.43437   0.04920
       y    -0.63194  -0.15479  -0.00130  -0.03775   0.30487   0.36450
       z    -0.41015  -0.42927  -0.24886   0.12696   0.16549  -0.03670
-------------------------------------------------------------------------------


  Piezoelectric Stress Matrix: (Units=10**-11 C/N)

-------------------------------------------------------------------------------
  Indices      1         2         3         4         5         6    
-------------------------------------------------------------------------------
       x     0.57554   1.01903  -2.37782   1.31745  -2.09794   0.15486
       y    -2.47700  -0.20496   2.42591  -0.30064   1.75149   1.25390
       z    -0.78529  -0.47217  -0.31358   1.44732   1.32566  -0.58551
-------------------------------------------------------------------------------


  Static dielectric constant tensor : 

-------------------------------------------------------------------------------
              x         y         z
-------------------------------------------------------------------------------
       x     4.17211  -0.01668  -0.16255
       y    -0.01668   4.27359   0.00173
       z    -0.16255   0.00173   3.40940
--------------------------------------------------------------------------------

  High frequency dielectric constant tensor : 

-------------------------------------------------------------------------------
              x         y         z
-------------------------------------------------------------------------------
       x     1.67363  -0.00109   0.00226
       y    -0.00109   1.68138   0.00150
       z     0.00226   0.00150   1.61320
-------------------------------------------------------------------------------

  Static refractive indices : 

-------------------------------------------------------------------------------
    1 =    1.83744      2 =    2.04974      3 =    2.06820
-------------------------------------------------------------------------------

  High frequency refractive indices : 

-------------------------------------------------------------------------------
    1 =    1.27007      2 =    1.29367      3 =    1.29675
-------------------------------------------------------------------------------


  Time to end of optimisation =       8.5995 seconds


  Peak dynamic memory used =       5.01 MB 


  Timing analysis for GULP :

--------------------------------------------------------------------------------
  Task / Subroutine                                          Time (Seconds)
--------------------------------------------------------------------------------
  Calculation of reciprocal space energy and derivatives          0.5294
  Calculation of real space energy and derivatives                5.3206
  Calculation of three-body energy and derivatives                0.4066
  Calculation and manipulation of Hessian matrix                  2.7739
  Calculation of matrix inversion                                 0.0258
  Global summation overhead                                       0.0001
--------------------------------------------------------------------------------
  Total CPU time                                                  8.5995
--------------------------------------------------------------------------------


  Dump file written as c00231.vasp.grs
  CIF file written as c00231.vasp.cif


  Job Finished at 12:28.37 31st October    2025                               

