********************************************************************************
*                       GENERAL UTILITY LATTICE PROGRAM                        *
*                                 Julian Gale                                  *
*                       Curtin Institute for Computation                       *
*                    School of Molecular and Life Sciences                     *
*                    Curtin University, Western Australia                      *
********************************************************************************
* Version = 6.1.2 * Last modified =   3rd November 2022                        *
********************************************************************************
*  optimise     - perform optimisation run                                     *
*  conp         - constant pressure calculation                                *
*  property     - calculate properties for final geometry                      *
********************************************************************************

  Job Started  at 12:57.47 31st October    2025                               

  Number of CPUs =     1


  Total number of configurations input =      1

********************************************************************************
*  Input for Configuration =   1 : c00391.vasp                                 *
********************************************************************************

  Formula = Ge4Si20O48                                                  

  Number of irreducible atoms/shells =     120


  Total number atoms/shells =     120

  Dimensionality = 3               :  Bulk   



  Cartesian lattice vectors (Angstroms) :

       17.182800    0.000000    0.000000
        0.000000    7.513760    0.000000
        0.000000    0.000000   10.447700

  Cell parameters (Angstroms/Degrees):

  a =      17.1828    alpha =  90.0000
  b =       7.5138    beta  =  90.0000
  c =      10.4477    gamma =  90.0000

  Initial cell volume =        1348.875752 Angs**3

  Temperature of configuration =   0.00     K 

  Pressure of configuration =         0.000 GPa 

  Fractional coordinates of asymmetric unit :

--------------------------------------------------------------------------------
   No.  Atomic       x           y          z         Charge      Occupancy
        Label      (Frac)      (Frac)     (Frac)        (e)         (Frac)  
--------------------------------------------------------------------------------
      1 Ge    c    0.052090    0.000000    0.372270     4.00000    1.000000    
      2 Ge    c    0.443270 *  0.000000 *  0.877870 *   4.00000    1.000000    
      3 Ge    c    0.839810 *  0.293910 *  0.726560 *   4.00000    1.000000    
      4 Ge    c    0.839810 *  0.706090 *  0.726560 *   4.00000    1.000000    
      5 Si    c    0.447910 *  0.000000 *  0.372270 *   4.00000    1.000000    
      6 Si    c    0.947910 *  0.000000 *  0.627730 *   4.00000    1.000000    
      7 Si    c    0.552090 *  0.000000 *  0.627730 *   4.00000    1.000000    
      8 Si    c    0.556730 *  0.000000 *  0.122130 *   4.00000    1.000000    
      9 Si    c    0.943270 *  0.000000 *  0.122130 *   4.00000    1.000000    
     10 Si    c    0.056730 *  0.000000 *  0.877870 *   4.00000    1.000000    
     11 Si    c    0.160190 *  0.293910 *  0.273440 *   4.00000    1.000000    
     12 Si    c    0.339810 *  0.706090 *  0.273440 *   4.00000    1.000000    
     13 Si    c    0.660190 *  0.706090 *  0.726560 *   4.00000    1.000000    
     14 Si    c    0.660190 *  0.293910 *  0.726560 *   4.00000    1.000000    
     15 Si    c    0.160190 *  0.706090 *  0.273440 *   4.00000    1.000000    
     16 Si    c    0.339810 *  0.293910 *  0.273440 *   4.00000    1.000000    
     17 Si    c    0.660660 *  0.294090 *  0.017440 *   4.00000    1.000000    
     18 Si    c    0.839340 *  0.705910 *  0.017440 *   4.00000    1.000000    
     19 Si    c    0.339340 *  0.294090 *  0.982560 *   4.00000    1.000000    
     20 Si    c    0.160660 *  0.705910 *  0.982560 *   4.00000    1.000000    
     21 Si    c    0.339340 *  0.705910 *  0.982560 *   4.00000    1.000000    
     22 Si    c    0.160660 *  0.294090 *  0.982560 *   4.00000    1.000000    
     23 Si    c    0.660660 *  0.705910 *  0.017440 *   4.00000    1.000000    
     24 Si    c    0.839340 *  0.294090 *  0.017440 *   4.00000    1.000000    
     25 O3    c    0.106570 *  0.174340 *  0.366200 *   1.33043    1.000000    
     26 O2    c    0.393430 *  0.825660 *  0.366200 *   0.87073    1.000000    
     27 O3    c    0.893430 *  0.174340 *  0.633800 *   1.33043    1.000000    
     28 O2    c    0.606570 *  0.825660 *  0.633800 *   0.87073    1.000000    
     29 O3    c    0.893430 *  0.825660 *  0.633800 *   1.33043    1.000000    
     30 O2    c    0.606570 *  0.174340 *  0.633800 *   0.87073    1.000000    
     31 O3    c    0.106570 *  0.825660 *  0.366200 *   1.33043    1.000000    
     32 O2    c    0.393430 *  0.174340 *  0.366200 *   0.87073    1.000000    
     33 O3    c    0.000000 *  0.000000 *  0.500000 *   1.33043    1.000000    
     34 O2    c    0.500000 *  0.000000 *  0.500000 *   0.87073    1.000000    
     35 O3    c    0.994520 *  0.000000 *  0.250840 *   1.33043    1.000000    
     36 O2    c    0.505480 *  0.000000 *  0.250840 *   0.87073    1.000000    
     37 O2    c    0.005480 *  0.000000 *  0.749160 *   0.87073    1.000000    
     38 O3    c    0.494520 *  0.000000 *  0.749160 *   1.33043    1.000000    
     39 O2    c    0.610230 *  0.175520 *  0.115390 *   0.87073    1.000000    
     40 O2    c    0.889770 *  0.824480 *  0.115390 *   0.87073    1.000000    
     41 O3    c    0.389770 *  0.175520 *  0.884610 *   1.33043    1.000000    
     42 O2    c    0.110230 *  0.824480 *  0.884610 *   0.87073    1.000000    
     43 O3    c    0.389770 *  0.824480 *  0.884610 *   1.33043    1.000000    
     44 O2    c    0.110230 *  0.175520 *  0.884610 *   0.87073    1.000000    
     45 O2    c    0.610230 *  0.824480 *  0.115390 *   0.87073    1.000000    
     46 O2    c    0.889770 *  0.175520 *  0.115390 *   0.87073    1.000000    
     47 O3    c    0.500000 *  0.000000 *  0.000000 *   1.33043    1.000000    
     48 O2    c    0.000000 *  0.000000 *  0.000000 *   0.87073    1.000000    
     49 O2    c    0.151750 *  0.500000 *  0.313330 *   0.87073    1.000000    
     50 O2    c    0.348250 *  0.500000 *  0.313330 *   0.87073    1.000000    
     51 O1    c    0.848250 *  0.500000 *  0.686670 *   1.73396    1.000000    
     52 O2    c    0.651750 *  0.500000 *  0.686670 *   0.87073    1.000000    
     53 O2    c    0.250000 *  0.234950 *  0.285720 *   0.87073    1.000000    
     54 O2    c    0.250000 *  0.765050 *  0.285720 *   0.87073    1.000000    
     55 O3    c    0.750000 *  0.234950 *  0.714280 *   1.33043    1.000000    
     56 O3    c    0.750000 *  0.765050 *  0.714280 *   1.33043    1.000000    
     57 O2    c    0.131410 *  0.268650 *  0.127790 *   0.87073    1.000000    
     58 O2    c    0.368590 *  0.731350 *  0.127790 *   0.87073    1.000000    
     59 O3    c    0.868590 *  0.268650 *  0.872210 *   1.33043    1.000000    
     60 O2    c    0.631410 *  0.731350 *  0.872210 *   0.87073    1.000000    
     61 O3    c    0.868590 *  0.731350 *  0.872210 *   1.33043    1.000000    
     62 O2    c    0.631410 *  0.268650 *  0.872210 *   0.87073    1.000000    
     63 O2    c    0.131410 *  0.731350 *  0.127790 *   0.87073    1.000000    
     64 O2    c    0.368590 *  0.268650 *  0.127790 *   0.87073    1.000000    
     65 O2    c    0.653920 *  0.500000 *  0.058200 *   0.87073    1.000000    
     66 O2    c    0.846080 *  0.500000 *  0.058200 *   0.87073    1.000000    
     67 O2    c    0.346080 *  0.500000 *  0.941800 *   0.87073    1.000000    
     68 O2    c    0.153920 *  0.500000 *  0.941800 *   0.87073    1.000000    
     69 O2    c    0.750000 *  0.231060 *  0.027050 *   0.87073    1.000000    
     70 O2    c    0.750000 *  0.768940 *  0.027050 *   0.87073    1.000000    
     71 O2    c    0.250000 *  0.231060 *  0.972950 *   0.87073    1.000000    
     72 O2    c    0.250000 *  0.768940 *  0.972950 *   0.87073    1.000000    
     73 O3    s    0.106570 *  0.174340 *  0.366200 *  -3.33043    1.000000    
     74 O2    s    0.393430 *  0.825660 *  0.366200 *  -2.87073    1.000000    
     75 O3    s    0.893430 *  0.174340 *  0.633800 *  -3.33043    1.000000    
     76 O2    s    0.606570 *  0.825660 *  0.633800 *  -2.87073    1.000000    
     77 O3    s    0.893430 *  0.825660 *  0.633800 *  -3.33043    1.000000    
     78 O2    s    0.606570 *  0.174340 *  0.633800 *  -2.87073    1.000000    
     79 O3    s    0.106570 *  0.825660 *  0.366200 *  -3.33043    1.000000    
     80 O2    s    0.393430 *  0.174340 *  0.366200 *  -2.87073    1.000000    
     81 O3    s    0.000000 *  0.000000 *  0.500000 *  -3.33043    1.000000    
     82 O2    s    0.500000 *  0.000000 *  0.500000 *  -2.87073    1.000000    
     83 O3    s    0.994520 *  0.000000 *  0.250840 *  -3.33043    1.000000    
     84 O2    s    0.505480 *  0.000000 *  0.250840 *  -2.87073    1.000000    
     85 O2    s    0.005480 *  0.000000 *  0.749160 *  -2.87073    1.000000    
     86 O3    s    0.494520 *  0.000000 *  0.749160 *  -3.33043    1.000000    
     87 O2    s    0.610230 *  0.175520 *  0.115390 *  -2.87073    1.000000    
     88 O2    s    0.889770 *  0.824480 *  0.115390 *  -2.87073    1.000000    
     89 O3    s    0.389770 *  0.175520 *  0.884610 *  -3.33043    1.000000    
     90 O2    s    0.110230 *  0.824480 *  0.884610 *  -2.87073    1.000000    
     91 O3    s    0.389770 *  0.824480 *  0.884610 *  -3.33043    1.000000    
     92 O2    s    0.110230 *  0.175520 *  0.884610 *  -2.87073    1.000000    
     93 O2    s    0.610230 *  0.824480 *  0.115390 *  -2.87073    1.000000    
     94 O2    s    0.889770 *  0.175520 *  0.115390 *  -2.87073    1.000000    
     95 O3    s    0.500000 *  0.000000 *  0.000000 *  -3.33043    1.000000    
     96 O2    s    0.000000 *  0.000000 *  0.000000 *  -2.87073    1.000000    
     97 O2    s    0.151750 *  0.500000 *  0.313330 *  -2.87073    1.000000    
     98 O2    s    0.348250 *  0.500000 *  0.313330 *  -2.87073    1.000000    
     99 O1    s    0.848250 *  0.500000 *  0.686670 *  -3.73396    1.000000    
    100 O2    s    0.651750 *  0.500000 *  0.686670 *  -2.87073    1.000000    
    101 O2    s    0.250000 *  0.234950 *  0.285720 *  -2.87073    1.000000    
    102 O2    s    0.250000 *  0.765050 *  0.285720 *  -2.87073    1.000000    
    103 O3    s    0.750000 *  0.234950 *  0.714280 *  -3.33043    1.000000    
    104 O3    s    0.750000 *  0.765050 *  0.714280 *  -3.33043    1.000000    
    105 O2    s    0.131410 *  0.268650 *  0.127790 *  -2.87073    1.000000    
    106 O2    s    0.368590 *  0.731350 *  0.127790 *  -2.87073    1.000000    
    107 O3    s    0.868590 *  0.268650 *  0.872210 *  -3.33043    1.000000    
    108 O2    s    0.631410 *  0.731350 *  0.872210 *  -2.87073    1.000000    
    109 O3    s    0.868590 *  0.731350 *  0.872210 *  -3.33043    1.000000    
    110 O2    s    0.631410 *  0.268650 *  0.872210 *  -2.87073    1.000000    
    111 O2    s    0.131410 *  0.731350 *  0.127790 *  -2.87073    1.000000    
    112 O2    s    0.368590 *  0.268650 *  0.127790 *  -2.87073    1.000000    
    113 O2    s    0.653920 *  0.500000 *  0.058200 *  -2.87073    1.000000    
    114 O2    s    0.846080 *  0.500000 *  0.058200 *  -2.87073    1.000000    
    115 O2    s    0.346080 *  0.500000 *  0.941800 *  -2.87073    1.000000    
    116 O2    s    0.153920 *  0.500000 *  0.941800 *  -2.87073    1.000000    
    117 O2    s    0.750000 *  0.231060 *  0.027050 *  -2.87073    1.000000    
    118 O2    s    0.750000 *  0.768940 *  0.027050 *  -2.87073    1.000000    
    119 O2    s    0.250000 *  0.231060 *  0.972950 *  -2.87073    1.000000    
    120 O2    s    0.250000 *  0.768940 *  0.972950 *  -2.87073    1.000000    
--------------------------------------------------------------------------------



********************************************************************************
*  General input information                                                   *
********************************************************************************

  Species output for all configurations : 

--------------------------------------------------------------------------------
  Species    Type    Atomic    Atomic    Charge       Radii (Angs)     Library
                     Number     Mass       (e)     Cova   Ionic  VDW   Symbol
--------------------------------------------------------------------------------
    Ge       Core       32      72.61   4.000000   1.170  0.000  1.750 Ge       
    Si       Core       14      28.09   4.000000   1.200  0.000  2.100 Si       
    O1       Core        8      16.00   1.733957   0.730  0.000  1.360 O1       
    O2       Core        8      16.00   0.870733   0.730  0.000  1.360 O2       
    O3       Core        8      16.00   1.330431   0.730  0.000  1.360 O3       
    O1       Shell       8       0.00  -3.733957   0.730  0.000  0.000 O1       
    O2       Shell       8       0.00  -2.870733   0.730  0.000  0.000 O2       
    O3       Shell       8       0.00  -3.330431   0.730  0.000  0.000 O3       
--------------------------------------------------------------------------------


  Lattice summation method               =    Ewald          (3-D)
                                         =    Parry          (2-D)
                                         =    Saunders et al (1-D)
  Accuracy factor for lattice sums       =   12.000


  Analytic derivatives to be used

  Time limit = Infinity

  Maximum range for interatomic potentials =    100000.000000 Angstroms

  General interatomic potentials :

--------------------------------------------------------------------------------
Atom  Types   Potential      Parameter       Value         Units   Cutoffs(Ang)
  1     2                                                            Min /  Max 
--------------------------------------------------------------------------------
Si   c O1   s Buckingham    Buckingham A     1315.2478    eV        0.000 16.000
                            Buckingham rho  0.31775900    Ang       
                            Buckingham C     10.141118    eV*Ang^6  
--------------------------------------------------------------------------------
Si   c O2   s Buckingham    Buckingham A     1315.2478    eV        0.000 16.000
                            Buckingham rho  0.31775900    Ang       
                            Buckingham C     10.141118    eV*Ang^6  
--------------------------------------------------------------------------------
Si   c O3   s Buckingham    Buckingham A     1315.2478    eV        0.000 16.000
                            Buckingham rho  0.31775900    Ang       
                            Buckingham C     10.141118    eV*Ang^6  
--------------------------------------------------------------------------------
Ge   c O1   s Buckingham    Buckingham A     1497.3996    eV        0.000 16.000
                            Buckingham rho  0.32564600    Ang       
                            Buckingham C     16.808599    eV*Ang^6  
--------------------------------------------------------------------------------
Ge   c O2   s Buckingham    Buckingham A     1497.3996    eV        0.000 16.000
                            Buckingham rho  0.32564600    Ang       
                            Buckingham C     16.808599    eV*Ang^6  
--------------------------------------------------------------------------------
Ge   c O3   s Buckingham    Buckingham A     1497.3996    eV        0.000 16.000
                            Buckingham rho  0.32564600    Ang       
                            Buckingham C     16.808599    eV*Ang^6  
--------------------------------------------------------------------------------
O1   s O1   s Buckingham    Buckingham A     22764.000    eV        0.000 16.000
                            Buckingham rho  0.14900000    Ang       
                            Buckingham C     10.937044    eV*Ang^6  
--------------------------------------------------------------------------------
O1   s O2   s Buckingham    Buckingham A     22764.000    eV        0.000 16.000
                            Buckingham rho  0.14900000    Ang       
                            Buckingham C     10.937044    eV*Ang^6  
--------------------------------------------------------------------------------
O1   s O3   s Buckingham    Buckingham A     22764.000    eV        0.000 16.000
                            Buckingham rho  0.14900000    Ang       
                            Buckingham C     10.937044    eV*Ang^6  
--------------------------------------------------------------------------------
O2   s O2   s Buckingham    Buckingham A     22764.000    eV        0.000 16.000
                            Buckingham rho  0.14900000    Ang       
                            Buckingham C     10.937044    eV*Ang^6  
--------------------------------------------------------------------------------
O2   s O3   s Buckingham    Buckingham A     22764.000    eV        0.000 16.000
                            Buckingham rho  0.14900000    Ang       
                            Buckingham C     10.937044    eV*Ang^6  
--------------------------------------------------------------------------------
O3   s O3   s Buckingham    Buckingham A     22764.000    eV        0.000 16.000
                            Buckingham rho  0.14900000    Ang       
                            Buckingham C     10.937044    eV*Ang^6  
--------------------------------------------------------------------------------
O1   c O1   s Spring (c-s)  Spring k 2       180.31577    eV*Ang^-2 0.000  0.800
                            Spring k 4       0.0000000    eV*Ang^-4 
--------------------------------------------------------------------------------
O2   c O2   s Spring (c-s)  Spring k 2       75.969800    eV*Ang^-2 0.000  0.800
                            Spring k 4       0.0000000    eV*Ang^-4 
--------------------------------------------------------------------------------
O3   c O3   s Spring (c-s)  Spring k 2       128.14270    eV*Ang^-2 0.000  0.800
                            Spring k 4       0.0000000    eV*Ang^-4 
--------------------------------------------------------------------------------

  General Three-body potentials :

--------------------------------------------------------------------------------
  Atoms       Potential      Parameter       Value         Units   Cutoffs(Ang)
  1 / 2 / 3                                                          Min /  Max 
--------------------------------------------------------------------------------
Si    core    Harmonic      Three-body cnst  1.2614000    eV*rad^-2 0.000  1.900
O1    shel                  Three-body angl  109.47000    degrees   0.000  1.900
O1    shel                  Three-body k4    0.0000000    eV*rad^-4 0.000  3.500
                            Three-body k3    0.0000000    eV*rad^-3 
--------------------------------------------------------------------------------
Si    core    Harmonic      Three-body cnst  1.2614000    eV*rad^-2 0.000  1.900
O1    shel                  Three-body angl  109.47000    degrees   0.000  1.900
õ(1   shel                  Three-body k4    0.0000000    eV*rad^-4 0.000  3.500
                            Three-body k3    0.0000000    eV*rad^-3 
--------------------------------------------------------------------------------
Si    core    Harmonic      Three-body cnst  1.2614000    eV*rad^-2 0.000  1.900
õ(1   shel                  Three-body angl  109.47000    degrees   0.000  1.900
õ(1   shel                  Three-body k4    0.0000000    eV*rad^-4 0.000  3.500
                            Three-body k3    0.0000000    eV*rad^-3 
--------------------------------------------------------------------------------
Si    core    Harmonic      Three-body cnst  1.2614000    eV*rad^-2 0.000  1.900
O1    shel                  Three-body angl  109.47000    degrees   0.000  1.900
O2    shel                  Three-body k4    0.0000000    eV*rad^-4 0.000  3.500
                            Three-body k3    0.0000000    eV*rad^-3 
--------------------------------------------------------------------------------
Si    core    Harmonic      Three-body cnst  1.2614000    eV*rad^-2 0.000  1.900
O1    shel                  Three-body angl  109.47000    degrees   0.000  1.900
õ(2   shel                  Three-body k4    0.0000000    eV*rad^-4 0.000  3.500
                            Three-body k3    0.0000000    eV*rad^-3 
--------------------------------------------------------------------------------
Si    core    Harmonic      Three-body cnst  1.2614000    eV*rad^-2 0.000  1.900
O2    shel                  Three-body angl  109.47000    degrees   0.000  1.900
õ(1   shel                  Three-body k4    0.0000000    eV*rad^-4 0.000  3.500
                            Three-body k3    0.0000000    eV*rad^-3 
--------------------------------------------------------------------------------
Si    core    Harmonic      Three-body cnst  1.2614000    eV*rad^-2 0.000  1.900
õ(1   shel                  Three-body angl  109.47000    degrees   0.000  1.900
õ(2   shel                  Three-body k4    0.0000000    eV*rad^-4 0.000  3.500
                            Three-body k3    0.0000000    eV*rad^-3 
--------------------------------------------------------------------------------
Si    core    Harmonic      Three-body cnst  1.2614000    eV*rad^-2 0.000  1.900
O2    shel                  Three-body angl  109.47000    degrees   0.000  1.900
O2    shel                  Three-body k4    0.0000000    eV*rad^-4 0.000  3.500
                            Three-body k3    0.0000000    eV*rad^-3 
--------------------------------------------------------------------------------
Si    core    Harmonic      Three-body cnst  1.2614000    eV*rad^-2 0.000  1.900
O2    shel                  Three-body angl  109.47000    degrees   0.000  1.900
õ(2   shel                  Three-body k4    0.0000000    eV*rad^-4 0.000  3.500
                            Three-body k3    0.0000000    eV*rad^-3 
--------------------------------------------------------------------------------
Si    core    Harmonic      Three-body cnst  1.2614000    eV*rad^-2 0.000  1.900
õ(2   shel                  Three-body angl  109.47000    degrees   0.000  1.900
õ(2   shel                  Three-body k4    0.0000000    eV*rad^-4 0.000  3.500
                            Three-body k3    0.0000000    eV*rad^-3 
--------------------------------------------------------------------------------

********************************************************************************
*  Output for configuration   1 : c00391.vasp                                  *
********************************************************************************


  Components of energy : 

--------------------------------------------------------------------------------
  Interatomic potentials     =         768.33385523 eV    
  Three-body potentials      =           0.01108687 eV    
  Monopole - monopole (real) =       -2676.00317478 eV    
  Monopole - monopole (recip)=       -1115.35404472 eV    
  Monopole - monopole (total)=       -3791.35721950 eV    
--------------------------------------------------------------------------------
  Total lattice energy       =       -3023.01227741 eV    
--------------------------------------------------------------------------------
  Total lattice energy       =         -291674.4738 kJ/(mole unit cells)
--------------------------------------------------------------------------------


  Number of variables =      363

  Maximum number of calculations  =          1000
  Maximum Hessian update interval =            10
  Maximum step size               =   0.100000000
  Maximum parameter tolerance     =   0.000010000
  Maximum function  tolerance     =   0.000010000
  Maximum gradient  tolerance     =   0.001000000
  Maximum gradient  component     =   0.010000000

  Symmetry not applied to optimisation

  Cell parameters to be optimised using strains

  Newton-Raphson optimiser to be used

  BFGS hessian update to be used

  Lower half triangular hessian to be used

  Minimiser to switch to RFO
  When gradient norm is less than     0.050000

  Dumpfile to be written after every cycle

  Start of bulk optimisation :

  Cycle:      0 Energy:     -3023.012277  Gnorm:      4.470159  CPU:    0.108
  ** Hessian calculated **
  Cycle:      1 Energy:     -3054.232659  Gnorm:      1.024468  CPU:    0.235
  ** Hessian calculated **
  Cycle:      2 Energy:     -3056.803427  Gnorm:      0.776635  CPU:    0.441
  ** Hessian calculated **
  Cycle:      3 Energy:     -3058.313315  Gnorm:      0.444264  CPU:    0.632
  Cycle:      4 Energy:     -3058.831769  Gnorm:      0.299793  CPU:    0.729
  Cycle:      5 Energy:     -3059.319605  Gnorm:      0.236903  CPU:    0.844
  Cycle:      6 Energy:     -3059.777926  Gnorm:      0.180093  CPU:    0.960
  Cycle:      7 Energy:     -3060.052029  Gnorm:      0.144900  CPU:    1.059
  Cycle:      8 Energy:     -3060.210319  Gnorm:      0.105811  CPU:    1.161
  Cycle:      9 Energy:     -3060.294685  Gnorm:      0.087535  CPU:    1.262
  Cycle:     10 Energy:     -3060.335651  Gnorm:      0.068710  CPU:    1.363
  Cycle:     11 Energy:     -3060.370639  Gnorm:      0.065674  CPU:    1.482
  Cycle:     12 Energy:     -3060.405051  Gnorm:      0.066875  CPU:    1.603
  ** Hessian calculated **
  Cycle:     13 Energy:     -3060.461268  Gnorm:      0.063819  CPU:    1.814
  Cycle:     14 Energy:     -3060.551103  Gnorm:      0.058656  CPU:    1.954
  Cycle:     15 Energy:     -3060.656618  Gnorm:      0.052078  CPU:    2.075
  Cycle:     16 Energy:     -3060.784811  Gnorm:      0.043145  CPU:    2.196
  ** Hessian has wrong structure
  ** Imaginary eigenvectors =   4
  Cycle:     17 Energy:     -3060.786752  Gnorm:      0.058902  CPU:    2.396
  ** Hessian has wrong structure
  ** Imaginary eigenvectors =   4
  ** Hessian has wrong structure
  ** Imaginary eigenvectors =   4
  Cycle:     18 Energy:     -3060.856783  Gnorm:      0.070023  CPU:    2.918
  ** Hessian has wrong structure
  ** Imaginary eigenvectors =   3
  ** Hessian has wrong structure
  ** Imaginary eigenvectors =   2
  Cycle:     19 Energy:     -3061.039595  Gnorm:      0.036406  CPU:    3.298
  ** Hessian has wrong structure
  ** Imaginary eigenvectors =   2
  ** Hessian has wrong structure
  ** Imaginary eigenvectors =   2
  Cycle:     20 Energy:     -3061.051247  Gnorm:      0.045576  CPU:    3.750
  ** Hessian has wrong structure
  ** Imaginary eigenvectors =   1
  Cycle:     21 Energy:     -3061.158101  Gnorm:      0.039124  CPU:    4.103
  ** Hessian has required structure
  Cycle:     22 Energy:     -3061.251264  Gnorm:      0.025417  CPU:    4.405
  ** Hessian has required structure
  Cycle:     23 Energy:     -3061.287532  Gnorm:      0.019536  CPU:    4.579
  ** Hessian has required structure
  Cycle:     24 Energy:     -3061.306557  Gnorm:      0.012268  CPU:    4.749
  ** Hessian has required structure
  Cycle:     25 Energy:     -3061.315978  Gnorm:      0.013215  CPU:    4.944
  ** Hessian has required structure
  Cycle:     26 Energy:     -3061.321987  Gnorm:      0.006030  CPU:    5.102
  ** Hessian has required structure
  Cycle:     27 Energy:     -3061.325597  Gnorm:      0.009514  CPU:    5.277
  ** Hessian has required structure
  Cycle:     28 Energy:     -3061.328191  Gnorm:      0.009140  CPU:    5.435
  ** Hessian has required structure
  Cycle:     29 Energy:     -3061.331856  Gnorm:      0.010967  CPU:    5.611
  ** Hessian has required structure
  Cycle:     30 Energy:     -3061.337104  Gnorm:      0.010435  CPU:    5.786
  ** Hessian has required structure
  Cycle:     31 Energy:     -3061.339434  Gnorm:      0.014034  CPU:    5.926
  ** Hessian has required structure
  Cycle:     32 Energy:     -3061.351545  Gnorm:      0.012490  CPU:    6.168
  ** Hessian has required structure
  Cycle:     33 Energy:     -3061.356456  Gnorm:      0.008237  CPU:    6.330
  ** Hessian has required structure
  Cycle:     34 Energy:     -3061.359194  Gnorm:      0.007381  CPU:    6.518
  ** Hessian has required structure
  Cycle:     35 Energy:     -3061.360763  Gnorm:      0.005356  CPU:    6.686
  ** Hessian has required structure
  Cycle:     36 Energy:     -3061.362103  Gnorm:      0.004053  CPU:    6.871
  ** Hessian has required structure
  Cycle:     37 Energy:     -3061.362644  Gnorm:      0.008319  CPU:    7.034
  ** Hessian has required structure
  Cycle:     38 Energy:     -3061.364086  Gnorm:      0.008815  CPU:    7.198
  ** Hessian has required structure
  Cycle:     39 Energy:     -3061.366013  Gnorm:      0.007958  CPU:    7.380
  ** Hessian has required structure
  Cycle:     40 Energy:     -3061.368377  Gnorm:      0.010138  CPU:    7.558
  ** Hessian has required structure
  Cycle:     41 Energy:     -3061.373132  Gnorm:      0.011861  CPU:    7.732
  ** Hessian has required structure
  Cycle:     42 Energy:     -3061.380169  Gnorm:      0.008127  CPU:    7.991
  ** Hessian has required structure
  Cycle:     43 Energy:     -3061.382969  Gnorm:      0.006233  CPU:    8.170
  ** Hessian has required structure
  Cycle:     44 Energy:     -3061.384682  Gnorm:      0.004065  CPU:    8.343
  ** Hessian has required structure
  Cycle:     45 Energy:     -3061.385672  Gnorm:      0.004271  CPU:    8.516
  ** Hessian has required structure
  Cycle:     46 Energy:     -3061.386312  Gnorm:      0.001940  CPU:    8.671
  ** Hessian has required structure
  Cycle:     47 Energy:     -3061.386533  Gnorm:      0.001444  CPU:    8.825
  ** Hessian has required structure
  Cycle:     48 Energy:     -3061.386624  Gnorm:      0.000851  CPU:    8.999
  ** Hessian has required structure
  Cycle:     49 Energy:     -3061.386648  Gnorm:      0.000528  CPU:    9.173
  ** Hessian has required structure
  Cycle:     50 Energy:     -3061.386657  Gnorm:      0.000252  CPU:    9.354
  ** Hessian has required structure
  Cycle:     51 Energy:     -3061.386658  Gnorm:      0.000198  CPU:    9.494
  ** Hessian has required structure
  Cycle:     52 Energy:     -3061.386659  Gnorm:      0.000178  CPU:    9.713
  ** Hessian has required structure
  Cycle:     53 Energy:     -3061.386659  Gnorm:      0.000177  CPU:    9.923
  ** Hessian has required structure
  Cycle:     54 Energy:     -3061.386659  Gnorm:      0.000177  CPU:   10.096
  ** Hessian has required structure
  Cycle:     55 Energy:     -3061.386659  Gnorm:      0.000177  CPU:   10.370
  ** Hessian calculated **
  Cycle:     56 Energy:     -3061.386659  Gnorm:      0.000098  CPU:   10.538
  ** Hessian has required structure
  Cycle:     57 Energy:     -3061.386659  Gnorm:      0.000174  CPU:   10.676
  ** Hessian has required structure
  Cycle:     58 Energy:     -3061.386659  Gnorm:      0.000181  CPU:   10.824
  ** Hessian has required structure
  Cycle:     59 Energy:     -3061.386659  Gnorm:      0.000161  CPU:   10.984
  ** Hessian has required structure
  Cycle:     60 Energy:     -3061.386659  Gnorm:      0.000136  CPU:   11.144
  ** Hessian has required structure
  Cycle:     61 Energy:     -3061.386659  Gnorm:      0.000132  CPU:   11.307
  ** Hessian has required structure
  Cycle:     62 Energy:     -3061.386660  Gnorm:      0.000126  CPU:   11.467
  ** Hessian has required structure
  Cycle:     63 Energy:     -3061.386660  Gnorm:      0.000119  CPU:   11.628
  ** Hessian has required structure
  Cycle:     64 Energy:     -3061.386660  Gnorm:      0.000116  CPU:   11.789
  ** Hessian has required structure
  Cycle:     65 Energy:     -3061.386660  Gnorm:      0.000106  CPU:   11.937
  ** Hessian has required structure
  Cycle:     66 Energy:     -3061.386660  Gnorm:      0.000106  CPU:   12.195
  ** Hessian has required structure
  Cycle:     67 Energy:     -3061.386660  Gnorm:      0.000105  CPU:   12.331
  ** Hessian has required structure


  **** Optimisation achieved ****


  Final energy =   -3061.38665955 eV      
  Final Gnorm  =       0.00010446

  Components of energy : 

--------------------------------------------------------------------------------
  Interatomic potentials     =         814.65960551 eV    
  Three-body potentials      =           0.19479248 eV    
  Monopole - monopole (real) =       -2170.53850774 eV    
  Monopole - monopole (recip)=       -1705.70254980 eV    
  Monopole - monopole (total)=       -3876.24105755 eV    
--------------------------------------------------------------------------------
  Total lattice energy       =       -3061.38665955 eV    
--------------------------------------------------------------------------------
  Total lattice energy       =         -295377.0151 kJ/(mole unit cells)
--------------------------------------------------------------------------------

  Final fractional coordinates of atoms :

--------------------------------------------------------------------------------
   No.  Atomic        x           y          z          Radius
        Label       (Frac)      (Frac)     (Frac)       (Angs) 
--------------------------------------------------------------------------------
     1  Ge    c     0.052090    0.000000    0.372270    0.000000
     2  Ge    c     0.432032    0.977711    0.846050    0.000000
     3  Ge    c     0.843297    0.304100    0.703172    0.000000
     4  Ge    c     0.827200    0.726062    0.707592    0.000000
     5  Si    c     0.452069    0.982751    0.337216    0.000000
     6  Si    c     0.949407    0.001852    0.625433    0.000000
     7  Si    c     0.540740    0.983405    0.605516    0.000000
     8  Si    c     0.552837    0.986470    0.086398    0.000000
     9  Si    c     0.935685    0.994780    0.127139    0.000000
    10  Si    c     0.043943    0.988129    0.890001    0.000000
    11  Si    c     0.155175    0.306049    0.274616    0.000000
    12  Si    c     0.348469    0.674673    0.254573    0.000000
    13  Si    c     0.645606    0.677801    0.704003    0.000000
    14  Si    c     0.660477    0.272071    0.701756    0.000000
    15  Si    c     0.170049    0.710810    0.267645    0.000000
    16  Si    c     0.334696    0.269587    0.259985    0.000000
    17  Si    c     0.664832    0.274035    0.007512    0.000000
    18  Si    c     0.826944    0.709957    0.015721    0.000000
    19  Si    c     0.320521    0.261997    0.959351    0.000000
    20  Si    c     0.159129    0.701785    0.965936    0.000000
    21  Si    c     0.338440    0.662164    0.952809    0.000000
    22  Si    c     0.140841    0.302829    0.974237    0.000000
    23  Si    c     0.648278    0.668879    0.009277    0.000000
    24  Si    c     0.843698    0.305855    0.011002    0.000000
    25  O3    c     0.099094    0.199967    0.365304    0.000000
    26  O2    c     0.409712    0.793288    0.335621    0.000000
    27  O3    c     0.911254    0.193355    0.614151    0.000000
    28  O2    c     0.579299    0.792944    0.632097    0.000000
    29  O3    c     0.877462    0.867639    0.612041    0.000000
    30  O2    c     0.603532    0.137852    0.627205    0.000000
    31  O3    c     0.121729    0.839775    0.354415    0.000000
    32  O2    c     0.387653    0.137537    0.345663    0.000000
    33  O3    c     0.016560    0.973315    0.525362    0.000000
    34  O2    c     0.511753    0.992386    0.457220    0.000000
    35  O3    c     0.971950    0.985804    0.270000    0.000000
    36  O2    c     0.500417    0.011453    0.209129    0.000000
    37  O2    c     0.984970    0.967209    0.770145    0.000000
    38  O3    c     0.466378    0.006143    0.693215    0.000000
    39  O2    c     0.622122    0.129643    0.092316    0.000000
    40  O2    c     0.870527    0.842534    0.114577    0.000000
    41  O3    c     0.356360    0.123888    0.864217    0.000000
    42  O2    c     0.111057    0.840310    0.878685    0.000000
    43  O3    c     0.394801    0.768268    0.862741    0.000000
    44  O2    c     0.081307    0.183531    0.889634    0.000000
    45  O2    c     0.589020    0.789945    0.087690    0.000000
    46  O2    c     0.899739    0.189376    0.104386    0.000000
    47  O3    c     0.505103    0.025882    0.955529    0.000000
    48  O2    c     0.001656    0.952939    0.024073    0.000000
    49  O2    c     0.143073    0.512634    0.297324    0.000000
    50  O2    c     0.364307    0.469127    0.282329    0.000000
    51  O1    c     0.861671    0.519828    0.680808    0.000000
    52  O2    c     0.631784    0.471525    0.674163    0.000000
    53  O2    c     0.245331    0.253717    0.302564    0.000000
    54  O2    c     0.262187    0.726990    0.298754    0.000000
    55  O3    c     0.748209    0.251317    0.656381    0.000000
    56  O3    c     0.729924    0.733509    0.659207    0.000000
    57  O2    c     0.130896    0.256910    0.125811    0.000000
    58  O2    c     0.357797    0.716303    0.102276    0.000000
    59  O3    c     0.855777    0.245756    0.864804    0.000000
    60  O2    c     0.638755    0.714197    0.857494    0.000000
    61  O3    c     0.833945    0.779468    0.870527    0.000000
    62  O2    c     0.658458    0.230175    0.854949    0.000000
    63  O2    c     0.154378    0.756916    0.116464    0.000000
    64  O2    c     0.340525    0.213800    0.109391    0.000000
    65  O2    c     0.627165    0.465529    0.034554    0.000000
    66  O2    c     0.863611    0.513323    0.025936    0.000000
    67  O2    c     0.353802    0.456028    0.931298    0.000000
    68  O2    c     0.122500    0.507346    0.945846    0.000000
    69  O2    c     0.754991    0.274316    0.052023    0.000000
    70  O2    c     0.736856    0.705183    0.055654    0.000000
    71  O2    c     0.227998    0.259783    0.933816    0.000000
    72  O2    c     0.247919    0.705690    0.920637    0.000000
    73  O3    s     0.101163    0.194859    0.356343    0.000000
    74  O2    s     0.407445    0.800292    0.326874    0.000000
    75  O3    s     0.909498    0.183485    0.622369    0.000000
    76  O2    s     0.582525    0.800540    0.637253    0.000000
    77  O3    s     0.880199    0.868722    0.621371    0.000000
    78  O2    s     0.603137    0.136075    0.633302    0.000000
    79  O3    s     0.121123    0.839231    0.346467    0.000000
    80  O2    s     0.388590    0.135780    0.335367    0.000000
    81  O3    s     0.012385    0.978622    0.523131    0.000000
    82  O2    s     0.508064    0.990220    0.460054    0.000000
    83  O3    s     0.974931    0.987973    0.263597    0.000000
    84  O2    s     0.501060    0.005169    0.209225    0.000000
    85  O2    s     0.988099    0.973193    0.769021    0.000000
    86  O3    s     0.471043    0.001364    0.697321    0.000000
    87  O2    s     0.619574    0.130632    0.082119    0.000000
    88  O2    s     0.872672    0.844161    0.105059    0.000000
    89  O3    s     0.358713    0.126889    0.873112    0.000000
    90  O2    s     0.109300    0.840588    0.889577    0.000000
    91  O3    s     0.391882    0.774014    0.870872    0.000000
    92  O2    s     0.083859    0.176227    0.898838    0.000000
    93  O2    s     0.591704    0.797214    0.078959    0.000000
    94  O2    s     0.897476    0.181669    0.096702    0.000000
    95  O3    s     0.503705    0.017615    0.959613    0.000000
    96  O2    s     0.999147    0.961360    0.020536    0.000000
    97  O2    s     0.147306    0.511192    0.291655    0.000000
    98  O2    s     0.359453    0.470058    0.276985    0.000000
    99  O1    s     0.857381    0.518495    0.684799    0.000000
   100  O2    s     0.636232    0.472455    0.680222    0.000000
   101  O2    s     0.245402    0.260934    0.295085    0.000000
   102  O2    s     0.261550    0.719645    0.290705    0.000000
   103  O3    s     0.746866    0.257432    0.664522    0.000000
   104  O3    s     0.729027    0.727264    0.667619    0.000000
   105  O2    s     0.134397    0.266585    0.125164    0.000000
   106  O2    s     0.354836    0.706478    0.102871    0.000000
   107  O3    s     0.853586    0.256367    0.866799    0.000000
   108  O2    s     0.640491    0.705474    0.857653    0.000000
   109  O3    s     0.832705    0.768262    0.872010    0.000000
   110  O2    s     0.659363    0.239375    0.855143    0.000000
   111  O2    s     0.156543    0.746233    0.116386    0.000000
   112  O2    s     0.337849    0.224586    0.109634    0.000000
   113  O2    s     0.633305    0.467285    0.029045    0.000000
   114  O2    s     0.857812    0.511971    0.023356    0.000000
   115  O2    s     0.348623    0.457793    0.936595    0.000000
   116  O2    s     0.128265    0.505853    0.950960    0.000000
   117  O2    s     0.754635    0.277794    0.042719    0.000000
   118  O2    s     0.736864    0.701634    0.046345    0.000000
   119  O2    s     0.228380    0.264937    0.941197    0.000000
   120  O2    s     0.247849    0.700629    0.928965    0.000000
--------------------------------------------------------------------------------

  Final Cartesian lattice vectors (Angstroms) :

       17.173066    0.009523   -0.224625
        0.004202    7.610896   -0.006703
       -0.132775   -0.008920   10.303306


  Final cell parameters and derivatives :

--------------------------------------------------------------------------------
       a           17.174538 Angstrom     dE/de1(xx)     0.008817 eV/strain
       b            7.610900 Angstrom     dE/de2(yy)     0.008524 eV/strain
       c           10.304165 Angstrom     dE/de3(zz)     0.004943 eV/strain
       alpha       90.100464 Degrees      dE/de4(yz)     0.000911 eV/strain
       beta        91.487727 Degrees      dE/de5(xz)    -0.000935 eV/strain
       gamma       89.935938 Degrees      dE/de6(xy)     0.000346 eV/strain
--------------------------------------------------------------------------------

  Primitive cell volume =          1346.438554 Angs**3

  Density of cell =      1.998245 g/cm**3

  Non-primitive cell volume =          1346.438554 Angs**3


  Final internal derivatives :

--------------------------------------------------------------------------------
   No.  Atomic          a             b             c           Radius
        Label          (eV)          (eV)          (eV)        (eV/Angs)
--------------------------------------------------------------------------------
      1 Ge    c       0.000000      0.000000      0.000000      0.000000
      2 Ge    c      -0.002987      0.000463     -0.001806      0.000000
      3 Ge    c       0.001916     -0.001697     -0.000385      0.000000
      4 Ge    c       0.002821      0.001654     -0.000339      0.000000
      5 Si    c       0.004498      0.000460     -0.002143      0.000000
      6 Si    c      -0.003236      0.000786      0.003813      0.000000
      7 Si    c      -0.000944      0.000149     -0.002442      0.000000
      8 Si    c       0.000395     -0.000232     -0.001820      0.000000
      9 Si    c      -0.000285      0.000248      0.002496      0.000000
     10 Si    c      -0.001207     -0.000629     -0.000167      0.000000
     11 Si    c      -0.001402     -0.000332      0.000009      0.000000
     12 Si    c       0.001276     -0.000212     -0.000061      0.000000
     13 Si    c      -0.001311     -0.000282     -0.000456      0.000000
     14 Si    c      -0.001742     -0.000228      0.001446      0.000000
     15 Si    c      -0.001189      0.000257     -0.000734      0.000000
     16 Si    c       0.002292     -0.000576     -0.000450      0.000000
     17 Si    c      -0.000692     -0.002080     -0.000488      0.000000
     18 Si    c       0.000025      0.000783      0.000707      0.000000
     19 Si    c      -0.000203      0.000342      0.000753      0.000000
     20 Si    c      -0.002139      0.001408      0.000168      0.000000
     21 Si    c       0.000456      0.000573     -0.000918      0.000000
     22 Si    c      -0.001415     -0.000492      0.000097      0.000000
     23 Si    c      -0.001330      0.001373      0.001569      0.000000
     24 Si    c       0.000635     -0.000969      0.001204      0.000000
     25 O3    c      -0.001154      0.000440      0.000428      0.000000
     26 O2    c      -0.000563     -0.001712      0.001251      0.000000
     27 O3    c      -0.000270      0.001637     -0.000160      0.000000
     28 O2    c       0.000608     -0.000843     -0.000744      0.000000
     29 O3    c      -0.008053     -0.000834      0.000101      0.000000
     30 O2    c       0.000779      0.000593      0.000180      0.000000
     31 O3    c       0.001645     -0.000782      0.000266      0.000000
     32 O2    c      -0.000443     -0.000068      0.000748      0.000000
     33 O3    c       0.009955     -0.001327     -0.008051      0.000000
     34 O2    c       0.003761     -0.000686      0.002124      0.000000
     35 O3    c      -0.004432     -0.000006     -0.002743      0.000000
     36 O2    c      -0.007813      0.000591      0.006198      0.000000
     37 O2    c      -0.003555     -0.000405     -0.001427      0.000000
     38 O3    c      -0.005250     -0.000317      0.001065      0.000000
     39 O2    c       0.004482      0.000441     -0.000126      0.000000
     40 O2    c      -0.003083     -0.000611      0.001201      0.000000
     41 O3    c       0.002340     -0.002168     -0.004945      0.000000
     42 O2    c       0.000972      0.000133      0.000186      0.000000
     43 O3    c      -0.000941     -0.001063     -0.001673      0.000000
     44 O2    c       0.000548      0.001334      0.000537      0.000000
     45 O2    c       0.000952     -0.001377     -0.000142      0.000000
     46 O2    c      -0.001811      0.000759     -0.000460      0.000000
     47 O3    c       0.006030      0.003225      0.006219      0.000000
     48 O2    c       0.004047     -0.001552     -0.001569      0.000000
     49 O2    c      -0.001090      0.000095      0.000246      0.000000
     50 O2    c       0.001073     -0.000478      0.000524      0.000000
     51 O1    c       0.002804      0.000762     -0.000518      0.000000
     52 O2    c      -0.002185      0.000103     -0.001175      0.000000
     53 O2    c      -0.000303     -0.000505      0.001043      0.000000
     54 O2    c       0.000383      0.000410      0.001005      0.000000
     55 O3    c       0.003653     -0.000695     -0.001236      0.000000
     56 O3    c      -0.000163      0.000976     -0.002524      0.000000
     57 O2    c      -0.000226     -0.000170      0.000107      0.000000
     58 O2    c      -0.000335      0.000184      0.000429      0.000000
     59 O3    c      -0.000300     -0.000174     -0.000556      0.000000
     60 O2    c      -0.000563      0.000351      0.000065      0.000000
     61 O3    c      -0.000307      0.000429     -0.000366      0.000000
     62 O2    c      -0.000344      0.000304      0.000548      0.000000
     63 O2    c      -0.000311     -0.000035      0.000341      0.000000
     64 O2    c       0.000355     -0.000007      0.000121      0.000000
     65 O2    c      -0.001115     -0.000091     -0.000256      0.000000
     66 O2    c       0.001792     -0.000072      0.000323      0.000000
     67 O2    c       0.001333      0.000116     -0.000212      0.000000
     68 O2    c      -0.001992     -0.000162      0.000350      0.000000
     69 O2    c       0.000245      0.000240      0.000196      0.000000
     70 O2    c      -0.001201     -0.000124      0.000811      0.000000
     71 O2    c      -0.000892      0.000180     -0.000317      0.000000
     72 O2    c       0.001534     -0.000077     -0.000589      0.000000
     73 O3    s       0.000457     -0.000449     -0.000144      0.000000
     74 O2    s       0.000727      0.000646     -0.000224      0.000000
     75 O3    s       0.001297      0.000356     -0.000007      0.000000
     76 O2    s      -0.002024     -0.000278      0.001428      0.000000
     77 O3    s       0.006621      0.000747     -0.001697      0.000000
     78 O2    s      -0.001607      0.000167      0.000475      0.000000
     79 O3    s      -0.002076      0.001116     -0.000124      0.000000
     80 O2    s      -0.000094      0.000635      0.001329      0.000000
     81 O3    s      -0.007150     -0.000195      0.006028      0.000000
     82 O2    s      -0.003442      0.000751     -0.000990      0.000000
     83 O3    s       0.003883      0.000365      0.002672      0.000000
     84 O2    s       0.005785      0.001480     -0.002902      0.000000
     85 O2    s       0.004208     -0.001074     -0.000235      0.000000
     86 O3    s       0.002569     -0.000075     -0.000455      0.000000
     87 O2    s      -0.004326     -0.000498      0.001319      0.000000
     88 O2    s       0.002828      0.000599     -0.000363      0.000000
     89 O3    s      -0.000891      0.000270      0.003352      0.000000
     90 O2    s      -0.000661      0.000125     -0.001122      0.000000
     91 O3    s       0.002976      0.000051      0.001188      0.000000
     92 O2    s      -0.001443      0.000146     -0.000607      0.000000
     93 O2    s      -0.003687     -0.001228     -0.000772      0.000000
     94 O2    s       0.003123      0.000576      0.000422      0.000000
     95 O3    s      -0.004820     -0.000964     -0.004569      0.000000
     96 O2    s      -0.002875     -0.000223      0.000943      0.000000
     97 O2    s       0.000755     -0.000300     -0.000055      0.000000
     98 O2    s       0.000399      0.000465     -0.000600      0.000000
     99 O1    s      -0.003061     -0.000667     -0.000011      0.000000
    100 O2    s       0.000541      0.000234      0.000290      0.000000
    101 O2    s      -0.000392      0.000031     -0.000390      0.000000
    102 O2    s      -0.000247     -0.000134     -0.000686      0.000000
    103 O3    s      -0.000704     -0.000106      0.000601      0.000000
    104 O3    s       0.000706     -0.000351      0.002369      0.000000
    105 O2    s       0.000120      0.000099      0.000454      0.000000
    106 O2    s       0.001716     -0.000195      0.000001      0.000000
    107 O3    s       0.001417      0.000122     -0.000276      0.000000
    108 O2    s      -0.000442     -0.000225     -0.000859      0.000000
    109 O3    s       0.000670     -0.000231     -0.000103      0.000000
    110 O2    s       0.000356      0.000340     -0.000273      0.000000
    111 O2    s       0.000617     -0.000108      0.000253      0.000000
    112 O2    s       0.000454      0.000124     -0.000543      0.000000
    113 O2    s      -0.001331     -0.000299      0.000213      0.000000
    114 O2    s       0.000342      0.000137     -0.000345      0.000000
    115 O2    s       0.001011     -0.000195      0.000378      0.000000
    116 O2    s       0.000828      0.000111     -0.000139      0.000000
    117 O2    s       0.000082     -0.000201     -0.000206      0.000000
    118 O2    s      -0.000473      0.000207     -0.001136      0.000000
    119 O2    s       0.000095     -0.000053      0.000231      0.000000
    120 O2    s      -0.000282      0.000049      0.000278      0.000000
--------------------------------------------------------------------------------
  Maximum abs         0.009955      0.003225      0.008051      0.000000
--------------------------------------------------------------------------------


  Born effective charge tensors : 

-------------------------------------------------------------------------------
  Atom             x           y             z
-------------------------------------------------------------------------------
    1 Ge    x       4.2665      0.1583     -0.3729
            y      -0.1260      3.8912      0.0246
            z      -0.3531     -0.1279      4.5620
-------------------------------------------------------------------------------
    2 Ge    x       4.2912      0.2629     -0.4013
            y      -0.1960      3.9089      0.0116
            z      -0.5242     -0.0887      3.8931
-------------------------------------------------------------------------------
    3 Ge    x       4.0123     -0.1890     -0.1030
            y      -0.3044      4.1886      0.1995
            z      -0.1892     -0.0197      3.4572
-------------------------------------------------------------------------------
    4 Ge    x       3.9987      0.3336     -0.1577
            y       0.1397      4.1973     -0.1935
            z      -0.1627      0.0013      3.4549
-------------------------------------------------------------------------------
    5 Si    x       3.4215      0.1242      0.0444
            y      -0.1144      3.2527      0.0296
            z       0.5830     -0.0048      3.6965
-------------------------------------------------------------------------------
    6 Si    x       4.0084     -0.2143     -0.1414
            y       0.1479      3.5849      0.0187
            z      -1.0040      0.1089      4.0549
-------------------------------------------------------------------------------
    7 Si    x       3.6513     -0.1164      0.2363
            y       0.1167      3.2762     -0.0135
            z       0.0378     -0.0048      4.0292
-------------------------------------------------------------------------------
    8 Si    x       3.6421     -0.2209     -0.0009
            y       0.1385      3.3109     -0.0322
            z      -0.4725      0.0073      3.2848
-------------------------------------------------------------------------------
    9 Si    x       3.6071     -0.1351      0.4346
            y       0.1500      3.2880     -0.0268
            z       0.5054     -0.0295      3.5197
-------------------------------------------------------------------------------
   10 Si    x       3.4681      0.1397      0.0297
            y      -0.1712      3.2654      0.0417
            z       0.5646      0.0575      2.9470
-------------------------------------------------------------------------------
   11 Si    x       3.4055      0.3247     -0.2615
            y       0.4163      3.5171     -0.3437
            z      -0.2430     -0.1835      3.0079
-------------------------------------------------------------------------------
   12 Si    x       3.1628      0.2185      0.0724
            y       0.2970      3.4457      0.1781
            z       0.1074      0.0656      2.7723
-------------------------------------------------------------------------------
   13 Si    x       3.4992     -0.0955     -0.0494
            y      -0.2151      3.5138     -0.1772
            z       0.0929     -0.1088      2.9165
-------------------------------------------------------------------------------
   14 Si    x       3.5507      0.2339     -0.0046
            y       0.1431      3.5255      0.1641
            z       0.0951      0.1125      2.9306
-------------------------------------------------------------------------------
   15 Si    x       3.3434     -0.4323     -0.2612
            y      -0.3215      3.6267      0.3319
            z      -0.2406      0.2220      2.9907
-------------------------------------------------------------------------------
   16 Si    x       3.1894     -0.2989      0.1373
            y      -0.1954      3.4690     -0.1737
            z       0.1043     -0.0457      2.7539
-------------------------------------------------------------------------------
   17 Si    x       3.1996      0.3565     -0.1158
            y       0.0790      3.4352     -0.1504
            z      -0.1339     -0.0695      2.7189
-------------------------------------------------------------------------------
   18 Si    x       3.3166      0.3687      0.1234
            y       0.1202      3.5566      0.1108
            z       0.1161     -0.0700      2.9713
-------------------------------------------------------------------------------
   19 Si    x       3.3081     -0.4595     -0.3260
            y      -0.1903      3.6351      0.3857
            z      -0.1892      0.2477      2.9450
-------------------------------------------------------------------------------
   20 Si    x       3.2243     -0.3288      0.1511
            y      -0.1251      3.4493     -0.1778
            z       0.1163     -0.0414      2.6589
-------------------------------------------------------------------------------
   21 Si    x       3.4856      0.3597     -0.3296
            y       0.4001      3.5088     -0.3465
            z      -0.3180     -0.1637      2.9210
-------------------------------------------------------------------------------
   22 Si    x       3.2288      0.2558      0.1428
            y       0.2766      3.4080      0.1746
            z       0.1360      0.0441      2.6581
-------------------------------------------------------------------------------
   23 Si    x       3.2458     -0.2741     -0.0720
            y      -0.2512      3.4008      0.1583
            z      -0.1622      0.0585      2.7018
-------------------------------------------------------------------------------
   24 Si    x       3.3524     -0.3063      0.0574
            y      -0.2739      3.5208     -0.1270
            z       0.1215      0.0614      2.9763
-------------------------------------------------------------------------------
   25 O3    x      -1.9958     -0.9119      0.5525
            y      -0.8912     -2.3307      0.5356
            z       0.5642      0.5302     -1.6723
-------------------------------------------------------------------------------
   26 O2    x      -1.6585     -0.7184     -0.2880
            y      -0.6753     -2.0185     -0.3142
            z      -0.3544     -0.3009     -1.3210
-------------------------------------------------------------------------------
   27 O3    x      -1.9499      0.8555      0.2968
            y       0.8499     -2.3861     -0.2914
            z       0.4324     -0.2712     -1.5483
-------------------------------------------------------------------------------
   28 O2    x      -1.6359      0.6729     -0.3571
            y       0.6171     -2.0125      0.3832
            z      -0.3536      0.3836     -1.3819
-------------------------------------------------------------------------------
   29 O3    x      -2.2448     -0.8976      0.2752
            y      -0.9716     -2.1462      0.3324
            z       0.3652      0.2756     -1.5556
-------------------------------------------------------------------------------
   30 O2    x      -1.7426     -0.7215     -0.3836
            y      -0.7414     -1.9697     -0.3711
            z      -0.3941     -0.3814     -1.3719
-------------------------------------------------------------------------------
   31 O3    x      -2.0892      0.9433      0.5585
            y       1.0184     -2.3443     -0.6062
            z       0.5823     -0.5679     -1.6485
-------------------------------------------------------------------------------
   32 O2    x      -1.7664      0.7275     -0.2703
            y       0.7610     -1.9372      0.2908
            z      -0.3382      0.2809     -1.3282
-------------------------------------------------------------------------------
   33 O3    x      -2.0587      0.0556      1.0528
            y       0.0566     -1.1983     -0.0426
            z       1.3871     -0.0243     -3.2396
-------------------------------------------------------------------------------
   34 O2    x      -1.5758     -0.0058     -0.7834
            y      -0.0094     -1.0952     -0.0097
            z      -0.9365      0.0020     -2.7434
-------------------------------------------------------------------------------
   35 O3    x      -2.0837      0.0003     -0.9445
            y      -0.0292     -1.2149      0.0019
            z      -0.9799      0.0184     -2.7827
-------------------------------------------------------------------------------
   36 O2    x      -1.7423      0.0186      0.7577
            y       0.0003     -1.1419      0.0027
            z       0.7164     -0.0105     -2.1738
-------------------------------------------------------------------------------
   37 O2    x      -1.6619     -0.0109     -0.6635
            y      -0.0006     -1.1676      0.0199
            z      -0.6057      0.0182     -2.2206
-------------------------------------------------------------------------------
   38 O3    x      -2.1860      0.0123      0.9264
            y       0.0535     -1.2355     -0.0029
            z       0.9694      0.0463     -2.6483
-------------------------------------------------------------------------------
   39 O2    x      -1.7555     -0.7076      0.2927
            y      -0.6760     -1.9273      0.3304
            z       0.3339      0.3098     -1.2248
-------------------------------------------------------------------------------
   40 O2    x      -1.7443     -0.7100     -0.3423
            y      -0.6539     -1.9201     -0.3577
            z      -0.3234     -0.3296     -1.2746
-------------------------------------------------------------------------------
   41 O3    x      -2.0432      0.9102      0.5850
            y       0.8886     -2.3168     -0.6640
            z       0.5197     -0.5884     -1.6035
-------------------------------------------------------------------------------
   42 O2    x      -1.7859      0.7266     -0.2466
            y       0.7169     -1.9205      0.2803
            z      -0.3169      0.2720     -1.2018
-------------------------------------------------------------------------------
   43 O3    x      -2.0017     -0.9140      0.5962
            y      -0.8097     -2.3761      0.5855
            z       0.5780      0.5548     -1.5713
-------------------------------------------------------------------------------
   44 O2    x      -1.6768     -0.7037     -0.3003
            y      -0.6087     -2.0262     -0.3194
            z      -0.3405     -0.2962     -1.1942
-------------------------------------------------------------------------------
   45 O2    x      -1.6599      0.6858      0.3010
            y       0.5874     -2.0318     -0.3173
            z       0.3667     -0.3190     -1.2097
-------------------------------------------------------------------------------
   46 O2    x      -1.6549      0.6820     -0.3517
            y       0.5598     -2.0258      0.3803
            z      -0.3417      0.3532     -1.2653
-------------------------------------------------------------------------------
   47 O3    x      -2.1818     -0.0055     -0.8523
            y      -0.0085     -1.3190      0.0295
            z      -0.5318      0.0298     -2.1128
-------------------------------------------------------------------------------
   48 O2    x      -1.8434      0.0295      0.6166
            y       0.0266     -1.1947      0.0003
            z       0.3236     -0.0074     -1.6733
-------------------------------------------------------------------------------
   49 O2    x      -1.1772     -0.0623      0.0698
            y      -0.1118     -2.4714      0.0335
            z       0.0789      0.0093     -1.0935
-------------------------------------------------------------------------------
   50 O2    x      -1.1622     -0.0624     -0.0585
            y      -0.1166     -2.5703      0.0284
            z      -0.0696      0.0233     -1.0460
-------------------------------------------------------------------------------
   51 O1    x      -1.4347      0.0959      0.0877
            y       0.1650     -3.3652     -0.0280
            z       0.1096     -0.0181     -1.2699
-------------------------------------------------------------------------------
   52 O2    x      -1.1496      0.0651     -0.0536
            y       0.1274     -2.5822     -0.0132
            z      -0.0755     -0.0177     -1.1078
-------------------------------------------------------------------------------
   53 O2    x      -2.3696      0.1284      0.0590
            y       0.0793     -1.2589      0.0711
            z       0.0573      0.0395     -1.0769
-------------------------------------------------------------------------------
   54 O2    x      -2.3388      0.0911      0.0518
            y       0.0370     -1.2574     -0.0776
            z       0.0327     -0.0550     -1.0773
-------------------------------------------------------------------------------
   55 O3    x      -3.0328     -0.0810      0.1022
            y       0.0197     -1.3654     -0.0916
            z       0.1098     -0.0543     -1.2624
-------------------------------------------------------------------------------
   56 O3    x      -2.9794     -0.2516      0.0756
            y      -0.2145     -1.4043      0.1060
            z       0.0773      0.0727     -1.2511
-------------------------------------------------------------------------------
   57 O2    x      -1.2283     -0.1402     -0.0982
            y      -0.1407     -1.2882     -0.0175
            z      -0.1147     -0.0165     -2.0133
-------------------------------------------------------------------------------
   58 O2    x      -1.2128     -0.1313     -0.0361
            y      -0.1329     -1.2899     -0.0277
            z      -0.0315     -0.0380     -2.0359
-------------------------------------------------------------------------------
   59 O3    x      -1.3670      0.1620      0.0497
            y       0.1450     -1.4391     -0.1337
            z       0.0175     -0.0815     -2.5806
-------------------------------------------------------------------------------
   60 O2    x      -1.1866      0.1067     -0.0215
            y       0.1060     -1.2777      0.0217
            z      -0.0059      0.0108     -2.1064
-------------------------------------------------------------------------------
   61 O3    x      -1.3375     -0.1567      0.0216
            y      -0.0973     -1.4707      0.1884
            z       0.0122      0.1281     -2.5577
-------------------------------------------------------------------------------
   62 O2    x      -1.1668     -0.1080     -0.0344
            y      -0.0580     -1.2902     -0.0224
            z      -0.0223      0.0020     -2.1126
-------------------------------------------------------------------------------
   63 O2    x      -1.1891      0.1319     -0.1040
            y       0.0907     -1.3067     -0.0175
            z      -0.0856     -0.0025     -2.0109
-------------------------------------------------------------------------------
   64 O2    x      -1.1924      0.1375     -0.0663
            y       0.0976     -1.3090      0.0019
            z      -0.0680     -0.0099     -2.0172
-------------------------------------------------------------------------------
   65 O2    x      -1.2416      0.0620      0.0724
            y       0.1323     -2.4788     -0.0104
            z       0.1070     -0.0053     -1.0186
-------------------------------------------------------------------------------
   66 O2    x      -1.2814      0.0675     -0.0446
            y       0.1351     -2.5615     -0.0191
            z      -0.0776     -0.0158     -0.9885
-------------------------------------------------------------------------------
   67 O2    x      -1.2384     -0.0687      0.1016
            y      -0.1290     -2.4289      0.0268
            z       0.1070      0.0199     -1.0528
-------------------------------------------------------------------------------
   68 O2    x      -1.2341     -0.0751     -0.0783
            y      -0.1541     -2.5088      0.0443
            z      -0.0905      0.0207     -0.9958
-------------------------------------------------------------------------------
   69 O2    x      -2.4227     -0.1046     -0.0334
            y      -0.0412     -1.2483      0.0579
            z      -0.0458      0.0215     -1.0409
-------------------------------------------------------------------------------
   70 O2    x      -2.4239     -0.1177     -0.0413
            y      -0.0846     -1.2489     -0.0629
            z      -0.0370     -0.0274     -1.0448
-------------------------------------------------------------------------------
   71 O2    x      -2.3816      0.0982      0.0562
            y       0.0551     -1.2488     -0.0702
            z       0.0496     -0.0426     -1.0369
-------------------------------------------------------------------------------
   72 O2    x      -2.3920      0.1344      0.0623
            y       0.0891     -1.2489      0.0687
            z       0.0547      0.0304     -1.0570
-------------------------------------------------------------------------------




  Elastic Constant Matrix: (Units=GPa)

-------------------------------------------------------------------------------
  Indices      1         2         3         4         5         6    
-------------------------------------------------------------------------------
       1     44.1643   17.6507   22.0731   -0.3774    1.9243    1.4616
       2     17.6507   59.9440   20.4955   -0.3229    4.2729    0.9297
       3     22.0731   20.4955   25.0690    0.2270   -0.9892    0.7792
       4     -0.3774   -0.3229    0.2270   10.5724    0.0392    0.4518
       5      1.9243    4.2729   -0.9892    0.0392   21.8208   -0.8909
       6      1.4616    0.9297    0.7792    0.4518   -0.8909   23.0366
-------------------------------------------------------------------------------


  Elastic Compliance Matrix: (Units=1/GPa)

-------------------------------------------------------------------------------
  Indices      1         2         3         4         5         6    
-------------------------------------------------------------------------------
       1    0.041198  0.001077 -0.037346  0.002397 -0.005609 -0.001658
       2    0.001077  0.023858 -0.020673  0.001257 -0.005730 -0.000578
       3   -0.037346 -0.020673  0.090141 -0.003971  0.011463  0.000676
       4    0.002397  0.001257 -0.003971  0.094882 -0.000888 -0.001964
       5   -0.005609 -0.005730  0.011463 -0.000888  0.048050  0.002075
       6   -0.001658 -0.000578  0.000676 -0.001964  0.002075  0.043634
-------------------------------------------------------------------------------

  Mechanical properties :

-------------------------------------------------------------------------------
  Convention :                    Reuss         Voigt         Hill
-------------------------------------------------------------------------------
  Bulk  Modulus (GPa)     =      24.20573      27.73510      25.97041
  Shear Modulus (GPa)     =      10.65151      15.68317      13.16734
-------------------------------------------------------------------------------
  Velocity S-wave (km/s)  =       2.30877       2.80151       2.56699
  Velocity P-wave (km/s)  =       4.38415       4.93400       4.66718
-------------------------------------------------------------------------------
  Compressibility (1/GPa) =    0.04131254
-------------------------------------------------------------------------------
  Stress axis :                     x             y             z
-------------------------------------------------------------------------------
  Youngs Moduli (GPa)     =      24.27330      41.91543      11.09372
-------------------------------------------------------------------------------
  Poissons Ratio (x)      =                    -0.04513       0.41431
  Poissons Ratio (y)      =      -0.02614                     0.22934
  Poissons Ratio (z)      =       0.90651       0.86650
-------------------------------------------------------------------------------


  Piezoelectric Strain Matrix: (Units=C/m**2)

-------------------------------------------------------------------------------
  Indices      1         2         3         4         5         6    
-------------------------------------------------------------------------------
       x    -0.56362  -0.68118   0.24982  -0.14750  -0.15139  -0.17769
       y    -0.32809  -0.63488  -0.33076   0.05616  -0.23622  -0.16143
       z     0.27462   0.38564   0.10060  -0.11627   0.02632   0.03682
-------------------------------------------------------------------------------


  Piezoelectric Stress Matrix: (Units=10**-11 C/N)

-------------------------------------------------------------------------------
  Indices      1         2         3         4         5         6    
-------------------------------------------------------------------------------
       x    -3.24927  -2.12379   5.63799  -1.67104   0.24159  -0.62805
       y    -0.01203  -0.71449  -0.74776   0.55849  -1.00486  -0.69569
       z     0.74847   0.70983  -0.83719  -1.03839  -0.11525   0.12792
-------------------------------------------------------------------------------


  Static dielectric constant tensor : 

-------------------------------------------------------------------------------
              x         y         z
-------------------------------------------------------------------------------
       x     4.13424  -0.01875  -0.19535
       y    -0.01875   4.21051   0.04587
       z    -0.19535   0.04587   3.41066
--------------------------------------------------------------------------------

  High frequency dielectric constant tensor : 

-------------------------------------------------------------------------------
              x         y         z
-------------------------------------------------------------------------------
       x     1.66854   0.00013  -0.00020
       y     0.00013   1.67561   0.00041
       z    -0.00020   0.00041   1.60830
-------------------------------------------------------------------------------

  Static refractive indices : 

-------------------------------------------------------------------------------
    1 =    1.83287      2 =    2.04090      3 =    2.05687
-------------------------------------------------------------------------------

  High frequency refractive indices : 

-------------------------------------------------------------------------------
    1 =    1.26819      2 =    1.29172      3 =    1.29446
-------------------------------------------------------------------------------


  Time to end of optimisation =      12.6550 seconds


  Peak dynamic memory used =       5.01 MB 


  Timing analysis for GULP :

--------------------------------------------------------------------------------
  Task / Subroutine                                          Time (Seconds)
--------------------------------------------------------------------------------
  Calculation of reciprocal space energy and derivatives          0.7763
  Calculation of real space energy and derivatives                7.7828
  Calculation of three-body energy and derivatives                0.6533
  Calculation and manipulation of Hessian matrix                  3.8133
  Calculation of matrix inversion                                 0.0353
  Global summation overhead                                       0.0002
--------------------------------------------------------------------------------
  Total CPU time                                                 12.6550
--------------------------------------------------------------------------------


  Dump file written as c00391.vasp.grs
  CIF file written as c00391.vasp.cif


  Job Finished at 12:57.59 31st October    2025                               

