********************************************************************************
*                       GENERAL UTILITY LATTICE PROGRAM                        *
*                                 Julian Gale                                  *
*                       Curtin Institute for Computation                       *
*                    School of Molecular and Life Sciences                     *
*                    Curtin University, Western Australia                      *
********************************************************************************
* Version = 6.1.2 * Last modified =   3rd November 2022                        *
********************************************************************************
*  optimise     - perform optimisation run                                     *
*  conp         - constant pressure calculation                                *
*  property     - calculate properties for final geometry                      *
********************************************************************************

  Job Started  at 12:56.18 31st October    2025                               

  Number of CPUs =     1


  Total number of configurations input =      1

********************************************************************************
*  Input for Configuration =   1 : c00383.vasp                                 *
********************************************************************************

  Formula = Ge4Si20O48                                                  

  Number of irreducible atoms/shells =     120


  Total number atoms/shells =     120

  Dimensionality = 3               :  Bulk   



  Cartesian lattice vectors (Angstroms) :

       17.182800    0.000000    0.000000
        0.000000    7.513760    0.000000
        0.000000    0.000000   10.447700

  Cell parameters (Angstroms/Degrees):

  a =      17.1828    alpha =  90.0000
  b =       7.5138    beta  =  90.0000
  c =      10.4477    gamma =  90.0000

  Initial cell volume =        1348.875752 Angs**3

  Temperature of configuration =   0.00     K 

  Pressure of configuration =         0.000 GPa 

  Fractional coordinates of asymmetric unit :

--------------------------------------------------------------------------------
   No.  Atomic       x           y          z         Charge      Occupancy
        Label      (Frac)      (Frac)     (Frac)        (e)         (Frac)  
--------------------------------------------------------------------------------
      1 Ge    c    0.052090    0.000000    0.372270     4.00000    1.000000    
      2 Ge    c    0.443270 *  0.000000 *  0.877870 *   4.00000    1.000000    
      3 Ge    c    0.339810 *  0.706090 *  0.273440 *   4.00000    1.000000    
      4 Ge    c    0.839340 *  0.705910 *  0.017440 *   4.00000    1.000000    
      5 Si    c    0.447910 *  0.000000 *  0.372270 *   4.00000    1.000000    
      6 Si    c    0.947910 *  0.000000 *  0.627730 *   4.00000    1.000000    
      7 Si    c    0.552090 *  0.000000 *  0.627730 *   4.00000    1.000000    
      8 Si    c    0.556730 *  0.000000 *  0.122130 *   4.00000    1.000000    
      9 Si    c    0.943270 *  0.000000 *  0.122130 *   4.00000    1.000000    
     10 Si    c    0.056730 *  0.000000 *  0.877870 *   4.00000    1.000000    
     11 Si    c    0.160190 *  0.293910 *  0.273440 *   4.00000    1.000000    
     12 Si    c    0.839810 *  0.293910 *  0.726560 *   4.00000    1.000000    
     13 Si    c    0.660190 *  0.706090 *  0.726560 *   4.00000    1.000000    
     14 Si    c    0.839810 *  0.706090 *  0.726560 *   4.00000    1.000000    
     15 Si    c    0.660190 *  0.293910 *  0.726560 *   4.00000    1.000000    
     16 Si    c    0.160190 *  0.706090 *  0.273440 *   4.00000    1.000000    
     17 Si    c    0.339810 *  0.293910 *  0.273440 *   4.00000    1.000000    
     18 Si    c    0.660660 *  0.294090 *  0.017440 *   4.00000    1.000000    
     19 Si    c    0.339340 *  0.294090 *  0.982560 *   4.00000    1.000000    
     20 Si    c    0.160660 *  0.705910 *  0.982560 *   4.00000    1.000000    
     21 Si    c    0.339340 *  0.705910 *  0.982560 *   4.00000    1.000000    
     22 Si    c    0.160660 *  0.294090 *  0.982560 *   4.00000    1.000000    
     23 Si    c    0.660660 *  0.705910 *  0.017440 *   4.00000    1.000000    
     24 Si    c    0.839340 *  0.294090 *  0.017440 *   4.00000    1.000000    
     25 O3    c    0.106570 *  0.174340 *  0.366200 *   1.33043    1.000000    
     26 O3    c    0.393430 *  0.825660 *  0.366200 *   1.33043    1.000000    
     27 O2    c    0.893430 *  0.174340 *  0.633800 *   0.87073    1.000000    
     28 O2    c    0.606570 *  0.825660 *  0.633800 *   0.87073    1.000000    
     29 O2    c    0.893430 *  0.825660 *  0.633800 *   0.87073    1.000000    
     30 O2    c    0.606570 *  0.174340 *  0.633800 *   0.87073    1.000000    
     31 O3    c    0.106570 *  0.825660 *  0.366200 *   1.33043    1.000000    
     32 O2    c    0.393430 *  0.174340 *  0.366200 *   0.87073    1.000000    
     33 O3    c    0.000000 *  0.000000 *  0.500000 *   1.33043    1.000000    
     34 O2    c    0.500000 *  0.000000 *  0.500000 *   0.87073    1.000000    
     35 O3    c    0.994520 *  0.000000 *  0.250840 *   1.33043    1.000000    
     36 O2    c    0.505480 *  0.000000 *  0.250840 *   0.87073    1.000000    
     37 O2    c    0.005480 *  0.000000 *  0.749160 *   0.87073    1.000000    
     38 O3    c    0.494520 *  0.000000 *  0.749160 *   1.33043    1.000000    
     39 O2    c    0.610230 *  0.175520 *  0.115390 *   0.87073    1.000000    
     40 O3    c    0.889770 *  0.824480 *  0.115390 *   1.33043    1.000000    
     41 O3    c    0.389770 *  0.175520 *  0.884610 *   1.33043    1.000000    
     42 O2    c    0.110230 *  0.824480 *  0.884610 *   0.87073    1.000000    
     43 O3    c    0.389770 *  0.824480 *  0.884610 *   1.33043    1.000000    
     44 O2    c    0.110230 *  0.175520 *  0.884610 *   0.87073    1.000000    
     45 O2    c    0.610230 *  0.824480 *  0.115390 *   0.87073    1.000000    
     46 O2    c    0.889770 *  0.175520 *  0.115390 *   0.87073    1.000000    
     47 O3    c    0.500000 *  0.000000 *  0.000000 *   1.33043    1.000000    
     48 O2    c    0.000000 *  0.000000 *  0.000000 *   0.87073    1.000000    
     49 O2    c    0.151750 *  0.500000 *  0.313330 *   0.87073    1.000000    
     50 O3    c    0.348250 *  0.500000 *  0.313330 *   1.33043    1.000000    
     51 O2    c    0.848250 *  0.500000 *  0.686670 *   0.87073    1.000000    
     52 O2    c    0.651750 *  0.500000 *  0.686670 *   0.87073    1.000000    
     53 O2    c    0.250000 *  0.234950 *  0.285720 *   0.87073    1.000000    
     54 O3    c    0.250000 *  0.765050 *  0.285720 *   1.33043    1.000000    
     55 O2    c    0.750000 *  0.234950 *  0.714280 *   0.87073    1.000000    
     56 O2    c    0.750000 *  0.765050 *  0.714280 *   0.87073    1.000000    
     57 O2    c    0.131410 *  0.268650 *  0.127790 *   0.87073    1.000000    
     58 O3    c    0.368590 *  0.731350 *  0.127790 *   1.33043    1.000000    
     59 O2    c    0.868590 *  0.268650 *  0.872210 *   0.87073    1.000000    
     60 O2    c    0.631410 *  0.731350 *  0.872210 *   0.87073    1.000000    
     61 O3    c    0.868590 *  0.731350 *  0.872210 *   1.33043    1.000000    
     62 O2    c    0.631410 *  0.268650 *  0.872210 *   0.87073    1.000000    
     63 O2    c    0.131410 *  0.731350 *  0.127790 *   0.87073    1.000000    
     64 O2    c    0.368590 *  0.268650 *  0.127790 *   0.87073    1.000000    
     65 O2    c    0.653920 *  0.500000 *  0.058200 *   0.87073    1.000000    
     66 O3    c    0.846080 *  0.500000 *  0.058200 *   1.33043    1.000000    
     67 O2    c    0.346080 *  0.500000 *  0.941800 *   0.87073    1.000000    
     68 O2    c    0.153920 *  0.500000 *  0.941800 *   0.87073    1.000000    
     69 O2    c    0.750000 *  0.231060 *  0.027050 *   0.87073    1.000000    
     70 O3    c    0.750000 *  0.768940 *  0.027050 *   1.33043    1.000000    
     71 O2    c    0.250000 *  0.231060 *  0.972950 *   0.87073    1.000000    
     72 O2    c    0.250000 *  0.768940 *  0.972950 *   0.87073    1.000000    
     73 O3    s    0.106570 *  0.174340 *  0.366200 *  -3.33043    1.000000    
     74 O3    s    0.393430 *  0.825660 *  0.366200 *  -3.33043    1.000000    
     75 O2    s    0.893430 *  0.174340 *  0.633800 *  -2.87073    1.000000    
     76 O2    s    0.606570 *  0.825660 *  0.633800 *  -2.87073    1.000000    
     77 O2    s    0.893430 *  0.825660 *  0.633800 *  -2.87073    1.000000    
     78 O2    s    0.606570 *  0.174340 *  0.633800 *  -2.87073    1.000000    
     79 O3    s    0.106570 *  0.825660 *  0.366200 *  -3.33043    1.000000    
     80 O2    s    0.393430 *  0.174340 *  0.366200 *  -2.87073    1.000000    
     81 O3    s    0.000000 *  0.000000 *  0.500000 *  -3.33043    1.000000    
     82 O2    s    0.500000 *  0.000000 *  0.500000 *  -2.87073    1.000000    
     83 O3    s    0.994520 *  0.000000 *  0.250840 *  -3.33043    1.000000    
     84 O2    s    0.505480 *  0.000000 *  0.250840 *  -2.87073    1.000000    
     85 O2    s    0.005480 *  0.000000 *  0.749160 *  -2.87073    1.000000    
     86 O3    s    0.494520 *  0.000000 *  0.749160 *  -3.33043    1.000000    
     87 O2    s    0.610230 *  0.175520 *  0.115390 *  -2.87073    1.000000    
     88 O3    s    0.889770 *  0.824480 *  0.115390 *  -3.33043    1.000000    
     89 O3    s    0.389770 *  0.175520 *  0.884610 *  -3.33043    1.000000    
     90 O2    s    0.110230 *  0.824480 *  0.884610 *  -2.87073    1.000000    
     91 O3    s    0.389770 *  0.824480 *  0.884610 *  -3.33043    1.000000    
     92 O2    s    0.110230 *  0.175520 *  0.884610 *  -2.87073    1.000000    
     93 O2    s    0.610230 *  0.824480 *  0.115390 *  -2.87073    1.000000    
     94 O2    s    0.889770 *  0.175520 *  0.115390 *  -2.87073    1.000000    
     95 O3    s    0.500000 *  0.000000 *  0.000000 *  -3.33043    1.000000    
     96 O2    s    0.000000 *  0.000000 *  0.000000 *  -2.87073    1.000000    
     97 O2    s    0.151750 *  0.500000 *  0.313330 *  -2.87073    1.000000    
     98 O3    s    0.348250 *  0.500000 *  0.313330 *  -3.33043    1.000000    
     99 O2    s    0.848250 *  0.500000 *  0.686670 *  -2.87073    1.000000    
    100 O2    s    0.651750 *  0.500000 *  0.686670 *  -2.87073    1.000000    
    101 O2    s    0.250000 *  0.234950 *  0.285720 *  -2.87073    1.000000    
    102 O3    s    0.250000 *  0.765050 *  0.285720 *  -3.33043    1.000000    
    103 O2    s    0.750000 *  0.234950 *  0.714280 *  -2.87073    1.000000    
    104 O2    s    0.750000 *  0.765050 *  0.714280 *  -2.87073    1.000000    
    105 O2    s    0.131410 *  0.268650 *  0.127790 *  -2.87073    1.000000    
    106 O3    s    0.368590 *  0.731350 *  0.127790 *  -3.33043    1.000000    
    107 O2    s    0.868590 *  0.268650 *  0.872210 *  -2.87073    1.000000    
    108 O2    s    0.631410 *  0.731350 *  0.872210 *  -2.87073    1.000000    
    109 O3    s    0.868590 *  0.731350 *  0.872210 *  -3.33043    1.000000    
    110 O2    s    0.631410 *  0.268650 *  0.872210 *  -2.87073    1.000000    
    111 O2    s    0.131410 *  0.731350 *  0.127790 *  -2.87073    1.000000    
    112 O2    s    0.368590 *  0.268650 *  0.127790 *  -2.87073    1.000000    
    113 O2    s    0.653920 *  0.500000 *  0.058200 *  -2.87073    1.000000    
    114 O3    s    0.846080 *  0.500000 *  0.058200 *  -3.33043    1.000000    
    115 O2    s    0.346080 *  0.500000 *  0.941800 *  -2.87073    1.000000    
    116 O2    s    0.153920 *  0.500000 *  0.941800 *  -2.87073    1.000000    
    117 O2    s    0.750000 *  0.231060 *  0.027050 *  -2.87073    1.000000    
    118 O3    s    0.750000 *  0.768940 *  0.027050 *  -3.33043    1.000000    
    119 O2    s    0.250000 *  0.231060 *  0.972950 *  -2.87073    1.000000    
    120 O2    s    0.250000 *  0.768940 *  0.972950 *  -2.87073    1.000000    
--------------------------------------------------------------------------------



********************************************************************************
*  General input information                                                   *
********************************************************************************

  Species output for all configurations : 

--------------------------------------------------------------------------------
  Species    Type    Atomic    Atomic    Charge       Radii (Angs)     Library
                     Number     Mass       (e)     Cova   Ionic  VDW   Symbol
--------------------------------------------------------------------------------
    Ge       Core       32      72.61   4.000000   1.170  0.000  1.750 Ge       
    Si       Core       14      28.09   4.000000   1.200  0.000  2.100 Si       
    O1       Core        8      16.00   1.733957   0.730  0.000  0.000 O1       
    O2       Core        8      16.00   0.870733   0.730  0.000  1.360 O2       
    O3       Core        8      16.00   1.330431   0.730  0.000  1.360 O3       
    O1       Shell       8       0.00  -3.733957   0.730  0.000  0.000 O1       
    O2       Shell       8       0.00  -2.870733   0.730  0.000  0.000 O2       
    O3       Shell       8       0.00  -3.330431   0.730  0.000  0.000 O3       
--------------------------------------------------------------------------------


  Lattice summation method               =    Ewald          (3-D)
                                         =    Parry          (2-D)
                                         =    Saunders et al (1-D)
  Accuracy factor for lattice sums       =   12.000


  Analytic derivatives to be used

  Time limit = Infinity

  Maximum range for interatomic potentials =    100000.000000 Angstroms

  General interatomic potentials :

--------------------------------------------------------------------------------
Atom  Types   Potential      Parameter       Value         Units   Cutoffs(Ang)
  1     2                                                            Min /  Max 
--------------------------------------------------------------------------------
Si   c O1   s Buckingham    Buckingham A     1315.2478    eV        0.000 16.000
                            Buckingham rho  0.31775900    Ang       
                            Buckingham C     10.141118    eV*Ang^6  
--------------------------------------------------------------------------------
Si   c O2   s Buckingham    Buckingham A     1315.2478    eV        0.000 16.000
                            Buckingham rho  0.31775900    Ang       
                            Buckingham C     10.141118    eV*Ang^6  
--------------------------------------------------------------------------------
Si   c O3   s Buckingham    Buckingham A     1315.2478    eV        0.000 16.000
                            Buckingham rho  0.31775900    Ang       
                            Buckingham C     10.141118    eV*Ang^6  
--------------------------------------------------------------------------------
Ge   c O1   s Buckingham    Buckingham A     1497.3996    eV        0.000 16.000
                            Buckingham rho  0.32564600    Ang       
                            Buckingham C     16.808599    eV*Ang^6  
--------------------------------------------------------------------------------
Ge   c O2   s Buckingham    Buckingham A     1497.3996    eV        0.000 16.000
                            Buckingham rho  0.32564600    Ang       
                            Buckingham C     16.808599    eV*Ang^6  
--------------------------------------------------------------------------------
Ge   c O3   s Buckingham    Buckingham A     1497.3996    eV        0.000 16.000
                            Buckingham rho  0.32564600    Ang       
                            Buckingham C     16.808599    eV*Ang^6  
--------------------------------------------------------------------------------
O1   s O1   s Buckingham    Buckingham A     22764.000    eV        0.000 16.000
                            Buckingham rho  0.14900000    Ang       
                            Buckingham C     10.937044    eV*Ang^6  
--------------------------------------------------------------------------------
O1   s O2   s Buckingham    Buckingham A     22764.000    eV        0.000 16.000
                            Buckingham rho  0.14900000    Ang       
                            Buckingham C     10.937044    eV*Ang^6  
--------------------------------------------------------------------------------
O1   s O3   s Buckingham    Buckingham A     22764.000    eV        0.000 16.000
                            Buckingham rho  0.14900000    Ang       
                            Buckingham C     10.937044    eV*Ang^6  
--------------------------------------------------------------------------------
O2   s O2   s Buckingham    Buckingham A     22764.000    eV        0.000 16.000
                            Buckingham rho  0.14900000    Ang       
                            Buckingham C     10.937044    eV*Ang^6  
--------------------------------------------------------------------------------
O2   s O3   s Buckingham    Buckingham A     22764.000    eV        0.000 16.000
                            Buckingham rho  0.14900000    Ang       
                            Buckingham C     10.937044    eV*Ang^6  
--------------------------------------------------------------------------------
O3   s O3   s Buckingham    Buckingham A     22764.000    eV        0.000 16.000
                            Buckingham rho  0.14900000    Ang       
                            Buckingham C     10.937044    eV*Ang^6  
--------------------------------------------------------------------------------
O1   c O1   s Spring (c-s)  Spring k 2       180.31577    eV*Ang^-2 0.000  0.800
                            Spring k 4       0.0000000    eV*Ang^-4 
--------------------------------------------------------------------------------
O2   c O2   s Spring (c-s)  Spring k 2       75.969800    eV*Ang^-2 0.000  0.800
                            Spring k 4       0.0000000    eV*Ang^-4 
--------------------------------------------------------------------------------
O3   c O3   s Spring (c-s)  Spring k 2       128.14270    eV*Ang^-2 0.000  0.800
                            Spring k 4       0.0000000    eV*Ang^-4 
--------------------------------------------------------------------------------

  General Three-body potentials :

--------------------------------------------------------------------------------
  Atoms       Potential      Parameter       Value         Units   Cutoffs(Ang)
  1 / 2 / 3                                                          Min /  Max 
--------------------------------------------------------------------------------
Si    core    Harmonic      Three-body cnst  1.2614000    eV*rad^-2 0.000  1.900
O1    shel                  Three-body angl  109.47000    degrees   0.000  1.900
O1    shel                  Three-body k4    0.0000000    eV*rad^-4 0.000  3.500
                            Three-body k3    0.0000000    eV*rad^-3 
--------------------------------------------------------------------------------
Si    core    Harmonic      Three-body cnst  1.2614000    eV*rad^-2 0.000  1.900
O1    shel                  Three-body angl  109.47000    degrees   0.000  1.900
õ(1   shel                  Three-body k4    0.0000000    eV*rad^-4 0.000  3.500
                            Three-body k3    0.0000000    eV*rad^-3 
--------------------------------------------------------------------------------
Si    core    Harmonic      Three-body cnst  1.2614000    eV*rad^-2 0.000  1.900
õ(1   shel                  Three-body angl  109.47000    degrees   0.000  1.900
õ(1   shel                  Three-body k4    0.0000000    eV*rad^-4 0.000  3.500
                            Three-body k3    0.0000000    eV*rad^-3 
--------------------------------------------------------------------------------
Si    core    Harmonic      Three-body cnst  1.2614000    eV*rad^-2 0.000  1.900
O1    shel                  Three-body angl  109.47000    degrees   0.000  1.900
O2    shel                  Three-body k4    0.0000000    eV*rad^-4 0.000  3.500
                            Three-body k3    0.0000000    eV*rad^-3 
--------------------------------------------------------------------------------
Si    core    Harmonic      Three-body cnst  1.2614000    eV*rad^-2 0.000  1.900
O1    shel                  Three-body angl  109.47000    degrees   0.000  1.900
õ(2   shel                  Three-body k4    0.0000000    eV*rad^-4 0.000  3.500
                            Three-body k3    0.0000000    eV*rad^-3 
--------------------------------------------------------------------------------
Si    core    Harmonic      Three-body cnst  1.2614000    eV*rad^-2 0.000  1.900
O2    shel                  Three-body angl  109.47000    degrees   0.000  1.900
õ(1   shel                  Three-body k4    0.0000000    eV*rad^-4 0.000  3.500
                            Three-body k3    0.0000000    eV*rad^-3 
--------------------------------------------------------------------------------
Si    core    Harmonic      Three-body cnst  1.2614000    eV*rad^-2 0.000  1.900
õ(1   shel                  Three-body angl  109.47000    degrees   0.000  1.900
õ(2   shel                  Three-body k4    0.0000000    eV*rad^-4 0.000  3.500
                            Three-body k3    0.0000000    eV*rad^-3 
--------------------------------------------------------------------------------
Si    core    Harmonic      Three-body cnst  1.2614000    eV*rad^-2 0.000  1.900
O2    shel                  Three-body angl  109.47000    degrees   0.000  1.900
O2    shel                  Three-body k4    0.0000000    eV*rad^-4 0.000  3.500
                            Three-body k3    0.0000000    eV*rad^-3 
--------------------------------------------------------------------------------
Si    core    Harmonic      Three-body cnst  1.2614000    eV*rad^-2 0.000  1.900
O2    shel                  Three-body angl  109.47000    degrees   0.000  1.900
õ(2   shel                  Three-body k4    0.0000000    eV*rad^-4 0.000  3.500
                            Three-body k3    0.0000000    eV*rad^-3 
--------------------------------------------------------------------------------
Si    core    Harmonic      Three-body cnst  1.2614000    eV*rad^-2 0.000  1.900
õ(2   shel                  Three-body angl  109.47000    degrees   0.000  1.900
õ(2   shel                  Three-body k4    0.0000000    eV*rad^-4 0.000  3.500
                            Three-body k3    0.0000000    eV*rad^-3 
--------------------------------------------------------------------------------

********************************************************************************
*  Output for configuration   1 : c00383.vasp                                  *
********************************************************************************


  Components of energy : 

--------------------------------------------------------------------------------
  Interatomic potentials     =         768.36055999 eV    
  Three-body potentials      =           0.01052978 eV    
  Monopole - monopole (real) =       -2676.00317478 eV    
  Monopole - monopole (recip)=       -1115.35404472 eV    
  Monopole - monopole (total)=       -3791.35721950 eV    
--------------------------------------------------------------------------------
  Total lattice energy       =       -3022.98612974 eV    
--------------------------------------------------------------------------------
  Total lattice energy       =         -291671.9509 kJ/(mole unit cells)
--------------------------------------------------------------------------------


  Number of variables =      363

  Maximum number of calculations  =          1000
  Maximum Hessian update interval =            10
  Maximum step size               =   0.100000000
  Maximum parameter tolerance     =   0.000010000
  Maximum function  tolerance     =   0.000010000
  Maximum gradient  tolerance     =   0.001000000
  Maximum gradient  component     =   0.010000000

  Symmetry not applied to optimisation

  Cell parameters to be optimised using strains

  Newton-Raphson optimiser to be used

  BFGS hessian update to be used

  Lower half triangular hessian to be used

  Minimiser to switch to RFO
  When gradient norm is less than     0.050000

  Dumpfile to be written after every cycle

  Start of bulk optimisation :

  Cycle:      0 Energy:     -3022.986130  Gnorm:      4.470180  CPU:    0.109
  ** Hessian calculated **
  Cycle:      1 Energy:     -3054.324017  Gnorm:      1.024472  CPU:    0.239
  ** Hessian calculated **
  Cycle:      2 Energy:     -3059.061484  Gnorm:      0.499584  CPU:    0.482
  ** Hessian calculated **
  Cycle:      3 Energy:     -3059.675792  Gnorm:      0.290386  CPU:    0.670
  Cycle:      4 Energy:     -3059.914488  Gnorm:      0.204504  CPU:    0.763
  Cycle:      5 Energy:     -3060.150833  Gnorm:      0.159617  CPU:    0.881
  Cycle:      6 Energy:     -3060.363198  Gnorm:      0.126500  CPU:    0.995
  Cycle:      7 Energy:     -3060.484881  Gnorm:      0.102471  CPU:    1.092
  Cycle:      8 Energy:     -3060.555057  Gnorm:      0.074788  CPU:    1.185
  Cycle:      9 Energy:     -3060.591819  Gnorm:      0.058218  CPU:    1.285
  Cycle:     10 Energy:     -3060.615623  Gnorm:      0.047197  CPU:    1.397
  ** Hessian has required structure
  Cycle:     11 Energy:     -3060.636942  Gnorm:      0.097574  CPU:    1.538
  ** Hessian has required structure
  Cycle:     12 Energy:     -3060.664127  Gnorm:      0.084990  CPU:    1.696
  ** Hessian has wrong structure
  ** Imaginary eigenvectors =   3
  ** Hessian has wrong structure
  ** Imaginary eigenvectors =   3
  Cycle:     13 Energy:     -3060.669520  Gnorm:      0.084869  CPU:    2.285
  ** Hessian has wrong structure
  ** Imaginary eigenvectors =   3
  ** Hessian has wrong structure
  ** Imaginary eigenvectors =   3
  Cycle:     14 Energy:     -3060.683234  Gnorm:      0.085059  CPU:    2.836
  ** Hessian has wrong structure
  ** Imaginary eigenvectors =   3
  ** Hessian has wrong structure
  ** Imaginary eigenvectors =   3
  Cycle:     15 Energy:     -3060.705711  Gnorm:      0.085872  CPU:    3.270
  ** Hessian has wrong structure
  ** Imaginary eigenvectors =   2
  ** Hessian has wrong structure
  ** Imaginary eigenvectors =   2
  Cycle:     16 Energy:     -3060.719108  Gnorm:      0.087198  CPU:    3.741
  ** Hessian has wrong structure
  ** Imaginary eigenvectors =   1
  ** Hessian has wrong structure
  ** Imaginary eigenvectors =   1
  Cycle:     17 Energy:     -3060.735185  Gnorm:      0.091351  CPU:    4.283
  ** Hessian has wrong structure
  ** Imaginary eigenvectors =   1
  ** Hessian has required structure
  Cycle:     18 Energy:     -3061.090291  Gnorm:      0.069258  CPU:    4.768
  ** Hessian has required structure
  Cycle:     19 Energy:     -3061.250709  Gnorm:      0.045538  CPU:    4.916
  ** Hessian has required structure
  Cycle:     20 Energy:     -3061.319391  Gnorm:      0.065112  CPU:    5.066
  ** Hessian has required structure
  Cycle:     21 Energy:     -3061.356317  Gnorm:      0.047228  CPU:    5.215
  ** Hessian has required structure
  Cycle:     22 Energy:     -3061.380475  Gnorm:      0.027045  CPU:    5.362
  ** Hessian has required structure
  Cycle:     23 Energy:     -3061.398443  Gnorm:      0.022154  CPU:    5.529
  ** Hessian has required structure
  Cycle:     24 Energy:     -3061.414852  Gnorm:      0.023517  CPU:    5.678
  ** Hessian has required structure
  Cycle:     25 Energy:     -3061.425612  Gnorm:      0.019634  CPU:    5.845
  ** Hessian has required structure
  Cycle:     26 Energy:     -3061.435653  Gnorm:      0.012447  CPU:    5.993
  ** Hessian has required structure
  Cycle:     27 Energy:     -3061.443399  Gnorm:      0.014874  CPU:    6.162
  ** Hessian has required structure
  Cycle:     28 Energy:     -3061.460834  Gnorm:      0.012786  CPU:    6.395
  ** Hessian has required structure
  Cycle:     29 Energy:     -3061.470306  Gnorm:      0.012416  CPU:    6.561
  ** Hessian has required structure
  Cycle:     30 Energy:     -3061.474488  Gnorm:      0.007627  CPU:    6.712
  ** Hessian has required structure
  Cycle:     31 Energy:     -3061.476922  Gnorm:      0.007958  CPU:    6.879
  ** Hessian has required structure
  Cycle:     32 Energy:     -3061.478419  Gnorm:      0.007824  CPU:    7.035
  ** Hessian has required structure
  Cycle:     33 Energy:     -3061.479662  Gnorm:      0.006381  CPU:    7.194
  ** Hessian has required structure
  Cycle:     34 Energy:     -3061.480555  Gnorm:      0.004547  CPU:    7.371
  ** Hessian has required structure
  Cycle:     35 Energy:     -3061.481305  Gnorm:      0.006895  CPU:    7.555
  ** Hessian has required structure
  Cycle:     36 Energy:     -3061.482153  Gnorm:      0.006265  CPU:    7.739
  ** Hessian has required structure
  Cycle:     37 Energy:     -3061.483235  Gnorm:      0.006230  CPU:    7.896
  ** Hessian has required structure
  Cycle:     38 Energy:     -3061.485814  Gnorm:      0.004622  CPU:    8.145
  ** Hessian has required structure
  Cycle:     39 Energy:     -3061.486894  Gnorm:      0.003779  CPU:    8.318
  ** Hessian has required structure
  Cycle:     40 Energy:     -3061.487537  Gnorm:      0.002330  CPU:    8.497
  ** Hessian has required structure
  Cycle:     41 Energy:     -3061.487876  Gnorm:      0.002724  CPU:    8.674
  ** Hessian has required structure
  Cycle:     42 Energy:     -3061.488094  Gnorm:      0.000848  CPU:    8.834
  ** Hessian has required structure
  Cycle:     43 Energy:     -3061.488160  Gnorm:      0.000831  CPU:    8.995
  ** Hessian has required structure
  Cycle:     44 Energy:     -3061.488198  Gnorm:      0.000506  CPU:    9.175
  ** Hessian has required structure
  Cycle:     45 Energy:     -3061.488208  Gnorm:      0.000346  CPU:    9.345
  ** Hessian has required structure
  Cycle:     46 Energy:     -3061.488208  Gnorm:      0.000313  CPU:    9.501
  ** Hessian has required structure
  Cycle:     47 Energy:     -3061.488209  Gnorm:      0.000305  CPU:    9.697
  ** Hessian has required structure
  Cycle:     48 Energy:     -3061.488209  Gnorm:      0.000305  CPU:   10.018
  ** Hessian calculated **
  Cycle:     49 Energy:     -3061.488209  Gnorm:      0.000175  CPU:   10.208
  ** Hessian has required structure
  Cycle:     50 Energy:     -3061.488209  Gnorm:      0.000334  CPU:   10.354
  ** Hessian has required structure
  Cycle:     51 Energy:     -3061.488209  Gnorm:      0.000356  CPU:   10.498
  ** Hessian has required structure
  Cycle:     52 Energy:     -3061.488209  Gnorm:      0.000289  CPU:   10.643
  ** Hessian has required structure
  Cycle:     53 Energy:     -3061.488209  Gnorm:      0.000247  CPU:   10.789
  ** Hessian has required structure
  Cycle:     54 Energy:     -3061.488209  Gnorm:      0.000225  CPU:   10.952
  ** Hessian has required structure
  Cycle:     55 Energy:     -3061.488209  Gnorm:      0.000199  CPU:   11.111
  ** Hessian has required structure
  Cycle:     56 Energy:     -3061.488209  Gnorm:      0.000207  CPU:   11.276
  ** Hessian has required structure
  Cycle:     57 Energy:     -3061.488209  Gnorm:      0.000209  CPU:   11.438
  ** Hessian has required structure
  Cycle:     58 Energy:     -3061.488209  Gnorm:      0.000214  CPU:   11.586
  ** Hessian has required structure
  Cycle:     59 Energy:     -3061.488209  Gnorm:      0.000213  CPU:   11.828
  ** Hessian has required structure
  Cycle:     60 Energy:     -3061.488209  Gnorm:      0.000213  CPU:   11.965
  ** Hessian has required structure
  Cycle:     61 Energy:     -3061.488209  Gnorm:      0.000212  CPU:   12.105
  ** Hessian has required structure
  Cycle:     62 Energy:     -3061.488209  Gnorm:      0.000212  CPU:   12.243
  ** Hessian has required structure
  Cycle:     63 Energy:     -3061.488209  Gnorm:      0.000212  CPU:   12.383
  ** Hessian has required structure
  Cycle:     64 Energy:     -3061.488209  Gnorm:      0.000212  CPU:   12.520
  ** Hessian has required structure
  Cycle:     65 Energy:     -3061.488209  Gnorm:      0.000212  CPU:   12.659
  ** Hessian has required structure
  Cycle:     66 Energy:     -3061.488209  Gnorm:      0.000212  CPU:   12.797
  ** Hessian has required structure
  Cycle:     67 Energy:     -3061.488209  Gnorm:      0.000212  CPU:   12.936
  ** Hessian has required structure
  Cycle:     68 Energy:     -3061.488209  Gnorm:      0.000212  CPU:   13.075
  ** Hessian has required structure
  Cycle:     69 Energy:     -3061.488209  Gnorm:      0.000212  CPU:   13.352
  ** Hessian calculated **


  **** Optimisation achieved ****


  Final energy =   -3061.48820954 eV      
  Final Gnorm  =       0.00008719

  Components of energy : 

--------------------------------------------------------------------------------
  Interatomic potentials     =         815.67193398 eV    
  Three-body potentials      =           0.17294041 eV    
  Monopole - monopole (real) =       -2169.06465811 eV    
  Monopole - monopole (recip)=       -1708.26842581 eV    
  Monopole - monopole (total)=       -3877.33308393 eV    
--------------------------------------------------------------------------------
  Total lattice energy       =       -3061.48820954 eV    
--------------------------------------------------------------------------------
  Total lattice energy       =         -295386.8131 kJ/(mole unit cells)
--------------------------------------------------------------------------------

  Final fractional coordinates of atoms :

--------------------------------------------------------------------------------
   No.  Atomic        x           y          z          Radius
        Label       (Frac)      (Frac)     (Frac)       (Angs) 
--------------------------------------------------------------------------------
     1  Ge    c     0.052090    0.000000    0.372270    0.000000
     2  Ge    c     0.434458    0.995165    0.884450    0.000000
     3  Ge    c     0.350169    0.674722    0.279559    0.000000
     4  Ge    c     0.827451    0.709558    0.037288    0.000000
     5  Si    c     0.454562    0.977668    0.375431    0.000000
     6  Si    c     0.944859    0.003436    0.626968    0.000000
     7  Si    c     0.550755    0.999176    0.637057    0.000000
     8  Si    c     0.550273    0.997587    0.123430    0.000000
     9  Si    c     0.939685    0.996892    0.118064    0.000000
    10  Si    c     0.046854    0.003774    0.879273    0.000000
    11  Si    c     0.158831    0.302670    0.292700    0.000000
    12  Si    c     0.840862    0.306281    0.725056    0.000000
    13  Si    c     0.656535    0.690131    0.710600    0.000000
    14  Si    c     0.832984    0.710864    0.722490    0.000000
    15  Si    c     0.662259    0.290762    0.713410    0.000000
    16  Si    c     0.168316    0.705979    0.296715    0.000000
    17  Si    c     0.336600    0.263939    0.269606    0.000000
    18  Si    c     0.659442    0.288359    0.021501    0.000000
    19  Si    c     0.320459    0.281568    0.963373    0.000000
    20  Si    c     0.157670    0.712077    0.988879    0.000000
    21  Si    c     0.336811    0.681228    0.968221    0.000000
    22  Si    c     0.142909    0.312795    0.986533    0.000000
    23  Si    c     0.647678    0.685144    0.021968    0.000000
    24  Si    c     0.839464    0.306174    0.031916    0.000000
    25  O3    c     0.105551    0.189106    0.385660    0.000000
    26  O3    c     0.417855    0.786968    0.370244    0.000000
    27  O2    c     0.897855    0.185278    0.642036    0.000000
    28  O2    c     0.597731    0.815725    0.629861    0.000000
    29  O2    c     0.888367    0.838117    0.641415    0.000000
    30  O2    c     0.611402    0.158955    0.626812    0.000000
    31  O3    c     0.116034    0.826104    0.387081    0.000000
    32  O2    c     0.385884    0.116726    0.346269    0.000000
    33  O3    c     0.978490    0.995634    0.482637    0.000000
    34  O2    c     0.488184    0.012757    0.520330    0.000000
    35  O3    c     0.009020    0.992461    0.219178    0.000000
    36  O2    c     0.525542    0.996422    0.275263    0.000000
    37  O2    c     0.017673    0.995082    0.728547    0.000000
    38  O3    c     0.505795    0.013392    0.771963    0.000000
    39  O2    c     0.615518    0.144996    0.106837    0.000000
    40  O3    c     0.879390    0.842014    0.139857    0.000000
    41  O3    c     0.362983    0.154327    0.865453    0.000000
    42  O2    c     0.110760    0.852152    0.901051    0.000000
    43  O3    c     0.389532    0.794610    0.872799    0.000000
    44  O2    c     0.082438    0.195717    0.905258    0.000000
    45  O2    c     0.582369    0.805399    0.086125    0.000000
    46  O2    c     0.891365    0.178448    0.123088    0.000000
    47  O3    c     0.476184    0.040188    0.035338    0.000000
    48  O2    c     0.974338    0.968264    0.972085    0.000000
    49  O2    c     0.142973    0.505864    0.318864    0.000000
    50  O3    c     0.370119    0.454229    0.296470    0.000000
    51  O2    c     0.860902    0.510149    0.702771    0.000000
    52  O2    c     0.635263    0.489154    0.680174    0.000000
    53  O2    c     0.248752    0.257193    0.322049    0.000000
    54  O3    c     0.258157    0.723960    0.332947    0.000000
    55  O2    c     0.752663    0.268478    0.679497    0.000000
    56  O2    c     0.744476    0.729709    0.668340    0.000000
    57  O2    c     0.138204    0.258891    0.140088    0.000000
    58  O3    c     0.358469    0.736244    0.116420    0.000000
    59  O2    c     0.851939    0.258838    0.878814    0.000000
    60  O2    c     0.648919    0.725050    0.865864    0.000000
    61  O3    c     0.835330    0.765389    0.873535    0.000000
    62  O2    c     0.649862    0.245340    0.867158    0.000000
    63  O2    c     0.154550    0.761117    0.142918    0.000000
    64  O2    c     0.335625    0.220569    0.114420    0.000000
    65  O2    c     0.625399    0.482197    0.048198    0.000000
    66  O3    c     0.863655    0.501052    0.061628    0.000000
    67  O2    c     0.353578    0.476851    0.945401    0.000000
    68  O2    c     0.122121    0.518426    0.967040    0.000000
    69  O2    c     0.749076    0.281553    0.064933    0.000000
    70  O3    c     0.731455    0.722974    0.081946    0.000000
    71  O2    c     0.228716    0.278420    0.932543    0.000000
    72  O2    c     0.245821    0.718652    0.941511    0.000000
    73  O3    s     0.106760    0.185636    0.374956    0.000000
    74  O3    s     0.415910    0.796810    0.363256    0.000000
    75  O2    s     0.896476    0.179484    0.649742    0.000000
    76  O2    s     0.599260    0.821167    0.639458    0.000000
    77  O2    s     0.888275    0.841779    0.648966    0.000000
    78  O2    s     0.610673    0.156752    0.637482    0.000000
    79  O3    s     0.116204    0.827861    0.376644    0.000000
    80  O2    s     0.387758    0.118278    0.340720    0.000000
    81  O3    s     0.981387    0.996862    0.488352    0.000000
    82  O2    s     0.491525    0.007232    0.517351    0.000000
    83  O3    s     0.004894    0.993605    0.220956    0.000000
    84  O2    s     0.520611    0.994520    0.269393    0.000000
    85  O2    s     0.013190    0.996935    0.734244    0.000000
    86  O3    s     0.504098    0.010211    0.767798    0.000000
    87  O2    s     0.613452    0.145263    0.098850    0.000000
    88  O3    s     0.880996    0.846159    0.129058    0.000000
    89  O3    s     0.364177    0.155136    0.877148    0.000000
    90  O2    s     0.109068    0.852951    0.908643    0.000000
    91  O3    s     0.387820    0.799197    0.883315    0.000000
    92  O2    s     0.085325    0.188411    0.911496    0.000000
    93  O2    s     0.586274    0.812191    0.082816    0.000000
    94  O2    s     0.890740    0.173548    0.112525    0.000000
    95  O3    s     0.480594    0.032007    0.032224    0.000000
    96  O2    s     0.978707    0.974995    0.976861    0.000000
    97  O2    s     0.147437    0.504934    0.313577    0.000000
    98  O3    s     0.365118    0.452900    0.292416    0.000000
    99  O2    s     0.855847    0.509381    0.707187    0.000000
   100  O2    s     0.640387    0.489496    0.686926    0.000000
   101  O2    s     0.248427    0.262741    0.313373    0.000000
   102  O3    s     0.256601    0.718175    0.325018    0.000000
   103  O2    s     0.752323    0.274954    0.687985    0.000000
   104  O2    s     0.744297    0.723494    0.678385    0.000000
   105  O2    s     0.140804    0.269003    0.139432    0.000000
   106  O3    s     0.355741    0.726104    0.115147    0.000000
   107  O2    s     0.849421    0.268861    0.878329    0.000000
   108  O2    s     0.649611    0.716986    0.865753    0.000000
   109  O3    s     0.834426    0.755215    0.871707    0.000000
   110  O2    s     0.652207    0.254738    0.867380    0.000000
   111  O2    s     0.156250    0.750415    0.142173    0.000000
   112  O2    s     0.334115    0.231478    0.115003    0.000000
   113  O2    s     0.631233    0.482806    0.042679    0.000000
   114  O3    s     0.858156    0.497584    0.056525    0.000000
   115  O2    s     0.348252    0.478267    0.949754    0.000000
   116  O2    s     0.127921    0.516978    0.971330    0.000000
   117  O2    s     0.748878    0.284998    0.056575    0.000000
   118  O3    s     0.730657    0.718067    0.072250    0.000000
   119  O2    s     0.229245    0.282533    0.941696    0.000000
   120  O2    s     0.245824    0.713898    0.949529    0.000000
--------------------------------------------------------------------------------

  Final Cartesian lattice vectors (Angstroms) :

       17.265189    0.062964   -0.113517
        0.028503    7.648674    0.034658
       -0.071882    0.046553   10.143573


  Final cell parameters and derivatives :

--------------------------------------------------------------------------------
       a           17.265677 Angstrom     dE/de1(xx)     0.008639 eV/strain
       b            7.648805 Angstrom     dE/de2(yy)     0.007792 eV/strain
       c           10.143934 Angstrom     dE/de3(zz)     0.005692 eV/strain
       alpha       89.478958 Degrees      dE/de4(yz)    -0.000134 eV/strain
       beta        90.781756 Degrees      dE/de5(xz)     0.000077 eV/strain
       gamma       89.579259 Degrees      dE/de6(xy)     0.000190 eV/strain
--------------------------------------------------------------------------------

  Primitive cell volume =          1339.408772 Angs**3

  Density of cell =      2.008733 g/cm**3

  Non-primitive cell volume =          1339.408772 Angs**3


  Final internal derivatives :

--------------------------------------------------------------------------------
   No.  Atomic          a             b             c           Radius
        Label          (eV)          (eV)          (eV)        (eV/Angs)
--------------------------------------------------------------------------------
      1 Ge    c       0.000000      0.000000      0.000000      0.000000
      2 Ge    c      -0.003026     -0.000110      0.001918      0.000000
      3 Ge    c       0.001804     -0.000247     -0.000025      0.000000
      4 Ge    c       0.000116      0.001065     -0.001802      0.000000
      5 Si    c       0.002465     -0.000172      0.001900      0.000000
      6 Si    c       0.000317      0.000056     -0.001082      0.000000
      7 Si    c       0.001594     -0.000056      0.000435      0.000000
      8 Si    c       0.000058      0.000638     -0.000420      0.000000
      9 Si    c      -0.002861     -0.000211     -0.001997      0.000000
     10 Si    c      -0.000740     -0.000072      0.001100      0.000000
     11 Si    c      -0.001545     -0.000228      0.000014      0.000000
     12 Si    c       0.000727      0.000005     -0.000271      0.000000
     13 Si    c       0.000191      0.001092     -0.001649      0.000000
     14 Si    c       0.000926      0.000050      0.001605      0.000000
     15 Si    c       0.000071     -0.001204      0.000195      0.000000
     16 Si    c      -0.000082      0.000038     -0.000258      0.000000
     17 Si    c       0.000843      0.000524     -0.000829      0.000000
     18 Si    c      -0.001397     -0.000299     -0.000691      0.000000
     19 Si    c      -0.002103     -0.001200     -0.000580      0.000000
     20 Si    c      -0.001761     -0.000037     -0.000740      0.000000
     21 Si    c      -0.000905      0.001325     -0.001144      0.000000
     22 Si    c      -0.001457     -0.000170     -0.000911      0.000000
     23 Si    c       0.001757      0.000646      0.001572      0.000000
     24 Si    c       0.000342     -0.001635      0.001195      0.000000
     25 O3    c      -0.000344     -0.000352      0.001123      0.000000
     26 O3    c      -0.000213      0.000117     -0.001605      0.000000
     27 O2    c       0.000445      0.000138      0.000256      0.000000
     28 O2    c       0.000274     -0.000757     -0.001439      0.000000
     29 O2    c       0.000228     -0.000398      0.000039      0.000000
     30 O2    c       0.000177      0.001542     -0.002384      0.000000
     31 O3    c      -0.002084     -0.000021      0.001001      0.000000
     32 O2    c      -0.001129      0.000050     -0.000861      0.000000
     33 O3    c      -0.003748      0.000272      0.001249      0.000000
     34 O2    c      -0.005685     -0.000454     -0.000297      0.000000
     35 O3    c       0.008033      0.001469      0.002219      0.000000
     36 O2    c      -0.000652     -0.000327      0.001100      0.000000
     37 O2    c       0.001496      0.000346      0.000002      0.000000
     38 O3    c       0.009331     -0.000732      0.001634      0.000000
     39 O2    c      -0.001009     -0.000917      0.000368      0.000000
     40 O3    c       0.004726     -0.001552      0.004973      0.000000
     41 O3    c       0.001381      0.000155     -0.001654      0.000000
     42 O2    c      -0.000079      0.000595     -0.000360      0.000000
     43 O3    c       0.000740      0.000216     -0.001226      0.000000
     44 O2    c      -0.000169     -0.000029     -0.000188      0.000000
     45 O2    c      -0.001200     -0.000405     -0.000504      0.000000
     46 O2    c      -0.001601      0.001378      0.000371      0.000000
     47 O3    c      -0.006366      0.000549     -0.001938      0.000000
     48 O2    c      -0.002417      0.000052     -0.001232      0.000000
     49 O2    c       0.000454      0.000220     -0.000109      0.000000
     50 O3    c       0.002023     -0.000469      0.000512      0.000000
     51 O2    c       0.001878     -0.000419     -0.000364      0.000000
     52 O2    c      -0.001069      0.000103      0.001077      0.000000
     53 O2    c       0.000156     -0.000573      0.000175      0.000000
     54 O3    c      -0.003224      0.000761      0.000143      0.000000
     55 O2    c      -0.000702      0.000169      0.000073      0.000000
     56 O2    c       0.000097     -0.000296     -0.000123      0.000000
     57 O2    c       0.000297      0.000152      0.000906      0.000000
     58 O3    c      -0.000226     -0.000363      0.000115      0.000000
     59 O2    c      -0.000513      0.000314      0.000121      0.000000
     60 O2    c       0.000326     -0.000564      0.000093      0.000000
     61 O3    c      -0.000462     -0.000341      0.002771      0.000000
     62 O2    c      -0.000973      0.000382     -0.000594      0.000000
     63 O2    c      -0.000379      0.000000      0.000906      0.000000
     64 O2    c      -0.000042      0.000473     -0.000380      0.000000
     65 O2    c      -0.002473      0.001116     -0.000573      0.000000
     66 O3    c       0.000186     -0.000922     -0.000001      0.000000
     67 O2    c       0.000160     -0.000030      0.001016      0.000000
     68 O2    c      -0.001644      0.000139      0.000628      0.000000
     69 O2    c       0.003359      0.000522     -0.000080      0.000000
     70 O3    c      -0.003713      0.000209     -0.000541      0.000000
     71 O2    c       0.002804      0.000063      0.000614      0.000000
     72 O2    c       0.002682     -0.000387      0.000459      0.000000
     73 O3    s      -0.001961     -0.000361      0.000429      0.000000
     74 O3    s       0.001159     -0.000025      0.000877      0.000000
     75 O2    s       0.000780     -0.000042     -0.000756      0.000000
     76 O2    s      -0.000629      0.000632     -0.001532      0.000000
     77 O2    s       0.001467      0.000428     -0.000162      0.000000
     78 O2    s      -0.000652      0.000058     -0.001835      0.000000
     79 O3    s       0.000037      0.000093      0.000733      0.000000
     80 O2    s       0.001170     -0.000454     -0.000173      0.000000
     81 O3    s       0.005556      0.000099     -0.003616      0.000000
     82 O2    s       0.004674     -0.000146      0.001242      0.000000
     83 O3    s      -0.001644      0.000663     -0.004193      0.000000
     84 O2    s      -0.000611     -0.000104     -0.000029      0.000000
     85 O2    s      -0.000325      0.000216     -0.000760      0.000000
     86 O3    s      -0.005162     -0.000906      0.004912      0.000000
     87 O2    s       0.000372     -0.000961     -0.000454      0.000000
     88 O3    s      -0.003877     -0.000418     -0.002005      0.000000
     89 O3    s       0.001974     -0.001023     -0.000637      0.000000
     90 O2    s      -0.002370     -0.000271     -0.000239      0.000000
     91 O3    s       0.001978      0.001121     -0.000374      0.000000
     92 O2    s      -0.001823      0.000247      0.000373      0.000000
     93 O2    s       0.000006     -0.000242     -0.001282      0.000000
     94 O2    s       0.000828     -0.000262      0.000065      0.000000
     95 O3    s       0.002458      0.000361      0.001980      0.000000
     96 O2    s       0.002336      0.000038      0.000091      0.000000
     97 O2    s      -0.001875     -0.000161      0.000646      0.000000
     98 O3    s      -0.000899      0.000636      0.000858      0.000000
     99 O2    s       0.000885      0.000019     -0.001133      0.000000
    100 O2    s      -0.000726     -0.000013     -0.001545      0.000000
    101 O2    s      -0.000279     -0.000705      0.000136      0.000000
    102 O3    s       0.001121      0.000828      0.000612      0.000000
    103 O2    s      -0.001951     -0.000983     -0.000881      0.000000
    104 O2    s      -0.003063      0.000943     -0.000425      0.000000
    105 O2    s      -0.001898     -0.000309      0.000511      0.000000
    106 O3    s       0.000833      0.000843      0.000035      0.000000
    107 O2    s       0.001309     -0.001188      0.000775      0.000000
    108 O2    s      -0.001441      0.000876     -0.000373      0.000000
    109 O3    s       0.001180      0.000739     -0.000635      0.000000
    110 O2    s      -0.000020     -0.000891     -0.000423      0.000000
    111 O2    s      -0.001105      0.000020      0.000830      0.000000
    112 O2    s       0.000636     -0.000270     -0.000020      0.000000
    113 O2    s      -0.001002     -0.000252      0.001448      0.000000
    114 O3    s       0.001430      0.000783      0.001026      0.000000
    115 O2    s       0.001593      0.000096     -0.001459      0.000000
    116 O2    s      -0.002156     -0.000291     -0.000947      0.000000
    117 O2    s       0.000541     -0.001165      0.000810      0.000000
    118 O3    s       0.001361      0.001095      0.001233      0.000000
    119 O2    s       0.001029     -0.000893     -0.000928      0.000000
    120 O2    s       0.002144      0.000632     -0.000445      0.000000
--------------------------------------------------------------------------------
  Maximum abs         0.009331      0.001635      0.004973      0.000000
--------------------------------------------------------------------------------


  Born effective charge tensors : 

-------------------------------------------------------------------------------
  Atom             x           y             z
-------------------------------------------------------------------------------
    1 Ge    x       4.2424      0.0685     -0.0130
            y      -0.0631      3.8866     -0.0065
            z      -0.9174     -0.0210      4.4226
-------------------------------------------------------------------------------
    2 Ge    x       4.3923      0.1945     -0.0422
            y      -0.1261      3.9031     -0.0062
            z      -0.8033      0.0102      3.6284
-------------------------------------------------------------------------------
    3 Ge    x       3.9402      0.2592      0.1023
            y       0.3711      4.1953      0.2830
            z       0.1724      0.0641      3.4339
-------------------------------------------------------------------------------
    4 Ge    x       3.9882      0.3820      0.1724
            y       0.1740      4.1466      0.2611
            z       0.1948      0.0595      3.3310
-------------------------------------------------------------------------------
    5 Si    x       3.5401      0.3355      0.3586
            y       0.0088      3.5021     -0.0336
            z       0.2992      0.1571      3.8316
-------------------------------------------------------------------------------
    6 Si    x       3.5574     -0.0599     -0.4837
            y       0.0519      3.3095      0.0374
            z      -0.4259      0.0798      4.2414
-------------------------------------------------------------------------------
    7 Si    x       3.5741     -0.0864     -0.1553
            y       0.0824      3.3032      0.0215
            z       0.4674      0.0163      3.9766
-------------------------------------------------------------------------------
    8 Si    x       3.7628     -0.1582     -0.2224
            y       0.1208      3.3186      0.0096
            z      -0.2183     -0.0452      3.2946
-------------------------------------------------------------------------------
    9 Si    x       4.0108      0.0956      0.1322
            y       0.2437      3.4486     -0.0822
            z       0.8366     -0.0089      3.1988
-------------------------------------------------------------------------------
   10 Si    x       3.4818      0.1265      0.4036
            y      -0.1620      3.2901      0.0215
            z       0.3658      0.0325      3.1097
-------------------------------------------------------------------------------
   11 Si    x       3.3803      0.3630     -0.2572
            y       0.3621      3.5097     -0.3422
            z      -0.2447     -0.1798      3.0369
-------------------------------------------------------------------------------
   12 Si    x       3.2102     -0.2484     -0.0440
            y      -0.2599      3.4303      0.1799
            z      -0.0982      0.0535      2.7853
-------------------------------------------------------------------------------
   13 Si    x       3.1526     -0.2579      0.0469
            y      -0.2544      3.4307     -0.1566
            z       0.1497     -0.0878      2.8018
-------------------------------------------------------------------------------
   14 Si    x       3.2711      0.3205     -0.0356
            y       0.2313      3.5595     -0.0765
            z      -0.1396      0.0376      3.0818
-------------------------------------------------------------------------------
   15 Si    x       3.1760      0.2994      0.1088
            y       0.1932      3.4415      0.1484
            z       0.1127      0.0635      2.8066
-------------------------------------------------------------------------------
   16 Si    x       3.7250     -0.3996     -0.1754
            y      -0.3030      3.6259      0.3545
            z      -0.1778      0.1790      3.0660
-------------------------------------------------------------------------------
   17 Si    x       3.2969     -0.2567      0.0999
            y      -0.0390      3.7697     -0.0733
            z       0.1628     -0.0237      2.8681
-------------------------------------------------------------------------------
   18 Si    x       3.1816      0.3232     -0.1559
            y       0.1044      3.4216     -0.1694
            z      -0.1368     -0.0907      2.7782
-------------------------------------------------------------------------------
   19 Si    x       3.4185     -0.4780     -0.2895
            y      -0.2447      3.5649      0.3615
            z      -0.2359      0.1668      2.8959
-------------------------------------------------------------------------------
   20 Si    x       3.2025     -0.3282      0.1409
            y      -0.1209      3.4890     -0.1988
            z       0.1302     -0.0689      2.7306
-------------------------------------------------------------------------------
   21 Si    x       3.5406      0.4265     -0.2315
            y       0.3988      3.5969     -0.2608
            z      -0.2093     -0.0767      3.1447
-------------------------------------------------------------------------------
   22 Si    x       3.2591      0.2690      0.1109
            y       0.2839      3.4481      0.2014
            z       0.1749      0.0491      2.7167
-------------------------------------------------------------------------------
   23 Si    x       3.5495     -0.1979      0.0462
            y      -0.2259      3.4941      0.1645
            z      -0.1483      0.0993      2.8319
-------------------------------------------------------------------------------
   24 Si    x       3.3365     -0.2017      0.1592
            y      -0.0972      3.6981     -0.0852
            z       0.1605      0.0305      2.7770
-------------------------------------------------------------------------------
   25 O3    x      -2.0131     -0.9485      0.4446
            y      -0.9165     -2.3165      0.4671
            z       0.5570      0.4732     -1.6452
-------------------------------------------------------------------------------
   26 O3    x      -1.9633     -0.9226     -0.4263
            y      -0.8904     -2.5438     -0.4047
            z      -0.4239     -0.3803     -1.5381
-------------------------------------------------------------------------------
   27 O2    x      -1.6700      0.7160      0.3361
            y       0.6815     -2.0068     -0.3526
            z       0.3344     -0.3377     -1.3550
-------------------------------------------------------------------------------
   28 O2    x      -1.6463      0.7083     -0.2601
            y       0.6815     -2.0183      0.2933
            z      -0.3633      0.2971     -1.3218
-------------------------------------------------------------------------------
   29 O2    x      -1.7384     -0.7371      0.3079
            y      -0.7409     -1.9948      0.3052
            z       0.3431      0.3131     -1.3229
-------------------------------------------------------------------------------
   30 O2    x      -1.6989     -0.7166     -0.2679
            y      -0.7293     -1.9710     -0.3127
            z      -0.3541     -0.3084     -1.3401
-------------------------------------------------------------------------------
   31 O3    x      -2.0433      0.9350      0.4145
            y       0.9757     -2.3174     -0.4709
            z       0.5330     -0.4537     -1.6299
-------------------------------------------------------------------------------
   32 O2    x      -1.8377      0.6915     -0.3960
            y       0.7335     -1.8802      0.3800
            z      -0.3940      0.3342     -1.3677
-------------------------------------------------------------------------------
   33 O3    x      -2.0267      0.0152      1.0790
            y      -0.0035     -1.2026     -0.0148
            z       1.3933     -0.0422     -3.3692
-------------------------------------------------------------------------------
   34 O2    x      -1.6461     -0.0370     -0.7633
            y      -0.0058     -1.1070     -0.0383
            z      -0.9440     -0.0790     -2.6238
-------------------------------------------------------------------------------
   35 O3    x      -2.2071      0.0151     -0.9800
            y       0.0126     -1.2343      0.0130
            z      -1.0099      0.0066     -2.5933
-------------------------------------------------------------------------------
   36 O2    x      -1.6798     -0.0143      0.6416
            y      -0.0243     -1.1118      0.0309
            z       0.6150      0.0183     -2.2188
-------------------------------------------------------------------------------
   37 O2    x      -1.7455     -0.0146     -0.6789
            y       0.0229     -1.1169     -0.0140
            z      -0.6201     -0.0287     -2.1994
-------------------------------------------------------------------------------
   38 O3    x      -2.1781     -0.0238      1.0053
            y      -0.0140     -1.2493     -0.0051
            z       1.0355      0.0062     -2.6791
-------------------------------------------------------------------------------
   39 O2    x      -1.7282     -0.7302      0.4030
            y      -0.6745     -1.9590      0.3962
            z       0.3651      0.3845     -1.2776
-------------------------------------------------------------------------------
   40 O3    x      -2.1072     -0.9491     -0.2356
            y      -0.9573     -2.3412     -0.2979
            z      -0.3368     -0.2651     -1.4052
-------------------------------------------------------------------------------
   41 O3    x      -2.0875      0.9323      0.4030
            y       0.9177     -2.2651     -0.4923
            z       0.4773     -0.4691     -1.5442
-------------------------------------------------------------------------------
   42 O2    x      -1.7625      0.7438     -0.4122
            y       0.7141     -1.9769      0.4178
            z      -0.3575      0.3613     -1.2540
-------------------------------------------------------------------------------
   43 O3    x      -2.0058     -0.9356      0.4506
            y      -0.8418     -2.3742      0.4637
            z       0.5236      0.4628     -1.4940
-------------------------------------------------------------------------------
   44 O2    x      -1.7028     -0.7232     -0.4006
            y      -0.6271     -2.0518     -0.4127
            z      -0.3735     -0.3746     -1.2467
-------------------------------------------------------------------------------
   45 O2    x      -1.6615      0.6744      0.3662
            y       0.5760     -2.0514     -0.4173
            z       0.3632     -0.3897     -1.2600
-------------------------------------------------------------------------------
   46 O2    x      -1.6823      0.6494     -0.2600
            y       0.6168     -1.9177      0.2947
            z      -0.3341      0.2619     -1.2563
-------------------------------------------------------------------------------
   47 O3    x      -2.3106      0.0903     -0.8096
            y       0.1024     -1.3200      0.0287
            z      -0.4940     -0.0191     -2.0082
-------------------------------------------------------------------------------
   48 O2    x      -1.8246     -0.0445      0.5268
            y      -0.0165     -1.1993     -0.0068
            z       0.2815     -0.0253     -1.6878
-------------------------------------------------------------------------------
   49 O2    x      -1.1701     -0.0180      0.0651
            y      -0.0459     -2.4632     -0.0214
            z       0.0786     -0.0274     -1.1087
-------------------------------------------------------------------------------
   50 O3    x      -1.3671     -0.1808     -0.0803
            y      -0.2229     -3.1890     -0.1137
            z      -0.1067     -0.0897     -1.1847
-------------------------------------------------------------------------------
   51 O2    x      -1.1875      0.0282      0.0329
            y       0.0581     -2.5899      0.0284
            z       0.0637      0.0403     -1.0479
-------------------------------------------------------------------------------
   52 O2    x      -1.1590      0.0293     -0.0607
            y       0.0454     -2.5324      0.0103
            z      -0.0883      0.0030     -1.0755
-------------------------------------------------------------------------------
   53 O2    x      -2.3723      0.1675      0.0951
            y       0.1136     -1.2471      0.0548
            z       0.0619      0.0288     -1.1144
-------------------------------------------------------------------------------
   54 O3    x      -2.9944      0.0715      0.0080
            y      -0.0292     -1.3779     -0.0969
            z      -0.0349     -0.0541     -1.2370
-------------------------------------------------------------------------------
   55 O2    x      -2.3954     -0.0553     -0.0440
            y      -0.0138     -1.2366     -0.0667
            z      -0.0259     -0.0418     -1.0718
-------------------------------------------------------------------------------
   56 O2    x      -2.3592     -0.0653     -0.0148
            y      -0.0405     -1.2480      0.0648
            z      -0.0142      0.0442     -1.0940
-------------------------------------------------------------------------------
   57 O2    x      -1.2177     -0.1316     -0.1087
            y      -0.1189     -1.2875      0.0125
            z      -0.1198      0.0168     -2.0561
-------------------------------------------------------------------------------
   58 O3    x      -1.3829     -0.1786     -0.1454
            y      -0.1608     -1.4648     -0.0800
            z      -0.1104     -0.0413     -2.5344
-------------------------------------------------------------------------------
   59 O2    x      -1.2132      0.1321     -0.0152
            y       0.1100     -1.2621      0.0311
            z      -0.0105      0.0274     -2.0514
-------------------------------------------------------------------------------
   60 O2    x      -1.1767      0.1004      0.1027
            y       0.0958     -1.2794      0.0007
            z       0.1021      0.0228     -2.1114
-------------------------------------------------------------------------------
   61 O3    x      -1.3167     -0.1481     -0.0153
            y      -0.0962     -1.4587     -0.0865
            z       0.0208     -0.0818     -2.6011
-------------------------------------------------------------------------------
   62 O2    x      -1.1670     -0.1268      0.0527
            y      -0.0846     -1.2737     -0.0128
            z       0.0361     -0.0024     -2.0883
-------------------------------------------------------------------------------
   63 O2    x      -1.1874      0.1318     -0.0561
            y       0.0837     -1.3237     -0.0071
            z      -0.0605      0.0163     -2.0670
-------------------------------------------------------------------------------
   64 O2    x      -1.2295      0.1516     -0.0716
            y       0.0937     -1.2979      0.0596
            z      -0.0646      0.0561     -2.0395
-------------------------------------------------------------------------------
   65 O2    x      -1.2256      0.0758      0.0774
            y       0.1243     -2.5094      0.0053
            z       0.1108     -0.0161     -1.0445
-------------------------------------------------------------------------------
   66 O3    x      -1.3886     -0.0530     -0.1063
            y       0.0259     -3.1262     -0.0978
            z      -0.1243     -0.0935     -1.1440
-------------------------------------------------------------------------------
   67 O2    x      -1.2625     -0.0602      0.0796
            y      -0.1262     -2.4299      0.0009
            z       0.0992      0.0148     -1.0375
-------------------------------------------------------------------------------
   68 O2    x      -1.2368     -0.0528     -0.0681
            y      -0.1286     -2.5617     -0.0153
            z      -0.0944     -0.0065     -1.0042
-------------------------------------------------------------------------------
   69 O2    x      -2.4390     -0.0341     -0.0296
            y      -0.0117     -1.2229      0.0523
            z      -0.0183      0.0232     -1.0655
-------------------------------------------------------------------------------
   70 O3    x      -2.9635     -0.1242     -0.1532
            y      -0.1084     -1.3810     -0.1101
            z      -0.1316     -0.0717     -1.2510
-------------------------------------------------------------------------------
   71 O2    x      -2.3921      0.0662      0.0812
            y       0.0365     -1.2305     -0.0746
            z       0.0542     -0.0349     -1.0695
-------------------------------------------------------------------------------
   72 O2    x      -2.4192      0.1098      0.1105
            y       0.0776     -1.2628      0.0584
            z       0.0887      0.0254     -1.0524
-------------------------------------------------------------------------------




  Elastic Constant Matrix: (Units=GPa)

-------------------------------------------------------------------------------
  Indices      1         2         3         4         5         6    
-------------------------------------------------------------------------------
       1     48.7578   23.9337   22.4248   -0.1178   -4.1797    3.2919
       2     23.9337   69.6936   22.1014   -0.5093   -4.7901    3.9994
       3     22.4248   22.1014   17.7802    0.0905   -0.7141    2.9545
       4     -0.1178   -0.5093    0.0905   10.7921    0.4427    0.5000
       5     -4.1797   -4.7901   -0.7141    0.4427   23.2886    2.5317
       6      3.2919    3.9994    2.9545    0.5000    2.5317   22.4225
-------------------------------------------------------------------------------


  Elastic Compliance Matrix: (Units=1/GPa)

-------------------------------------------------------------------------------
  Indices      1         2         3         4         5         6    
-------------------------------------------------------------------------------
       1    0.051222  0.005550 -0.071167  0.001087  0.008140 -0.000076
       2    0.005550  0.024692 -0.037351  0.001375  0.005001 -0.000893
       3   -0.071167 -0.037351  0.193006 -0.003283 -0.013747 -0.006695
       4    0.001087  0.001375 -0.003283  0.092902 -0.001181 -0.001910
       5    0.008140  0.005001 -0.013747 -0.001181  0.045617 -0.005400
       6   -0.000076 -0.000893 -0.006695 -0.001910 -0.005400  0.046303
-------------------------------------------------------------------------------

  Mechanical properties :

-------------------------------------------------------------------------------
  Convention :                    Reuss         Voigt         Hill
-------------------------------------------------------------------------------
  Bulk  Modulus (GPa)     =      15.87718      30.35014      23.11366
  Shear Modulus (GPa)     =       7.34566      15.81876      11.58221
-------------------------------------------------------------------------------
  Velocity S-wave (km/s)  =       1.91229       2.80624       2.40123
  Velocity P-wave (km/s)  =       3.57490       5.06054       4.38115
-------------------------------------------------------------------------------
  Compressibility (1/GPa) =    0.06298350
-------------------------------------------------------------------------------
  Stress axis :                     x             y             z
-------------------------------------------------------------------------------
  Youngs Moduli (GPa)     =      19.52281      40.49819       5.18118
-------------------------------------------------------------------------------
  Poissons Ratio (x)      =                    -0.22478       0.36873
  Poissons Ratio (y)      =      -0.10836                     0.19352
  Poissons Ratio (z)      =       1.38939       1.51267
-------------------------------------------------------------------------------


  Piezoelectric Strain Matrix: (Units=C/m**2)

-------------------------------------------------------------------------------
  Indices      1         2         3         4         5         6    
-------------------------------------------------------------------------------
       x    -0.01834   0.35581   0.59934  -0.10998   0.33712   0.31507
       y     0.37024  -0.59348  -0.12982   0.03290  -0.16783  -0.05372
       z    -0.35057  -0.55433  -0.15032   0.21943  -0.51242   0.10409
-------------------------------------------------------------------------------


  Piezoelectric Stress Matrix: (Units=10**-11 C/N)

-------------------------------------------------------------------------------
  Indices      1         2         3         4         5         6    
-------------------------------------------------------------------------------
       x    -3.90173  -1.24489   9.73083  -1.27156   0.71981   0.86494
       y     2.35833  -0.84965  -2.66793   0.33702  -0.55740  -0.02729
       z    -1.42762  -1.23726   2.22687   2.01423  -2.77555   0.86955
-------------------------------------------------------------------------------


  Static dielectric constant tensor : 

-------------------------------------------------------------------------------
              x         y         z
-------------------------------------------------------------------------------
       x     4.19610   0.04856  -0.10883
       y     0.04856   4.27616   0.00282
       z    -0.10883   0.00282   3.39038
--------------------------------------------------------------------------------

  High frequency dielectric constant tensor : 

-------------------------------------------------------------------------------
              x         y         z
-------------------------------------------------------------------------------
       x     1.67261   0.00006   0.00028
       y     0.00006   1.67964   0.00083
       z     0.00028   0.00083   1.61182
-------------------------------------------------------------------------------

  Static refractive indices : 

-------------------------------------------------------------------------------
    1 =    1.83735      2 =    2.04583      3 =    2.07398
-------------------------------------------------------------------------------

  High frequency refractive indices : 

-------------------------------------------------------------------------------
    1 =    1.26957      2 =    1.29329      3 =    1.29601
-------------------------------------------------------------------------------


  Time to end of optimisation =      13.6982 seconds


  Peak dynamic memory used =       5.01 MB 


  Timing analysis for GULP :

--------------------------------------------------------------------------------
  Task / Subroutine                                          Time (Seconds)
--------------------------------------------------------------------------------
  Calculation of reciprocal space energy and derivatives          0.8232
  Calculation of real space energy and derivatives                8.2965
  Calculation of three-body energy and derivatives                0.6437
  Calculation and manipulation of Hessian matrix                  4.5984
  Calculation of matrix inversion                                 0.0371
  Global summation overhead                                       0.0002
--------------------------------------------------------------------------------
  Total CPU time                                                 13.6982
--------------------------------------------------------------------------------


  Dump file written as c00383.vasp.grs
  CIF file written as c00383.vasp.cif


  Job Finished at 12:56.31 31st October    2025                               

