********************************************************************************
*                       GENERAL UTILITY LATTICE PROGRAM                        *
*                                 Julian Gale                                  *
*                       Curtin Institute for Computation                       *
*                    School of Molecular and Life Sciences                     *
*                    Curtin University, Western Australia                      *
********************************************************************************
* Version = 6.1.2 * Last modified =   3rd November 2022                        *
********************************************************************************
*  optimise     - perform optimisation run                                     *
*  conp         - constant pressure calculation                                *
*  property     - calculate properties for final geometry                      *
********************************************************************************

  Job Started  at 12:48.36 31st October    2025                               

  Number of CPUs =     1


  Total number of configurations input =      1

********************************************************************************
*  Input for Configuration =   1 : c00341.vasp                                 *
********************************************************************************

  Formula = Ge4Si20O48                                                  

  Number of irreducible atoms/shells =     120


  Total number atoms/shells =     120

  Dimensionality = 3               :  Bulk   



  Cartesian lattice vectors (Angstroms) :

       17.182800    0.000000    0.000000
        0.000000    7.513760    0.000000
        0.000000    0.000000   10.447700

  Cell parameters (Angstroms/Degrees):

  a =      17.1828    alpha =  90.0000
  b =       7.5138    beta  =  90.0000
  c =      10.4477    gamma =  90.0000

  Initial cell volume =        1348.875752 Angs**3

  Temperature of configuration =   0.00     K 

  Pressure of configuration =         0.000 GPa 

  Fractional coordinates of asymmetric unit :

--------------------------------------------------------------------------------
   No.  Atomic       x           y          z         Charge      Occupancy
        Label      (Frac)      (Frac)     (Frac)        (e)         (Frac)  
--------------------------------------------------------------------------------
      1 Ge    c    0.052090    0.000000    0.372270     4.00000    1.000000    
      2 Ge    c    0.943270 *  0.000000 *  0.122130 *   4.00000    1.000000    
      3 Ge    c    0.660660 *  0.294090 *  0.017440 *   4.00000    1.000000    
      4 Ge    c    0.339340 *  0.705910 *  0.982560 *   4.00000    1.000000    
      5 Si    c    0.447910 *  0.000000 *  0.372270 *   4.00000    1.000000    
      6 Si    c    0.947910 *  0.000000 *  0.627730 *   4.00000    1.000000    
      7 Si    c    0.552090 *  0.000000 *  0.627730 *   4.00000    1.000000    
      8 Si    c    0.556730 *  0.000000 *  0.122130 *   4.00000    1.000000    
      9 Si    c    0.443270 *  0.000000 *  0.877870 *   4.00000    1.000000    
     10 Si    c    0.056730 *  0.000000 *  0.877870 *   4.00000    1.000000    
     11 Si    c    0.160190 *  0.293910 *  0.273440 *   4.00000    1.000000    
     12 Si    c    0.339810 *  0.706090 *  0.273440 *   4.00000    1.000000    
     13 Si    c    0.839810 *  0.293910 *  0.726560 *   4.00000    1.000000    
     14 Si    c    0.660190 *  0.706090 *  0.726560 *   4.00000    1.000000    
     15 Si    c    0.839810 *  0.706090 *  0.726560 *   4.00000    1.000000    
     16 Si    c    0.660190 *  0.293910 *  0.726560 *   4.00000    1.000000    
     17 Si    c    0.160190 *  0.706090 *  0.273440 *   4.00000    1.000000    
     18 Si    c    0.339810 *  0.293910 *  0.273440 *   4.00000    1.000000    
     19 Si    c    0.839340 *  0.705910 *  0.017440 *   4.00000    1.000000    
     20 Si    c    0.339340 *  0.294090 *  0.982560 *   4.00000    1.000000    
     21 Si    c    0.160660 *  0.705910 *  0.982560 *   4.00000    1.000000    
     22 Si    c    0.160660 *  0.294090 *  0.982560 *   4.00000    1.000000    
     23 Si    c    0.660660 *  0.705910 *  0.017440 *   4.00000    1.000000    
     24 Si    c    0.839340 *  0.294090 *  0.017440 *   4.00000    1.000000    
     25 O3    c    0.106570 *  0.174340 *  0.366200 *   1.33043    1.000000    
     26 O2    c    0.393430 *  0.825660 *  0.366200 *   0.87073    1.000000    
     27 O2    c    0.893430 *  0.174340 *  0.633800 *   0.87073    1.000000    
     28 O2    c    0.606570 *  0.825660 *  0.633800 *   0.87073    1.000000    
     29 O2    c    0.893430 *  0.825660 *  0.633800 *   0.87073    1.000000    
     30 O2    c    0.606570 *  0.174340 *  0.633800 *   0.87073    1.000000    
     31 O3    c    0.106570 *  0.825660 *  0.366200 *   1.33043    1.000000    
     32 O2    c    0.393430 *  0.174340 *  0.366200 *   0.87073    1.000000    
     33 O3    c    0.000000 *  0.000000 *  0.500000 *   1.33043    1.000000    
     34 O2    c    0.500000 *  0.000000 *  0.500000 *   0.87073    1.000000    
     35 O1    c    0.994520 *  0.000000 *  0.250840 *   1.73396    1.000000    
     36 O2    c    0.505480 *  0.000000 *  0.250840 *   0.87073    1.000000    
     37 O2    c    0.005480 *  0.000000 *  0.749160 *   0.87073    1.000000    
     38 O2    c    0.494520 *  0.000000 *  0.749160 *   0.87073    1.000000    
     39 O3    c    0.610230 *  0.175520 *  0.115390 *   1.33043    1.000000    
     40 O3    c    0.889770 *  0.824480 *  0.115390 *   1.33043    1.000000    
     41 O2    c    0.389770 *  0.175520 *  0.884610 *   0.87073    1.000000    
     42 O2    c    0.110230 *  0.824480 *  0.884610 *   0.87073    1.000000    
     43 O3    c    0.389770 *  0.824480 *  0.884610 *   1.33043    1.000000    
     44 O2    c    0.110230 *  0.175520 *  0.884610 *   0.87073    1.000000    
     45 O2    c    0.610230 *  0.824480 *  0.115390 *   0.87073    1.000000    
     46 O3    c    0.889770 *  0.175520 *  0.115390 *   1.33043    1.000000    
     47 O2    c    0.500000 *  0.000000 *  0.000000 *   0.87073    1.000000    
     48 O3    c    0.000000 *  0.000000 *  0.000000 *   1.33043    1.000000    
     49 O2    c    0.151750 *  0.500000 *  0.313330 *   0.87073    1.000000    
     50 O2    c    0.348250 *  0.500000 *  0.313330 *   0.87073    1.000000    
     51 O2    c    0.848250 *  0.500000 *  0.686670 *   0.87073    1.000000    
     52 O2    c    0.651750 *  0.500000 *  0.686670 *   0.87073    1.000000    
     53 O2    c    0.250000 *  0.234950 *  0.285720 *   0.87073    1.000000    
     54 O2    c    0.250000 *  0.765050 *  0.285720 *   0.87073    1.000000    
     55 O2    c    0.750000 *  0.234950 *  0.714280 *   0.87073    1.000000    
     56 O2    c    0.750000 *  0.765050 *  0.714280 *   0.87073    1.000000    
     57 O2    c    0.131410 *  0.268650 *  0.127790 *   0.87073    1.000000    
     58 O3    c    0.368590 *  0.731350 *  0.127790 *   1.33043    1.000000    
     59 O2    c    0.868590 *  0.268650 *  0.872210 *   0.87073    1.000000    
     60 O2    c    0.631410 *  0.731350 *  0.872210 *   0.87073    1.000000    
     61 O2    c    0.868590 *  0.731350 *  0.872210 *   0.87073    1.000000    
     62 O3    c    0.631410 *  0.268650 *  0.872210 *   1.33043    1.000000    
     63 O2    c    0.131410 *  0.731350 *  0.127790 *   0.87073    1.000000    
     64 O2    c    0.368590 *  0.268650 *  0.127790 *   0.87073    1.000000    
     65 O3    c    0.653920 *  0.500000 *  0.058200 *   1.33043    1.000000    
     66 O2    c    0.846080 *  0.500000 *  0.058200 *   0.87073    1.000000    
     67 O3    c    0.346080 *  0.500000 *  0.941800 *   1.33043    1.000000    
     68 O2    c    0.153920 *  0.500000 *  0.941800 *   0.87073    1.000000    
     69 O3    c    0.750000 *  0.231060 *  0.027050 *   1.33043    1.000000    
     70 O2    c    0.750000 *  0.768940 *  0.027050 *   0.87073    1.000000    
     71 O2    c    0.250000 *  0.231060 *  0.972950 *   0.87073    1.000000    
     72 O3    c    0.250000 *  0.768940 *  0.972950 *   1.33043    1.000000    
     73 O3    s    0.106570 *  0.174340 *  0.366200 *  -3.33043    1.000000    
     74 O2    s    0.393430 *  0.825660 *  0.366200 *  -2.87073    1.000000    
     75 O2    s    0.893430 *  0.174340 *  0.633800 *  -2.87073    1.000000    
     76 O2    s    0.606570 *  0.825660 *  0.633800 *  -2.87073    1.000000    
     77 O2    s    0.893430 *  0.825660 *  0.633800 *  -2.87073    1.000000    
     78 O2    s    0.606570 *  0.174340 *  0.633800 *  -2.87073    1.000000    
     79 O3    s    0.106570 *  0.825660 *  0.366200 *  -3.33043    1.000000    
     80 O2    s    0.393430 *  0.174340 *  0.366200 *  -2.87073    1.000000    
     81 O3    s    0.000000 *  0.000000 *  0.500000 *  -3.33043    1.000000    
     82 O2    s    0.500000 *  0.000000 *  0.500000 *  -2.87073    1.000000    
     83 O1    s    0.994520 *  0.000000 *  0.250840 *  -3.73396    1.000000    
     84 O2    s    0.505480 *  0.000000 *  0.250840 *  -2.87073    1.000000    
     85 O2    s    0.005480 *  0.000000 *  0.749160 *  -2.87073    1.000000    
     86 O2    s    0.494520 *  0.000000 *  0.749160 *  -2.87073    1.000000    
     87 O3    s    0.610230 *  0.175520 *  0.115390 *  -3.33043    1.000000    
     88 O3    s    0.889770 *  0.824480 *  0.115390 *  -3.33043    1.000000    
     89 O2    s    0.389770 *  0.175520 *  0.884610 *  -2.87073    1.000000    
     90 O2    s    0.110230 *  0.824480 *  0.884610 *  -2.87073    1.000000    
     91 O3    s    0.389770 *  0.824480 *  0.884610 *  -3.33043    1.000000    
     92 O2    s    0.110230 *  0.175520 *  0.884610 *  -2.87073    1.000000    
     93 O2    s    0.610230 *  0.824480 *  0.115390 *  -2.87073    1.000000    
     94 O3    s    0.889770 *  0.175520 *  0.115390 *  -3.33043    1.000000    
     95 O2    s    0.500000 *  0.000000 *  0.000000 *  -2.87073    1.000000    
     96 O3    s    0.000000 *  0.000000 *  0.000000 *  -3.33043    1.000000    
     97 O2    s    0.151750 *  0.500000 *  0.313330 *  -2.87073    1.000000    
     98 O2    s    0.348250 *  0.500000 *  0.313330 *  -2.87073    1.000000    
     99 O2    s    0.848250 *  0.500000 *  0.686670 *  -2.87073    1.000000    
    100 O2    s    0.651750 *  0.500000 *  0.686670 *  -2.87073    1.000000    
    101 O2    s    0.250000 *  0.234950 *  0.285720 *  -2.87073    1.000000    
    102 O2    s    0.250000 *  0.765050 *  0.285720 *  -2.87073    1.000000    
    103 O2    s    0.750000 *  0.234950 *  0.714280 *  -2.87073    1.000000    
    104 O2    s    0.750000 *  0.765050 *  0.714280 *  -2.87073    1.000000    
    105 O2    s    0.131410 *  0.268650 *  0.127790 *  -2.87073    1.000000    
    106 O3    s    0.368590 *  0.731350 *  0.127790 *  -3.33043    1.000000    
    107 O2    s    0.868590 *  0.268650 *  0.872210 *  -2.87073    1.000000    
    108 O2    s    0.631410 *  0.731350 *  0.872210 *  -2.87073    1.000000    
    109 O2    s    0.868590 *  0.731350 *  0.872210 *  -2.87073    1.000000    
    110 O3    s    0.631410 *  0.268650 *  0.872210 *  -3.33043    1.000000    
    111 O2    s    0.131410 *  0.731350 *  0.127790 *  -2.87073    1.000000    
    112 O2    s    0.368590 *  0.268650 *  0.127790 *  -2.87073    1.000000    
    113 O3    s    0.653920 *  0.500000 *  0.058200 *  -3.33043    1.000000    
    114 O2    s    0.846080 *  0.500000 *  0.058200 *  -2.87073    1.000000    
    115 O3    s    0.346080 *  0.500000 *  0.941800 *  -3.33043    1.000000    
    116 O2    s    0.153920 *  0.500000 *  0.941800 *  -2.87073    1.000000    
    117 O3    s    0.750000 *  0.231060 *  0.027050 *  -3.33043    1.000000    
    118 O2    s    0.750000 *  0.768940 *  0.027050 *  -2.87073    1.000000    
    119 O2    s    0.250000 *  0.231060 *  0.972950 *  -2.87073    1.000000    
    120 O3    s    0.250000 *  0.768940 *  0.972950 *  -3.33043    1.000000    
--------------------------------------------------------------------------------



********************************************************************************
*  General input information                                                   *
********************************************************************************

  Species output for all configurations : 

--------------------------------------------------------------------------------
  Species    Type    Atomic    Atomic    Charge       Radii (Angs)     Library
                     Number     Mass       (e)     Cova   Ionic  VDW   Symbol
--------------------------------------------------------------------------------
    Ge       Core       32      72.61   4.000000   1.170  0.000  1.750 Ge       
    Si       Core       14      28.09   4.000000   1.200  0.000  2.100 Si       
    O1       Core        8      16.00   1.733957   0.730  0.000  1.360 O1       
    O2       Core        8      16.00   0.870733   0.730  0.000  1.360 O2       
    O3       Core        8      16.00   1.330431   0.730  0.000  1.360 O3       
    O1       Shell       8       0.00  -3.733957   0.730  0.000  0.000 O1       
    O2       Shell       8       0.00  -2.870733   0.730  0.000  0.000 O2       
    O3       Shell       8       0.00  -3.330431   0.730  0.000  0.000 O3       
--------------------------------------------------------------------------------


  Lattice summation method               =    Ewald          (3-D)
                                         =    Parry          (2-D)
                                         =    Saunders et al (1-D)
  Accuracy factor for lattice sums       =   12.000


  Analytic derivatives to be used

  Time limit = Infinity

  Maximum range for interatomic potentials =    100000.000000 Angstroms

  General interatomic potentials :

--------------------------------------------------------------------------------
Atom  Types   Potential      Parameter       Value         Units   Cutoffs(Ang)
  1     2                                                            Min /  Max 
--------------------------------------------------------------------------------
Si   c O1   s Buckingham    Buckingham A     1315.2478    eV        0.000 16.000
                            Buckingham rho  0.31775900    Ang       
                            Buckingham C     10.141118    eV*Ang^6  
--------------------------------------------------------------------------------
Si   c O2   s Buckingham    Buckingham A     1315.2478    eV        0.000 16.000
                            Buckingham rho  0.31775900    Ang       
                            Buckingham C     10.141118    eV*Ang^6  
--------------------------------------------------------------------------------
Si   c O3   s Buckingham    Buckingham A     1315.2478    eV        0.000 16.000
                            Buckingham rho  0.31775900    Ang       
                            Buckingham C     10.141118    eV*Ang^6  
--------------------------------------------------------------------------------
Ge   c O1   s Buckingham    Buckingham A     1497.3996    eV        0.000 16.000
                            Buckingham rho  0.32564600    Ang       
                            Buckingham C     16.808599    eV*Ang^6  
--------------------------------------------------------------------------------
Ge   c O2   s Buckingham    Buckingham A     1497.3996    eV        0.000 16.000
                            Buckingham rho  0.32564600    Ang       
                            Buckingham C     16.808599    eV*Ang^6  
--------------------------------------------------------------------------------
Ge   c O3   s Buckingham    Buckingham A     1497.3996    eV        0.000 16.000
                            Buckingham rho  0.32564600    Ang       
                            Buckingham C     16.808599    eV*Ang^6  
--------------------------------------------------------------------------------
O1   s O1   s Buckingham    Buckingham A     22764.000    eV        0.000 16.000
                            Buckingham rho  0.14900000    Ang       
                            Buckingham C     10.937044    eV*Ang^6  
--------------------------------------------------------------------------------
O1   s O2   s Buckingham    Buckingham A     22764.000    eV        0.000 16.000
                            Buckingham rho  0.14900000    Ang       
                            Buckingham C     10.937044    eV*Ang^6  
--------------------------------------------------------------------------------
O1   s O3   s Buckingham    Buckingham A     22764.000    eV        0.000 16.000
                            Buckingham rho  0.14900000    Ang       
                            Buckingham C     10.937044    eV*Ang^6  
--------------------------------------------------------------------------------
O2   s O2   s Buckingham    Buckingham A     22764.000    eV        0.000 16.000
                            Buckingham rho  0.14900000    Ang       
                            Buckingham C     10.937044    eV*Ang^6  
--------------------------------------------------------------------------------
O2   s O3   s Buckingham    Buckingham A     22764.000    eV        0.000 16.000
                            Buckingham rho  0.14900000    Ang       
                            Buckingham C     10.937044    eV*Ang^6  
--------------------------------------------------------------------------------
O3   s O3   s Buckingham    Buckingham A     22764.000    eV        0.000 16.000
                            Buckingham rho  0.14900000    Ang       
                            Buckingham C     10.937044    eV*Ang^6  
--------------------------------------------------------------------------------
O1   c O1   s Spring (c-s)  Spring k 2       180.31577    eV*Ang^-2 0.000  0.800
                            Spring k 4       0.0000000    eV*Ang^-4 
--------------------------------------------------------------------------------
O2   c O2   s Spring (c-s)  Spring k 2       75.969800    eV*Ang^-2 0.000  0.800
                            Spring k 4       0.0000000    eV*Ang^-4 
--------------------------------------------------------------------------------
O3   c O3   s Spring (c-s)  Spring k 2       128.14270    eV*Ang^-2 0.000  0.800
                            Spring k 4       0.0000000    eV*Ang^-4 
--------------------------------------------------------------------------------

  General Three-body potentials :

--------------------------------------------------------------------------------
  Atoms       Potential      Parameter       Value         Units   Cutoffs(Ang)
  1 / 2 / 3                                                          Min /  Max 
--------------------------------------------------------------------------------
Si    core    Harmonic      Three-body cnst  1.2614000    eV*rad^-2 0.000  1.900
O1    shel                  Three-body angl  109.47000    degrees   0.000  1.900
O1    shel                  Three-body k4    0.0000000    eV*rad^-4 0.000  3.500
                            Three-body k3    0.0000000    eV*rad^-3 
--------------------------------------------------------------------------------
Si    core    Harmonic      Three-body cnst  1.2614000    eV*rad^-2 0.000  1.900
O1    shel                  Three-body angl  109.47000    degrees   0.000  1.900
õ(1   shel                  Three-body k4    0.0000000    eV*rad^-4 0.000  3.500
                            Three-body k3    0.0000000    eV*rad^-3 
--------------------------------------------------------------------------------
Si    core    Harmonic      Three-body cnst  1.2614000    eV*rad^-2 0.000  1.900
õ(1   shel                  Three-body angl  109.47000    degrees   0.000  1.900
õ(1   shel                  Three-body k4    0.0000000    eV*rad^-4 0.000  3.500
                            Three-body k3    0.0000000    eV*rad^-3 
--------------------------------------------------------------------------------
Si    core    Harmonic      Three-body cnst  1.2614000    eV*rad^-2 0.000  1.900
O1    shel                  Three-body angl  109.47000    degrees   0.000  1.900
O2    shel                  Three-body k4    0.0000000    eV*rad^-4 0.000  3.500
                            Three-body k3    0.0000000    eV*rad^-3 
--------------------------------------------------------------------------------
Si    core    Harmonic      Three-body cnst  1.2614000    eV*rad^-2 0.000  1.900
O1    shel                  Three-body angl  109.47000    degrees   0.000  1.900
õ(2   shel                  Three-body k4    0.0000000    eV*rad^-4 0.000  3.500
                            Three-body k3    0.0000000    eV*rad^-3 
--------------------------------------------------------------------------------
Si    core    Harmonic      Three-body cnst  1.2614000    eV*rad^-2 0.000  1.900
O2    shel                  Three-body angl  109.47000    degrees   0.000  1.900
õ(1   shel                  Three-body k4    0.0000000    eV*rad^-4 0.000  3.500
                            Three-body k3    0.0000000    eV*rad^-3 
--------------------------------------------------------------------------------
Si    core    Harmonic      Three-body cnst  1.2614000    eV*rad^-2 0.000  1.900
õ(1   shel                  Three-body angl  109.47000    degrees   0.000  1.900
õ(2   shel                  Three-body k4    0.0000000    eV*rad^-4 0.000  3.500
                            Three-body k3    0.0000000    eV*rad^-3 
--------------------------------------------------------------------------------
Si    core    Harmonic      Three-body cnst  1.2614000    eV*rad^-2 0.000  1.900
O2    shel                  Three-body angl  109.47000    degrees   0.000  1.900
O2    shel                  Three-body k4    0.0000000    eV*rad^-4 0.000  3.500
                            Three-body k3    0.0000000    eV*rad^-3 
--------------------------------------------------------------------------------
Si    core    Harmonic      Three-body cnst  1.2614000    eV*rad^-2 0.000  1.900
O2    shel                  Three-body angl  109.47000    degrees   0.000  1.900
õ(2   shel                  Three-body k4    0.0000000    eV*rad^-4 0.000  3.500
                            Three-body k3    0.0000000    eV*rad^-3 
--------------------------------------------------------------------------------
Si    core    Harmonic      Three-body cnst  1.2614000    eV*rad^-2 0.000  1.900
õ(2   shel                  Three-body angl  109.47000    degrees   0.000  1.900
õ(2   shel                  Three-body k4    0.0000000    eV*rad^-4 0.000  3.500
                            Three-body k3    0.0000000    eV*rad^-3 
--------------------------------------------------------------------------------

********************************************************************************
*  Output for configuration   1 : c00341.vasp                                  *
********************************************************************************


  Components of energy : 

--------------------------------------------------------------------------------
  Interatomic potentials     =         768.38726474 eV    
  Three-body potentials      =           0.00987827 eV    
  Monopole - monopole (real) =       -2676.00317478 eV    
  Monopole - monopole (recip)=       -1115.35404472 eV    
  Monopole - monopole (total)=       -3791.35721950 eV    
--------------------------------------------------------------------------------
  Total lattice energy       =       -3022.96007649 eV    
--------------------------------------------------------------------------------
  Total lattice energy       =         -291669.4372 kJ/(mole unit cells)
--------------------------------------------------------------------------------


  Number of variables =      363

  Maximum number of calculations  =          1000
  Maximum Hessian update interval =            10
  Maximum step size               =   0.100000000
  Maximum parameter tolerance     =   0.000010000
  Maximum function  tolerance     =   0.000010000
  Maximum gradient  tolerance     =   0.001000000
  Maximum gradient  component     =   0.010000000

  Symmetry not applied to optimisation

  Cell parameters to be optimised using strains

  Newton-Raphson optimiser to be used

  BFGS hessian update to be used

  Lower half triangular hessian to be used

  Minimiser to switch to RFO
  When gradient norm is less than     0.050000

  Dumpfile to be written after every cycle

  Start of bulk optimisation :

  Cycle:      0 Energy:     -3022.960076  Gnorm:      4.462626  CPU:    0.126
  ** Hessian calculated **
  Cycle:      1 Energy:     -3054.194226  Gnorm:      1.000835  CPU:    0.277
  ** Hessian calculated **
  Cycle:      2 Energy:     -3056.785270  Gnorm:      0.571874  CPU:    0.507
  Cycle:      3 Energy:     -3057.683713  Gnorm:      0.381203  CPU:    0.627
  Cycle:      4 Energy:     -3058.524225  Gnorm:      0.303572  CPU:    0.769
  Cycle:      5 Energy:     -3059.311036  Gnorm:      0.234842  CPU:    0.911
  Cycle:      6 Energy:     -3059.780084  Gnorm:      0.187142  CPU:    1.031
  Cycle:      7 Energy:     -3060.050457  Gnorm:      0.136381  CPU:    1.149
  Cycle:      8 Energy:     -3060.187296  Gnorm:      0.100802  CPU:    1.268
  Cycle:      9 Energy:     -3060.244211  Gnorm:      0.072065  CPU:    1.388
  Cycle:     10 Energy:     -3060.286534  Gnorm:      0.064449  CPU:    1.530
  Cycle:     11 Energy:     -3060.324846  Gnorm:      0.065451  CPU:    1.671
  ** Hessian calculated **
  Cycle:     12 Energy:     -3060.368528  Gnorm:      0.063016  CPU:    1.916
  Cycle:     13 Energy:     -3060.437867  Gnorm:      0.058888  CPU:    2.075
  Cycle:     14 Energy:     -3060.516885  Gnorm:      0.053739  CPU:    2.213
  Cycle:     15 Energy:     -3060.627988  Gnorm:      0.045539  CPU:    2.373
  ** Hessian has wrong structure
  ** Imaginary eigenvectors =   3
  Cycle:     16 Energy:     -3060.654551  Gnorm:      0.168595  CPU:    2.727
  ** Hessian has wrong structure
  ** Imaginary eigenvectors =   3
  ** Hessian has wrong structure
  ** Imaginary eigenvectors =   2
  Cycle:     17 Energy:     -3060.727998  Gnorm:      0.181747  CPU:    3.344
  ** Hessian has wrong structure
  ** Imaginary eigenvectors =   1
  ** Hessian has required structure
  Cycle:     18 Energy:     -3061.034976  Gnorm:      0.110601  CPU:    3.842
  ** Hessian has required structure
  Cycle:     19 Energy:     -3061.166394  Gnorm:      0.052802  CPU:    4.048
  ** Hessian has required structure
  Cycle:     20 Energy:     -3061.210868  Gnorm:      0.045307  CPU:    4.214
  ** Hessian has required structure
  Cycle:     21 Energy:     -3061.254849  Gnorm:      0.026147  CPU:    4.383
  ** Hessian has required structure
  Cycle:     22 Energy:     -3061.278500  Gnorm:      0.027285  CPU:    4.568
  ** Hessian has required structure
  Cycle:     23 Energy:     -3061.299499  Gnorm:      0.024098  CPU:    4.733
  ** Hessian has required structure
  Cycle:     24 Energy:     -3061.319032  Gnorm:      0.026174  CPU:    4.919
  ** Hessian has required structure
  Cycle:     25 Energy:     -3061.330833  Gnorm:      0.020870  CPU:    5.089
  ** Hessian has required structure
  Cycle:     26 Energy:     -3061.340341  Gnorm:      0.013248  CPU:    5.252
  ** Hessian has required structure
  Cycle:     27 Energy:     -3061.346070  Gnorm:      0.021654  CPU:    5.416
  ** Hessian has required structure
  Cycle:     28 Energy:     -3061.365588  Gnorm:      0.013304  CPU:    5.688
  ** Hessian has required structure
  Cycle:     29 Energy:     -3061.373240  Gnorm:      0.009673  CPU:    5.852
  ** Hessian has required structure
  Cycle:     30 Energy:     -3061.375941  Gnorm:      0.005658  CPU:    6.035
  ** Hessian has required structure
  Cycle:     31 Energy:     -3061.376796  Gnorm:      0.005661  CPU:    6.199
  ** Hessian has required structure
  Cycle:     32 Energy:     -3061.377391  Gnorm:      0.002543  CPU:    6.362
  ** Hessian has required structure
  Cycle:     33 Energy:     -3061.377703  Gnorm:      0.002603  CPU:    6.544
  ** Hessian has required structure
  Cycle:     34 Energy:     -3061.377898  Gnorm:      0.002201  CPU:    6.728
  ** Hessian has required structure
  Cycle:     35 Energy:     -3061.378056  Gnorm:      0.001631  CPU:    6.912
  ** Hessian has required structure
  Cycle:     36 Energy:     -3061.378154  Gnorm:      0.000955  CPU:    7.092
  ** Hessian has required structure
  Cycle:     37 Energy:     -3061.378188  Gnorm:      0.000651  CPU:    7.254
  ** Hessian has required structure
  Cycle:     38 Energy:     -3061.378206  Gnorm:      0.000331  CPU:    7.521
  ** Hessian has required structure
  Cycle:     39 Energy:     -3061.378210  Gnorm:      0.000234  CPU:    7.662
  ** Hessian has required structure
  Cycle:     40 Energy:     -3061.378211  Gnorm:      0.000164  CPU:    7.804
  ** Hessian has required structure
  Cycle:     41 Energy:     -3061.378212  Gnorm:      0.000148  CPU:    7.946
  ** Hessian has required structure
  Cycle:     42 Energy:     -3061.378212  Gnorm:      0.000140  CPU:    8.087
  ** Hessian has required structure
  Cycle:     43 Energy:     -3061.378212  Gnorm:      0.000138  CPU:    8.226
  ** Hessian has required structure
  Cycle:     44 Energy:     -3061.378212  Gnorm:      0.000137  CPU:    8.367
  ** Hessian has required structure
  Cycle:     45 Energy:     -3061.378212  Gnorm:      0.000137  CPU:    8.507
  ** Hessian has required structure
  Cycle:     46 Energy:     -3061.378212  Gnorm:      0.000137  CPU:    8.648
  ** Hessian has required structure
  Cycle:     47 Energy:     -3061.378212  Gnorm:      0.000137  CPU:    8.817
  ** Hessian has required structure
  Cycle:     48 Energy:     -3061.378211  Gnorm:      0.000137  CPU:    9.212
  ** Hessian calculated **
  Cycle:     49 Energy:     -3061.378212  Gnorm:      0.000096  CPU:    9.406
  ** Hessian has required structure
  ** Hessian has required structure


  **** Optimisation achieved ****


  Final energy =   -3061.37821229 eV      
  Final Gnorm  =       0.00006716

  Components of energy : 

--------------------------------------------------------------------------------
  Interatomic potentials     =         816.21422833 eV    
  Three-body potentials      =           0.19854212 eV    
  Monopole - monopole (real) =       -2168.06733123 eV    
  Monopole - monopole (recip)=       -1709.72365151 eV    
  Monopole - monopole (total)=       -3877.79098274 eV    
--------------------------------------------------------------------------------
  Total lattice energy       =       -3061.37821229 eV    
--------------------------------------------------------------------------------
  Total lattice energy       =         -295376.2000 kJ/(mole unit cells)
--------------------------------------------------------------------------------

  Final fractional coordinates of atoms :

--------------------------------------------------------------------------------
   No.  Atomic        x           y          z          Radius
        Label       (Frac)      (Frac)     (Frac)       (Angs) 
--------------------------------------------------------------------------------
     1  Ge    c     0.052090    0.000000    0.372270    0.000000
     2  Ge    c     0.939682    0.014064    0.110587    0.000000
     3  Ge    c     0.638697    0.342582    0.023370    0.000000
     4  Ge    c     0.328754    0.728415    0.971536    0.000000
     5  Si    c     0.450733    0.007838    0.369551    0.000000
     6  Si    c     0.949723    0.996846    0.632106    0.000000
     7  Si    c     0.552874    0.016838    0.626030    0.000000
     8  Si    c     0.545213    0.021987    0.112865    0.000000
     9  Si    c     0.438774    0.009706    0.869649    0.000000
    10  Si    c     0.053124    0.007144    0.875139    0.000000
    11  Si    c     0.170302    0.283419    0.287478    0.000000
    12  Si    c     0.335798    0.722691    0.281436    0.000000
    13  Si    c     0.832308    0.289260    0.734616    0.000000
    14  Si    c     0.667209    0.725436    0.710673    0.000000
    15  Si    c     0.846081    0.694599    0.727388    0.000000
    16  Si    c     0.654447    0.322290    0.712361    0.000000
    17  Si    c     0.156684    0.686986    0.294077    0.000000
    18  Si    c     0.350580    0.316916    0.273704    0.000000
    19  Si    c     0.841115    0.695854    0.029956    0.000000
    20  Si    c     0.345884    0.323007    0.972104    0.000000
    21  Si    c     0.146111    0.692555    0.989269    0.000000
    22  Si    c     0.163672    0.291417    0.984982    0.000000
    23  Si    c     0.661335    0.743935    0.016514    0.000000
    24  Si    c     0.820349    0.299342    0.039322    0.000000
    25  O3    c     0.125347    0.156198    0.382326    0.000000
    26  O2    c     0.386975    0.852822    0.370478    0.000000
    27  O2    c     0.888769    0.153749    0.661345    0.000000
    28  O2    c     0.616216    0.858739    0.624406    0.000000
    29  O2    c     0.907261    0.808465    0.645429    0.000000
    30  O2    c     0.598293    0.201709    0.623438    0.000000
    31  O3    c     0.097842    0.797032    0.382118    0.000000
    32  O2    c     0.409069    0.198162    0.358251    0.000000
    33  O3    c     0.979764    0.018103    0.486833    0.000000
    34  O2    c     0.498167    0.001054    0.502023    0.000000
    35  O1    c     0.008229    0.036632    0.226181    0.000000
    36  O2    c     0.511529    0.975740    0.253266    0.000000
    37  O2    c     0.026353    0.004569    0.724368    0.000000
    38  O2    c     0.497650    0.002823    0.750955    0.000000
    39  O3    c     0.567679    0.225027    0.102588    0.000000
    40  O3    c     0.898171    0.807400    0.118295    0.000000
    41  O2    c     0.397944    0.201457    0.877548    0.000000
    42  O2    c     0.081889    0.812048    0.916993    0.000000
    43  O3    c     0.371994    0.865366    0.861045    0.000000
    44  O2    c     0.121682    0.150430    0.892559    0.000000
    45  O2    c     0.624400    0.909308    0.091703    0.000000
    46  O3    c     0.865117    0.165654    0.130079    0.000000
    47  O2    c     0.483603    0.962543    0.003401    0.000000
    48  O3    c     0.979954    0.061686    0.960784    0.000000
    49  O2    c     0.140579    0.481627    0.314184    0.000000
    50  O2    c     0.367693    0.522973    0.296176    0.000000
    51  O2    c     0.863621    0.486909    0.710210    0.000000
    52  O2    c     0.637989    0.527540    0.682842    0.000000
    53  O2    c     0.262661    0.271747    0.315164    0.000000
    54  O2    c     0.246221    0.731822    0.329657    0.000000
    55  O2    c     0.744442    0.275143    0.678371    0.000000
    56  O2    c     0.758899    0.739271    0.676031    0.000000
    57  O2    c     0.154733    0.232854    0.135488    0.000000
    58  O3    c     0.340289    0.785597    0.133113    0.000000
    59  O2    c     0.827339    0.242913    0.886995    0.000000
    60  O2    c     0.656183    0.775589    0.861568    0.000000
    61  O2    c     0.855574    0.748317    0.878762    0.000000
    62  O3    c     0.634914    0.282340    0.861325    0.000000
    63  O2    c     0.141781    0.738992    0.142973    0.000000
    64  O2    c     0.363877    0.269157    0.121775    0.000000
    65  O3    c     0.618134    0.563212    0.046878    0.000000
    66  O2    c     0.858856    0.491723    0.054598    0.000000
    67  O3    c     0.367911    0.521420    0.946763    0.000000
    68  O2    c     0.126781    0.486023    0.966018    0.000000
    69  O3    c     0.730912    0.303427    0.082081    0.000000
    70  O2    c     0.750698    0.733697    0.063087    0.000000
    71  O2    c     0.254157    0.294980    0.944457    0.000000
    72  O3    c     0.230779    0.732729    0.934175    0.000000
    73  O3    s     0.124294    0.157331    0.371586    0.000000
    74  O2    s     0.388213    0.855245    0.360671    0.000000
    75  O2    s     0.888975    0.152058    0.666550    0.000000
    76  O2    s     0.615115    0.860860    0.634104    0.000000
    77  O2    s     0.905001    0.815728    0.653016    0.000000
    78  O2    s     0.599452    0.194861    0.633188    0.000000
    79  O3    s     0.100277    0.801821    0.372264    0.000000
    80  O2    s     0.407023    0.191098    0.350086    0.000000
    81  O3    s     0.982810    0.014282    0.492372    0.000000
    82  O2    s     0.499017    0.003751    0.501000    0.000000
    83  O1    s     0.005836    0.031640    0.228128    0.000000
    84  O2    s     0.508563    0.984615    0.250190    0.000000
    85  O2    s     0.021301    0.004014    0.730797    0.000000
    86  O2    s     0.496893    0.005189    0.750946    0.000000
    87  O3    s     0.571234    0.214528    0.097141    0.000000
    88  O3    s     0.895492    0.812070    0.108464    0.000000
    89  O2    s     0.396569    0.194593    0.887084    0.000000
    90  O2    s     0.085878    0.819274    0.920598    0.000000
    91  O3    s     0.375178    0.868567    0.871096    0.000000
    92  O2    s     0.119110    0.150828    0.900978    0.000000
    93  O2    s     0.620126    0.902993    0.085492    0.000000
    94  O3    s     0.866411    0.167598    0.118918    0.000000
    95  O2    s     0.485503    0.973736    0.001134    0.000000
    96  O3    s     0.984337    0.052187    0.963944    0.000000
    97  O2    s     0.145526    0.482983    0.309109    0.000000
    98  O2    s     0.362509    0.521788    0.292223    0.000000
    99  O2    s     0.858495    0.488332    0.714567    0.000000
   100  O2    s     0.642860    0.526853    0.688896    0.000000
   101  O2    s     0.262320    0.277980    0.307636    0.000000
   102  O2    s     0.246277    0.726082    0.320814    0.000000
   103  O2    s     0.744296    0.281603    0.687816    0.000000
   104  O2    s     0.758295    0.733079    0.685050    0.000000
   105  O2    s     0.157228    0.243987    0.135186    0.000000
   106  O3    s     0.338905    0.774747    0.134642    0.000000
   107  O2    s     0.827149    0.253684    0.886206    0.000000
   108  O2    s     0.657964    0.766752    0.861570    0.000000
   109  O2    s     0.853108    0.737419    0.878206    0.000000
   110  O3    s     0.637180    0.291249    0.859541    0.000000
   111  O2    s     0.143735    0.728881    0.142416    0.000000
   112  O2    s     0.360646    0.279577    0.122309    0.000000
   113  O3    s     0.624008    0.563570    0.042049    0.000000
   114  O2    s     0.852903    0.493953    0.050289    0.000000
   115  O3    s     0.362432    0.517349    0.951430    0.000000
   116  O2    s     0.132578    0.486917    0.970397    0.000000
   117  O3    s     0.732245    0.306284    0.072873    0.000000
   118  O2    s     0.750683    0.730699    0.054423    0.000000
   119  O2    s     0.254084    0.297659    0.951901    0.000000
   120  O3    s     0.230101    0.728241    0.942918    0.000000
--------------------------------------------------------------------------------

  Final Cartesian lattice vectors (Angstroms) :

       17.134361    0.054900    0.000685
        0.023690    7.610078   -0.020317
       -0.000341   -0.029268   10.253391


  Final cell parameters and derivatives :

--------------------------------------------------------------------------------
       a           17.134449 Angstrom     dE/de1(xx)    -0.000166 eV/strain
       b            7.610142 Angstrom     dE/de2(yy)    -0.002832 eV/strain
       c           10.253433 Angstrom     dE/de3(zz)    -0.000664 eV/strain
       alpha       90.316517 Degrees      dE/de4(yz)     0.000068 eV/strain
       beta        90.000137 Degrees      dE/de5(xz)    -0.000045 eV/strain
       gamma       89.638066 Degrees      dE/de6(xy)    -0.000145 eV/strain
--------------------------------------------------------------------------------

  Primitive cell volume =          1336.955283 Angs**3

  Density of cell =      2.012419 g/cm**3

  Non-primitive cell volume =          1336.955283 Angs**3


  Final internal derivatives :

--------------------------------------------------------------------------------
   No.  Atomic          a             b             c           Radius
        Label          (eV)          (eV)          (eV)        (eV/Angs)
--------------------------------------------------------------------------------
      1 Ge    c       0.000000      0.000000      0.000000      0.000000
      2 Ge    c       0.000791     -0.000022     -0.000227      0.000000
      3 Ge    c       0.000746      0.001567     -0.000491      0.000000
      4 Ge    c      -0.001206     -0.001297      0.001800      0.000000
      5 Si    c      -0.004229      0.000408     -0.000322      0.000000
      6 Si    c       0.000426     -0.000143     -0.000056      0.000000
      7 Si    c       0.007838      0.000714      0.000930      0.000000
      8 Si    c       0.002278      0.000513      0.000335      0.000000
      9 Si    c      -0.002944      0.000382      0.002243      0.000000
     10 Si    c       0.000301      0.000064     -0.000768      0.000000
     11 Si    c       0.000207     -0.000027     -0.000382      0.000000
     12 Si    c      -0.000027     -0.000101     -0.001478      0.000000
     13 Si    c       0.000096      0.000013      0.000069      0.000000
     14 Si    c      -0.002100     -0.000593      0.001697      0.000000
     15 Si    c       0.000461      0.000028     -0.000156      0.000000
     16 Si    c      -0.002151      0.000272      0.000612      0.000000
     17 Si    c       0.000326      0.000067     -0.000537      0.000000
     18 Si    c       0.000800      0.000421     -0.000419      0.000000
     19 Si    c      -0.001421     -0.000698     -0.000294      0.000000
     20 Si    c       0.000429      0.001369      0.000317      0.000000
     21 Si    c       0.001613      0.000122      0.000142      0.000000
     22 Si    c       0.000282     -0.000081      0.000140      0.000000
     23 Si    c       0.000175     -0.000977     -0.000504      0.000000
     24 Si    c      -0.002818      0.001064      0.000204      0.000000
     25 O3    c       0.000790      0.000444      0.000363      0.000000
     26 O2    c      -0.000563     -0.000506      0.000231      0.000000
     27 O2    c      -0.000144      0.000153     -0.000248      0.000000
     28 O2    c       0.000862     -0.000721     -0.000254      0.000000
     29 O2    c       0.000008      0.000003     -0.000173      0.000000
     30 O2    c       0.000603      0.000597     -0.000073      0.000000
     31 O3    c       0.000063     -0.000239      0.000297      0.000000
     32 O2    c      -0.000043      0.000291      0.000273      0.000000
     33 O3    c      -0.002625      0.000089      0.001339      0.000000
     34 O2    c      -0.008354     -0.000489     -0.003078      0.000000
     35 O1    c       0.000981      0.000193      0.000287      0.000000
     36 O2    c       0.006521     -0.000564     -0.002000      0.000000
     37 O2    c       0.001464      0.000030      0.000537      0.000000
     38 O2    c       0.005147      0.000004     -0.001335      0.000000
     39 O3    c       0.000207      0.000327      0.000342      0.000000
     40 O3    c       0.000647     -0.000012      0.001037      0.000000
     41 O2    c      -0.000920      0.001172     -0.000493      0.000000
     42 O2    c       0.000019     -0.000444      0.000090      0.000000
     43 O3    c      -0.001553     -0.001088     -0.001728      0.000000
     44 O2    c       0.000214      0.000084     -0.000179      0.000000
     45 O2    c       0.001077     -0.001245     -0.000074      0.000000
     46 O3    c      -0.000029     -0.000125      0.000791      0.000000
     47 O2    c      -0.003369     -0.001156     -0.000308      0.000000
     48 O3    c      -0.003106      0.000409      0.001180      0.000000
     49 O2    c       0.000199     -0.000011     -0.000135      0.000000
     50 O2    c      -0.000560     -0.000218     -0.000460      0.000000
     51 O2    c       0.000008     -0.000035      0.000162      0.000000
     52 O2    c       0.001575      0.000678      0.001082      0.000000
     53 O2    c      -0.000870      0.000121      0.000006      0.000000
     54 O2    c       0.000999     -0.000229     -0.000298      0.000000
     55 O2    c       0.000224     -0.000167      0.000109      0.000000
     56 O2    c      -0.001145     -0.000047     -0.000058      0.000000
     57 O2    c       0.000077      0.000141      0.000138      0.000000
     58 O3    c      -0.001657     -0.000805      0.000503      0.000000
     59 O2    c       0.000679      0.000006      0.000270      0.000000
     60 O2    c       0.001401     -0.000902     -0.000062      0.000000
     61 O2    c       0.000006     -0.000168      0.000633      0.000000
     62 O3    c       0.000575      0.000944     -0.000474      0.000000
     63 O2    c       0.000551     -0.000222     -0.000231      0.000000
     64 O2    c      -0.000697      0.000311     -0.000373      0.000000
     65 O3    c       0.004511      0.000731     -0.002749      0.000000
     66 O2    c      -0.001695     -0.000970     -0.000674      0.000000
     67 O3    c      -0.002040     -0.000252      0.001520      0.000000
     68 O2    c       0.000240      0.000302      0.000173      0.000000
     69 O3    c       0.003444      0.000675     -0.000944      0.000000
     70 O2    c      -0.003949     -0.000378     -0.000548      0.000000
     71 O2    c       0.000488      0.000150      0.000135      0.000000
     72 O3    c       0.000432     -0.000780      0.001024      0.000000
     73 O3    s       0.000362      0.000124     -0.000130      0.000000
     74 O2    s      -0.002542     -0.000530     -0.000311      0.000000
     75 O2    s      -0.000230      0.000072     -0.000029      0.000000
     76 O2    s       0.003526     -0.001110      0.000983      0.000000
     77 O2    s      -0.000238     -0.000171      0.000173      0.000000
     78 O2    s       0.002955      0.000940      0.000551      0.000000
     79 O3    s       0.000376     -0.000289     -0.000336      0.000000
     80 O2    s      -0.002098      0.000772     -0.000082      0.000000
     81 O3    s       0.000493     -0.000024     -0.000729      0.000000
     82 O2    s       0.001162      0.000050      0.000126      0.000000
     83 O1    s      -0.000182      0.000023     -0.000260      0.000000
     84 O2    s      -0.000735     -0.000031      0.000136      0.000000
     85 O2    s      -0.000361     -0.000068     -0.000021      0.000000
     86 O2    s      -0.000215     -0.000313      0.000934      0.000000
     87 O3    s       0.001069      0.000698     -0.000190      0.000000
     88 O3    s      -0.000670     -0.000327     -0.000804      0.000000
     89 O2    s      -0.002409      0.001064      0.000902      0.000000
     90 O2    s       0.001002     -0.000333     -0.000008      0.000000
     91 O3    s      -0.003183     -0.000597      0.000215      0.000000
     92 O2    s       0.000678      0.000316     -0.000038      0.000000
     93 O2    s       0.001774     -0.001156     -0.000662      0.000000
     94 O3    s      -0.000719      0.000696     -0.000733      0.000000
     95 O2    s       0.001686      0.000163      0.001312      0.000000
     96 O3    s       0.000663     -0.000091     -0.000541      0.000000
     97 O2    s       0.001092     -0.000031     -0.000654      0.000000
     98 O2    s      -0.001740      0.000263     -0.000659      0.000000
     99 O2    s      -0.001095      0.000081      0.000085      0.000000
    100 O2    s       0.001756      0.000476      0.000980      0.000000
    101 O2    s       0.000200      0.000659     -0.001065      0.000000
    102 O2    s       0.000154     -0.000583     -0.001086      0.000000
    103 O2    s      -0.000305      0.000584      0.000962      0.000000
    104 O2    s      -0.001766     -0.000749      0.001700      0.000000
    105 O2    s       0.001456      0.000458     -0.000110      0.000000
    106 O3    s      -0.001021     -0.000330      0.000355      0.000000
    107 O2    s      -0.001945      0.000690      0.000562      0.000000
    108 O2    s       0.002307     -0.000345      0.001041      0.000000
    109 O2    s      -0.001490     -0.000251     -0.000006      0.000000
    110 O3    s       0.000691     -0.000353      0.000349      0.000000
    111 O2    s       0.001395     -0.000551     -0.000244      0.000000
    112 O2    s      -0.001406      0.000333     -0.000095      0.000000
    113 O3    s       0.001548      0.000939     -0.000257      0.000000
    114 O2    s      -0.001002     -0.000096     -0.000492      0.000000
    115 O3    s      -0.001501     -0.000173      0.000528      0.000000
    116 O2    s       0.001411      0.000160      0.000558      0.000000
    117 O3    s      -0.000819      0.000344     -0.000953      0.000000
    118 O2    s      -0.001139     -0.000671     -0.002329      0.000000
    119 O2    s       0.000863      0.000562      0.001221      0.000000
    120 O3    s      -0.000308     -0.000281      0.000974      0.000000
--------------------------------------------------------------------------------
  Maximum abs         0.008354      0.001567      0.003078      0.000000
--------------------------------------------------------------------------------


  Born effective charge tensors : 

-------------------------------------------------------------------------------
  Atom             x           y             z
-------------------------------------------------------------------------------
    1 Ge    x       4.2753     -0.2027     -0.0411
            y       0.1234      3.8863     -0.0466
            z      -0.8708     -0.0258      4.5524
-------------------------------------------------------------------------------
    2 Ge    x       4.4231      0.2415      0.1091
            y      -0.1535      3.8983      0.0738
            z       0.8413      0.0734      3.6961
-------------------------------------------------------------------------------
    3 Ge    x       4.0012      0.3283     -0.1224
            y       0.3967      4.1971     -0.1963
            z      -0.2730     -0.0359      3.3114
-------------------------------------------------------------------------------
    4 Ge    x       3.9759      0.3976     -0.2363
            y       0.1120      4.1712     -0.2996
            z      -0.1837     -0.0823      3.3827
-------------------------------------------------------------------------------
    5 Si    x       3.3685     -0.1119      0.2580
            y       0.1277      3.2292     -0.0484
            z       0.4592     -0.0186      3.7821
-------------------------------------------------------------------------------
    6 Si    x       3.5777      0.1267     -0.5413
            y      -0.0807      3.3111      0.0142
            z      -0.3837     -0.1426      4.2041
-------------------------------------------------------------------------------
    7 Si    x       3.4708      0.0906      0.1352
            y      -0.1057      3.2154      0.0095
            z       0.5494      0.0350      3.7394
-------------------------------------------------------------------------------
    8 Si    x       3.4830      0.3670     -0.3058
            y      -0.1820      3.5070      0.0006
            z      -0.4311     -0.1548      3.1667
-------------------------------------------------------------------------------
    9 Si    x       3.6776      0.0433     -0.1550
            y       0.3142      3.3945      0.0492
            z      -0.6224      0.0043      3.1215
-------------------------------------------------------------------------------
   10 Si    x       3.7916     -0.1905      0.3005
            y       0.1462      3.3269     -0.0094
            z       0.2791      0.0574      3.2300
-------------------------------------------------------------------------------
   11 Si    x       3.3396      0.4350     -0.2781
            y       0.2655      3.5905     -0.3642
            z      -0.2136     -0.2016      3.0312
-------------------------------------------------------------------------------
   12 Si    x       3.2285      0.3327      0.0815
            y       0.1956      3.5811      0.0984
            z       0.1086     -0.0421      3.0945
-------------------------------------------------------------------------------
   13 Si    x       3.2303     -0.3173     -0.0347
            y      -0.1940      3.4984      0.1456
            z      -0.1460      0.0593      2.7465
-------------------------------------------------------------------------------
   14 Si    x       3.2127     -0.3255      0.1345
            y      -0.1910      3.4427     -0.1476
            z       0.1494     -0.0577      2.7802
-------------------------------------------------------------------------------
   15 Si    x       3.2247      0.2279     -0.0244
            y       0.2820      3.4495     -0.2179
            z      -0.0934     -0.0545      2.7612
-------------------------------------------------------------------------------
   16 Si    x       3.2755      0.2828      0.0064
            y       0.3106      3.5300      0.1119
            z       0.0564      0.0178      3.1003
-------------------------------------------------------------------------------
   17 Si    x       3.3905     -0.3635     -0.2106
            y      -0.4014      3.5246      0.3364
            z      -0.2824      0.1827      3.0101
-------------------------------------------------------------------------------
   18 Si    x       3.1668     -0.2332      0.0488
            y      -0.2857      3.4274     -0.1798
            z       0.0927     -0.0561      2.8131
-------------------------------------------------------------------------------
   19 Si    x       3.4802      0.3953      0.2871
            y       0.3768      3.4605      0.3220
            z       0.2904      0.1284      2.8727
-------------------------------------------------------------------------------
   20 Si    x       3.3520     -0.1891     -0.1810
            y      -0.1181      3.7256      0.1235
            z      -0.1672     -0.0107      2.8039
-------------------------------------------------------------------------------
   21 Si    x       3.5933     -0.1994     -0.0186
            y      -0.2207      3.5289     -0.2164
            z       0.1288     -0.0909      2.8085
-------------------------------------------------------------------------------
   22 Si    x       3.2278      0.3344      0.1980
            y       0.0682      3.4303      0.2139
            z       0.1276      0.0660      2.7573
-------------------------------------------------------------------------------
   23 Si    x       3.2918     -0.2811     -0.1521
            y       0.0897      3.7130      0.0560
            z      -0.1690      0.0401      2.8015
-------------------------------------------------------------------------------
   24 Si    x       3.7209     -0.4917      0.1417
            y      -0.2267      3.6313     -0.3626
            z       0.1522     -0.1750      2.9351
-------------------------------------------------------------------------------
   25 O3    x      -2.0603     -0.9091      0.4536
            y      -0.9606     -2.2837      0.5353
            z       0.5314      0.4969     -1.6458
-------------------------------------------------------------------------------
   26 O2    x      -1.7390     -0.7183     -0.3038
            y      -0.7437     -1.9424     -0.3044
            z      -0.3446     -0.3030     -1.3450
-------------------------------------------------------------------------------
   27 O2    x      -1.7883      0.7475      0.3607
            y       0.7744     -1.9989     -0.3751
            z       0.3681     -0.3427     -1.3156
-------------------------------------------------------------------------------
   28 O2    x      -1.7397      0.7239     -0.2973
            y       0.7513     -1.9488      0.3220
            z      -0.3737      0.3234     -1.3499
-------------------------------------------------------------------------------
   29 O2    x      -1.6880     -0.7064      0.3457
            y      -0.6698     -2.0109      0.3312
            z       0.3367      0.3188     -1.3419
-------------------------------------------------------------------------------
   30 O2    x      -1.6481     -0.7066     -0.2786
            y      -0.6696     -2.0081     -0.2958
            z      -0.3587     -0.3103     -1.3445
-------------------------------------------------------------------------------
   31 O3    x      -1.9880      0.9167      0.4603
            y       0.8849     -2.3536     -0.4571
            z       0.5981     -0.4890     -1.6195
-------------------------------------------------------------------------------
   32 O2    x      -1.6217      0.6993     -0.3325
            y       0.6445     -2.0038      0.3670
            z      -0.3547      0.3508     -1.3735
-------------------------------------------------------------------------------
   33 O3    x      -1.9727     -0.0145      1.0846
            y       0.0049     -1.2168      0.0234
            z       1.3011      0.0709     -3.3868
-------------------------------------------------------------------------------
   34 O2    x      -1.6709     -0.0161     -0.8423
            y      -0.0157     -1.0819     -0.0109
            z      -1.0963     -0.0373     -2.6993
-------------------------------------------------------------------------------
   35 O1    x      -2.2707     -0.0068     -1.0623
            y      -0.0164     -1.3463      0.0213
            z      -1.0513      0.0479     -2.8705
-------------------------------------------------------------------------------
   36 O2    x      -1.5939     -0.0253      0.6572
            y       0.0210     -1.1347      0.0336
            z       0.6055      0.0570     -2.2306
-------------------------------------------------------------------------------
   37 O2    x      -1.7959     -0.0102     -0.6443
            y      -0.0341     -1.1173     -0.0191
            z      -0.6210     -0.0142     -2.1277
-------------------------------------------------------------------------------
   38 O2    x      -1.7743      0.0082      0.7266
            y       0.0013     -1.1091     -0.0079
            z       0.7632     -0.0107     -2.1731
-------------------------------------------------------------------------------
   39 O3    x      -1.9177     -0.8357      0.3935
            y      -0.7138     -2.6106      0.3961
            z       0.4385      0.4011     -1.3622
-------------------------------------------------------------------------------
   40 O3    x      -2.0192     -0.9254     -0.4540
            y      -0.8294     -2.3588     -0.4608
            z      -0.5192     -0.4455     -1.4713
-------------------------------------------------------------------------------
   41 O2    x      -1.6417      0.6351      0.3394
            y       0.5871     -1.9307     -0.3764
            z       0.3708     -0.3297     -1.3037
-------------------------------------------------------------------------------
   42 O2    x      -1.6642      0.6701     -0.4072
            y       0.5360     -2.0584      0.4739
            z      -0.3647      0.4101     -1.2826
-------------------------------------------------------------------------------
   43 O3    x      -2.1403     -0.9392      0.3623
            y      -0.9426     -2.2802      0.4252
            z       0.3715      0.3442     -1.4658
-------------------------------------------------------------------------------
   44 O2    x      -1.7592     -0.7262     -0.4467
            y      -0.6610     -1.9319     -0.4313
            z      -0.3682     -0.3844     -1.2975
-------------------------------------------------------------------------------
   45 O2    x      -1.8280      0.6212      0.3596
            y       0.6382     -1.8310     -0.3445
            z       0.3631     -0.3120     -1.2435
-------------------------------------------------------------------------------
   46 O3    x      -2.0739      0.9073     -0.3491
            y       0.9162     -2.2753      0.4477
            z      -0.4315      0.4254     -1.4854
-------------------------------------------------------------------------------
   47 O2    x      -1.7157     -0.0232     -0.5285
            y      -0.0036     -1.2213     -0.0048
            z      -0.2891      0.0305     -1.7543
-------------------------------------------------------------------------------
   48 O3    x      -2.2922      0.1272      0.7963
            y       0.1184     -1.3482     -0.0569
            z       0.4453     -0.0186     -1.9384
-------------------------------------------------------------------------------
   49 O2    x      -1.1917      0.0587      0.0690
            y       0.0972     -2.4473     -0.0293
            z       0.0889     -0.0213     -1.0914
-------------------------------------------------------------------------------
   50 O2    x      -1.1803      0.0603     -0.0356
            y       0.1181     -2.5779     -0.0598
            z      -0.0569     -0.0565     -1.0520
-------------------------------------------------------------------------------
   51 O2    x      -1.1872     -0.0556      0.0364
            y      -0.1145     -2.5984      0.0469
            z       0.0651      0.0020     -1.0379
-------------------------------------------------------------------------------
   52 O2    x      -1.1756     -0.0588     -0.0586
            y      -0.1049     -2.5546     -0.0179
            z      -0.0814     -0.0075     -1.0658
-------------------------------------------------------------------------------
   53 O2    x      -2.3685     -0.0869      0.0412
            y      -0.0264     -1.2453      0.0712
            z       0.0265      0.0437     -1.0747
-------------------------------------------------------------------------------
   54 O2    x      -2.3555     -0.1232      0.0089
            y      -0.0850     -1.2638     -0.0723
            z       0.0220     -0.0392     -1.0940
-------------------------------------------------------------------------------
   55 O2    x      -2.3773      0.1029     -0.1280
            y       0.0440     -1.2603     -0.0597
            z      -0.1082     -0.0339     -1.0839
-------------------------------------------------------------------------------
   56 O2    x      -2.3981      0.0967     -0.0802
            y       0.0475     -1.2405      0.0757
            z      -0.0474      0.0424     -1.0802
-------------------------------------------------------------------------------
   57 O2    x      -1.1975     -0.1375     -0.0885
            y      -0.0837     -1.3062      0.0118
            z      -0.0677      0.0131     -2.0610
-------------------------------------------------------------------------------
   58 O3    x      -1.3073     -0.1521     -0.0050
            y      -0.0968     -1.4872      0.1113
            z      -0.0187      0.1028     -2.6074
-------------------------------------------------------------------------------
   59 O2    x      -1.2000      0.1218      0.0062
            y       0.0661     -1.3229     -0.0282
            z       0.0425     -0.0176     -2.0281
-------------------------------------------------------------------------------
   60 O2    x      -1.1857      0.1344      0.0649
            y       0.0766     -1.2679     -0.0358
            z       0.0309     -0.0624     -2.0746
-------------------------------------------------------------------------------
   61 O2    x      -1.2211     -0.1409      0.0149
            y      -0.1230     -1.2930     -0.0088
            z       0.0089      0.0052     -2.0215
-------------------------------------------------------------------------------
   62 O3    x      -1.3503     -0.1500      0.1900
            y      -0.1519     -1.4379      0.0354
            z       0.1893     -0.0236     -2.6212
-------------------------------------------------------------------------------
   63 O2    x      -1.2100      0.1223     -0.1231
            y       0.1144     -1.3082      0.0281
            z      -0.1231      0.0144     -2.0790
-------------------------------------------------------------------------------
   64 O2    x      -1.2302      0.1399      0.0058
            y       0.1290     -1.2711     -0.0196
            z       0.0034     -0.0146     -2.0639
-------------------------------------------------------------------------------
   65 O3    x      -1.4667     -0.2256      0.1231
            y      -0.3189     -3.0608      0.0823
            z       0.1739      0.1113     -1.1520
-------------------------------------------------------------------------------
   66 O2    x      -1.2554     -0.0504     -0.0773
            y      -0.1231     -2.3848      0.0437
            z      -0.0995      0.0246     -1.0470
-------------------------------------------------------------------------------
   67 O3    x      -1.3910     -0.0226      0.1124
            y       0.0746     -3.1550      0.0624
            z       0.1235      0.0679     -1.1431
-------------------------------------------------------------------------------
   68 O2    x      -1.2479      0.1025     -0.0772
            y       0.1729     -2.5407     -0.0292
            z      -0.0978     -0.0040     -1.0236
-------------------------------------------------------------------------------
   69 O3    x      -2.9863      0.1274      0.0303
            y       0.0555     -1.3683      0.0790
            z       0.0551      0.0330     -1.2260
-------------------------------------------------------------------------------
   70 O2    x      -2.3805      0.1937     -0.0470
            y       0.1333     -1.2520     -0.0466
            z      -0.0196     -0.0240     -1.0759
-------------------------------------------------------------------------------
   71 O2    x      -2.4825     -0.0788      0.0520
            y      -0.0294     -1.2258     -0.0558
            z       0.0403     -0.0171     -1.0546
-------------------------------------------------------------------------------
   72 O3    x      -3.0291     -0.1691      0.1726
            y      -0.1386     -1.3984      0.1175
            z       0.1307      0.0656     -1.2153
-------------------------------------------------------------------------------




  Elastic Constant Matrix: (Units=GPa)

-------------------------------------------------------------------------------
  Indices      1         2         3         4         5         6    
-------------------------------------------------------------------------------
       1     51.9912   25.5797   26.9444    0.9747    3.4975   -1.3509
       2     25.5797   68.8200   24.5509    1.0158    3.5175   -1.2197
       3     26.9444   24.5509   29.5375    0.8063    0.4702    1.1215
       4      0.9747    1.0158    0.8063   11.5852    0.1686    0.6295
       5      3.4975    3.5175    0.4702    0.1686   23.3541   -1.0334
       6     -1.3509   -1.2197    1.1215    0.6295   -1.0334   25.6064
-------------------------------------------------------------------------------


  Elastic Compliance Matrix: (Units=1/GPa)

-------------------------------------------------------------------------------
  Indices      1         2         3         4         5         6    
-------------------------------------------------------------------------------
       1    0.037500 -0.002029 -0.032546 -0.000817 -0.004510  0.003145
       2   -0.002029  0.021020 -0.015620 -0.000630 -0.002477  0.001494
       3   -0.032546 -0.015620  0.076680 -0.001005  0.005444 -0.005575
       4   -0.000817 -0.000630 -0.001005  0.086636 -0.000484 -0.002178
       5   -0.004510 -0.002477  0.005444 -0.000484  0.043814  0.001186
       6    0.003145  0.001494 -0.005575 -0.002178  0.001186  0.039635
-------------------------------------------------------------------------------

  Mechanical properties :

-------------------------------------------------------------------------------
  Convention :                    Reuss         Voigt         Hill
-------------------------------------------------------------------------------
  Bulk  Modulus (GPa)     =      28.72900      33.83318      31.28109
  Shear Modulus (GPa)     =      11.98238      16.99405      14.48821
-------------------------------------------------------------------------------
  Velocity S-wave (km/s)  =       2.44013       2.90596       2.68317
  Velocity P-wave (km/s)  =       4.71326       5.29827       5.01430
-------------------------------------------------------------------------------
  Compressibility (1/GPa) =    0.03480804
-------------------------------------------------------------------------------
  Stress axis :                     x             y             z
-------------------------------------------------------------------------------
  Youngs Moduli (GPa)     =      26.66657      47.57463      13.04124
-------------------------------------------------------------------------------
  Poissons Ratio (x)      =                     0.09655       0.42445
  Poissons Ratio (y)      =       0.05412                     0.20370
  Poissons Ratio (z)      =       0.86790       0.74311
-------------------------------------------------------------------------------


  Piezoelectric Strain Matrix: (Units=C/m**2)

-------------------------------------------------------------------------------
  Indices      1         2         3         4         5         6    
-------------------------------------------------------------------------------
       x     0.05784   0.54160   0.81001   0.22380   0.22426  -0.13813
       y    -0.07520  -0.24483   0.03081  -0.01374   0.36774   0.15261
       z     0.32870  -0.24793   0.40383   0.00436  -0.30955  -0.09092
-------------------------------------------------------------------------------


  Piezoelectric Stress Matrix: (Units=10**-11 C/N)

-------------------------------------------------------------------------------
  Indices      1         2         3         4         5         6    
-------------------------------------------------------------------------------
       x    -2.69218  -0.22882   5.35350   1.83787   1.23607  -0.92213
       y    -0.44933  -0.61490   0.97991  -0.15163   1.74131   0.57406
       z     0.07926  -1.15582   2.29581   0.02079  -1.23425  -0.55681
-------------------------------------------------------------------------------


  Static dielectric constant tensor : 

-------------------------------------------------------------------------------
              x         y         z
-------------------------------------------------------------------------------
       x     4.18376   0.03871  -0.03748
       y     0.03871   4.29545   0.05882
       z    -0.03748   0.05882   3.41939
--------------------------------------------------------------------------------

  High frequency dielectric constant tensor : 

-------------------------------------------------------------------------------
              x         y         z
-------------------------------------------------------------------------------
       x     1.67363  -0.00032   0.00020
       y    -0.00032   1.68118  -0.00044
       z     0.00020  -0.00044   1.61315
-------------------------------------------------------------------------------

  Static refractive indices : 

-------------------------------------------------------------------------------
    1 =    1.84753      2 =    2.04337      3 =    2.07602
-------------------------------------------------------------------------------

  High frequency refractive indices : 

-------------------------------------------------------------------------------
    1 =    1.27010      2 =    1.29368      3 =    1.29661
-------------------------------------------------------------------------------


  Time to end of optimisation =       9.9541 seconds


  Peak dynamic memory used =       5.01 MB 


  Timing analysis for GULP :

--------------------------------------------------------------------------------
  Task / Subroutine                                          Time (Seconds)
--------------------------------------------------------------------------------
  Calculation of reciprocal space energy and derivatives          0.6217
  Calculation of real space energy and derivatives                6.4292
  Calculation of three-body energy and derivatives                0.5383
  Calculation and manipulation of Hessian matrix                  2.7432
  Calculation of matrix inversion                                 0.0338
  Global summation overhead                                       0.0001
--------------------------------------------------------------------------------
  Total CPU time                                                  9.9542
--------------------------------------------------------------------------------


  Dump file written as c00341.vasp.grs
  CIF file written as c00341.vasp.cif


  Job Finished at 12:48.46 31st October    2025                               

