********************************************************************************
*                       GENERAL UTILITY LATTICE PROGRAM                        *
*                                 Julian Gale                                  *
*                       Curtin Institute for Computation                       *
*                    School of Molecular and Life Sciences                     *
*                    Curtin University, Western Australia                      *
********************************************************************************
* Version = 6.1.2 * Last modified =   3rd November 2022                        *
********************************************************************************
*  optimise     - perform optimisation run                                     *
*  conp         - constant pressure calculation                                *
*  property     - calculate properties for final geometry                      *
********************************************************************************

  Job Started  at 12:54.19 31st October    2025                               

  Number of CPUs =     1


  Total number of configurations input =      1

********************************************************************************
*  Input for Configuration =   1 : c00373.vasp                                 *
********************************************************************************

  Formula = Ge4Si20O48                                                  

  Number of irreducible atoms/shells =     120


  Total number atoms/shells =     120

  Dimensionality = 3               :  Bulk   



  Cartesian lattice vectors (Angstroms) :

       17.182800    0.000000    0.000000
        0.000000    7.513760    0.000000
        0.000000    0.000000   10.447700

  Cell parameters (Angstroms/Degrees):

  a =      17.1828    alpha =  90.0000
  b =       7.5138    beta  =  90.0000
  c =      10.4477    gamma =  90.0000

  Initial cell volume =        1348.875752 Angs**3

  Temperature of configuration =   0.00     K 

  Pressure of configuration =         0.000 GPa 

  Fractional coordinates of asymmetric unit :

--------------------------------------------------------------------------------
   No.  Atomic       x           y          z         Charge      Occupancy
        Label      (Frac)      (Frac)     (Frac)        (e)         (Frac)  
--------------------------------------------------------------------------------
      1 Ge    c    0.052090    0.000000    0.372270     4.00000    1.000000    
      2 Ge    c    0.443270 *  0.000000 *  0.877870 *   4.00000    1.000000    
      3 Ge    c    0.160190 *  0.293910 *  0.273440 *   4.00000    1.000000    
      4 Ge    c    0.339340 *  0.705910 *  0.982560 *   4.00000    1.000000    
      5 Si    c    0.447910 *  0.000000 *  0.372270 *   4.00000    1.000000    
      6 Si    c    0.947910 *  0.000000 *  0.627730 *   4.00000    1.000000    
      7 Si    c    0.552090 *  0.000000 *  0.627730 *   4.00000    1.000000    
      8 Si    c    0.556730 *  0.000000 *  0.122130 *   4.00000    1.000000    
      9 Si    c    0.943270 *  0.000000 *  0.122130 *   4.00000    1.000000    
     10 Si    c    0.056730 *  0.000000 *  0.877870 *   4.00000    1.000000    
     11 Si    c    0.339810 *  0.706090 *  0.273440 *   4.00000    1.000000    
     12 Si    c    0.839810 *  0.293910 *  0.726560 *   4.00000    1.000000    
     13 Si    c    0.660190 *  0.706090 *  0.726560 *   4.00000    1.000000    
     14 Si    c    0.839810 *  0.706090 *  0.726560 *   4.00000    1.000000    
     15 Si    c    0.660190 *  0.293910 *  0.726560 *   4.00000    1.000000    
     16 Si    c    0.160190 *  0.706090 *  0.273440 *   4.00000    1.000000    
     17 Si    c    0.339810 *  0.293910 *  0.273440 *   4.00000    1.000000    
     18 Si    c    0.660660 *  0.294090 *  0.017440 *   4.00000    1.000000    
     19 Si    c    0.839340 *  0.705910 *  0.017440 *   4.00000    1.000000    
     20 Si    c    0.339340 *  0.294090 *  0.982560 *   4.00000    1.000000    
     21 Si    c    0.160660 *  0.705910 *  0.982560 *   4.00000    1.000000    
     22 Si    c    0.160660 *  0.294090 *  0.982560 *   4.00000    1.000000    
     23 Si    c    0.660660 *  0.705910 *  0.017440 *   4.00000    1.000000    
     24 Si    c    0.839340 *  0.294090 *  0.017440 *   4.00000    1.000000    
     25 O1    c    0.106570 *  0.174340 *  0.366200 *   1.73396    1.000000    
     26 O2    c    0.393430 *  0.825660 *  0.366200 *   0.87073    1.000000    
     27 O2    c    0.893430 *  0.174340 *  0.633800 *   0.87073    1.000000    
     28 O2    c    0.606570 *  0.825660 *  0.633800 *   0.87073    1.000000    
     29 O2    c    0.893430 *  0.825660 *  0.633800 *   0.87073    1.000000    
     30 O2    c    0.606570 *  0.174340 *  0.633800 *   0.87073    1.000000    
     31 O3    c    0.106570 *  0.825660 *  0.366200 *   1.33043    1.000000    
     32 O2    c    0.393430 *  0.174340 *  0.366200 *   0.87073    1.000000    
     33 O3    c    0.000000 *  0.000000 *  0.500000 *   1.33043    1.000000    
     34 O2    c    0.500000 *  0.000000 *  0.500000 *   0.87073    1.000000    
     35 O3    c    0.994520 *  0.000000 *  0.250840 *   1.33043    1.000000    
     36 O2    c    0.505480 *  0.000000 *  0.250840 *   0.87073    1.000000    
     37 O2    c    0.005480 *  0.000000 *  0.749160 *   0.87073    1.000000    
     38 O3    c    0.494520 *  0.000000 *  0.749160 *   1.33043    1.000000    
     39 O2    c    0.610230 *  0.175520 *  0.115390 *   0.87073    1.000000    
     40 O2    c    0.889770 *  0.824480 *  0.115390 *   0.87073    1.000000    
     41 O3    c    0.389770 *  0.175520 *  0.884610 *   1.33043    1.000000    
     42 O2    c    0.110230 *  0.824480 *  0.884610 *   0.87073    1.000000    
     43 O1    c    0.389770 *  0.824480 *  0.884610 *   1.73396    1.000000    
     44 O2    c    0.110230 *  0.175520 *  0.884610 *   0.87073    1.000000    
     45 O2    c    0.610230 *  0.824480 *  0.115390 *   0.87073    1.000000    
     46 O2    c    0.889770 *  0.175520 *  0.115390 *   0.87073    1.000000    
     47 O3    c    0.500000 *  0.000000 *  0.000000 *   1.33043    1.000000    
     48 O2    c    0.000000 *  0.000000 *  0.000000 *   0.87073    1.000000    
     49 O3    c    0.151750 *  0.500000 *  0.313330 *   1.33043    1.000000    
     50 O2    c    0.348250 *  0.500000 *  0.313330 *   0.87073    1.000000    
     51 O2    c    0.848250 *  0.500000 *  0.686670 *   0.87073    1.000000    
     52 O2    c    0.651750 *  0.500000 *  0.686670 *   0.87073    1.000000    
     53 O3    c    0.250000 *  0.234950 *  0.285720 *   1.33043    1.000000    
     54 O2    c    0.250000 *  0.765050 *  0.285720 *   0.87073    1.000000    
     55 O2    c    0.750000 *  0.234950 *  0.714280 *   0.87073    1.000000    
     56 O2    c    0.750000 *  0.765050 *  0.714280 *   0.87073    1.000000    
     57 O3    c    0.131410 *  0.268650 *  0.127790 *   1.33043    1.000000    
     58 O3    c    0.368590 *  0.731350 *  0.127790 *   1.33043    1.000000    
     59 O2    c    0.868590 *  0.268650 *  0.872210 *   0.87073    1.000000    
     60 O2    c    0.631410 *  0.731350 *  0.872210 *   0.87073    1.000000    
     61 O2    c    0.868590 *  0.731350 *  0.872210 *   0.87073    1.000000    
     62 O2    c    0.631410 *  0.268650 *  0.872210 *   0.87073    1.000000    
     63 O2    c    0.131410 *  0.731350 *  0.127790 *   0.87073    1.000000    
     64 O2    c    0.368590 *  0.268650 *  0.127790 *   0.87073    1.000000    
     65 O2    c    0.653920 *  0.500000 *  0.058200 *   0.87073    1.000000    
     66 O2    c    0.846080 *  0.500000 *  0.058200 *   0.87073    1.000000    
     67 O3    c    0.346080 *  0.500000 *  0.941800 *   1.33043    1.000000    
     68 O2    c    0.153920 *  0.500000 *  0.941800 *   0.87073    1.000000    
     69 O2    c    0.750000 *  0.231060 *  0.027050 *   0.87073    1.000000    
     70 O2    c    0.750000 *  0.768940 *  0.027050 *   0.87073    1.000000    
     71 O2    c    0.250000 *  0.231060 *  0.972950 *   0.87073    1.000000    
     72 O3    c    0.250000 *  0.768940 *  0.972950 *   1.33043    1.000000    
     73 O1    s    0.106570 *  0.174340 *  0.366200 *  -3.73396    1.000000    
     74 O2    s    0.393430 *  0.825660 *  0.366200 *  -2.87073    1.000000    
     75 O2    s    0.893430 *  0.174340 *  0.633800 *  -2.87073    1.000000    
     76 O2    s    0.606570 *  0.825660 *  0.633800 *  -2.87073    1.000000    
     77 O2    s    0.893430 *  0.825660 *  0.633800 *  -2.87073    1.000000    
     78 O2    s    0.606570 *  0.174340 *  0.633800 *  -2.87073    1.000000    
     79 O3    s    0.106570 *  0.825660 *  0.366200 *  -3.33043    1.000000    
     80 O2    s    0.393430 *  0.174340 *  0.366200 *  -2.87073    1.000000    
     81 O3    s    0.000000 *  0.000000 *  0.500000 *  -3.33043    1.000000    
     82 O2    s    0.500000 *  0.000000 *  0.500000 *  -2.87073    1.000000    
     83 O3    s    0.994520 *  0.000000 *  0.250840 *  -3.33043    1.000000    
     84 O2    s    0.505480 *  0.000000 *  0.250840 *  -2.87073    1.000000    
     85 O2    s    0.005480 *  0.000000 *  0.749160 *  -2.87073    1.000000    
     86 O3    s    0.494520 *  0.000000 *  0.749160 *  -3.33043    1.000000    
     87 O2    s    0.610230 *  0.175520 *  0.115390 *  -2.87073    1.000000    
     88 O2    s    0.889770 *  0.824480 *  0.115390 *  -2.87073    1.000000    
     89 O3    s    0.389770 *  0.175520 *  0.884610 *  -3.33043    1.000000    
     90 O2    s    0.110230 *  0.824480 *  0.884610 *  -2.87073    1.000000    
     91 O1    s    0.389770 *  0.824480 *  0.884610 *  -3.73396    1.000000    
     92 O2    s    0.110230 *  0.175520 *  0.884610 *  -2.87073    1.000000    
     93 O2    s    0.610230 *  0.824480 *  0.115390 *  -2.87073    1.000000    
     94 O2    s    0.889770 *  0.175520 *  0.115390 *  -2.87073    1.000000    
     95 O3    s    0.500000 *  0.000000 *  0.000000 *  -3.33043    1.000000    
     96 O2    s    0.000000 *  0.000000 *  0.000000 *  -2.87073    1.000000    
     97 O3    s    0.151750 *  0.500000 *  0.313330 *  -3.33043    1.000000    
     98 O2    s    0.348250 *  0.500000 *  0.313330 *  -2.87073    1.000000    
     99 O2    s    0.848250 *  0.500000 *  0.686670 *  -2.87073    1.000000    
    100 O2    s    0.651750 *  0.500000 *  0.686670 *  -2.87073    1.000000    
    101 O3    s    0.250000 *  0.234950 *  0.285720 *  -3.33043    1.000000    
    102 O2    s    0.250000 *  0.765050 *  0.285720 *  -2.87073    1.000000    
    103 O2    s    0.750000 *  0.234950 *  0.714280 *  -2.87073    1.000000    
    104 O2    s    0.750000 *  0.765050 *  0.714280 *  -2.87073    1.000000    
    105 O3    s    0.131410 *  0.268650 *  0.127790 *  -3.33043    1.000000    
    106 O3    s    0.368590 *  0.731350 *  0.127790 *  -3.33043    1.000000    
    107 O2    s    0.868590 *  0.268650 *  0.872210 *  -2.87073    1.000000    
    108 O2    s    0.631410 *  0.731350 *  0.872210 *  -2.87073    1.000000    
    109 O2    s    0.868590 *  0.731350 *  0.872210 *  -2.87073    1.000000    
    110 O2    s    0.631410 *  0.268650 *  0.872210 *  -2.87073    1.000000    
    111 O2    s    0.131410 *  0.731350 *  0.127790 *  -2.87073    1.000000    
    112 O2    s    0.368590 *  0.268650 *  0.127790 *  -2.87073    1.000000    
    113 O2    s    0.653920 *  0.500000 *  0.058200 *  -2.87073    1.000000    
    114 O2    s    0.846080 *  0.500000 *  0.058200 *  -2.87073    1.000000    
    115 O3    s    0.346080 *  0.500000 *  0.941800 *  -3.33043    1.000000    
    116 O2    s    0.153920 *  0.500000 *  0.941800 *  -2.87073    1.000000    
    117 O2    s    0.750000 *  0.231060 *  0.027050 *  -2.87073    1.000000    
    118 O2    s    0.750000 *  0.768940 *  0.027050 *  -2.87073    1.000000    
    119 O2    s    0.250000 *  0.231060 *  0.972950 *  -2.87073    1.000000    
    120 O3    s    0.250000 *  0.768940 *  0.972950 *  -3.33043    1.000000    
--------------------------------------------------------------------------------



********************************************************************************
*  General input information                                                   *
********************************************************************************

  Species output for all configurations : 

--------------------------------------------------------------------------------
  Species    Type    Atomic    Atomic    Charge       Radii (Angs)     Library
                     Number     Mass       (e)     Cova   Ionic  VDW   Symbol
--------------------------------------------------------------------------------
    Ge       Core       32      72.61   4.000000   1.170  0.000  1.750 Ge       
    Si       Core       14      28.09   4.000000   1.200  0.000  2.100 Si       
    O1       Core        8      16.00   1.733957   0.730  0.000  1.360 O1       
    O2       Core        8      16.00   0.870733   0.730  0.000  1.360 O2       
    O3       Core        8      16.00   1.330431   0.730  0.000  1.360 O3       
    O1       Shell       8       0.00  -3.733957   0.730  0.000  0.000 O1       
    O2       Shell       8       0.00  -2.870733   0.730  0.000  0.000 O2       
    O3       Shell       8       0.00  -3.330431   0.730  0.000  0.000 O3       
--------------------------------------------------------------------------------


  Lattice summation method               =    Ewald          (3-D)
                                         =    Parry          (2-D)
                                         =    Saunders et al (1-D)
  Accuracy factor for lattice sums       =   12.000


  Analytic derivatives to be used

  Time limit = Infinity

  Maximum range for interatomic potentials =    100000.000000 Angstroms

  General interatomic potentials :

--------------------------------------------------------------------------------
Atom  Types   Potential      Parameter       Value         Units   Cutoffs(Ang)
  1     2                                                            Min /  Max 
--------------------------------------------------------------------------------
Si   c O1   s Buckingham    Buckingham A     1315.2478    eV        0.000 16.000
                            Buckingham rho  0.31775900    Ang       
                            Buckingham C     10.141118    eV*Ang^6  
--------------------------------------------------------------------------------
Si   c O2   s Buckingham    Buckingham A     1315.2478    eV        0.000 16.000
                            Buckingham rho  0.31775900    Ang       
                            Buckingham C     10.141118    eV*Ang^6  
--------------------------------------------------------------------------------
Si   c O3   s Buckingham    Buckingham A     1315.2478    eV        0.000 16.000
                            Buckingham rho  0.31775900    Ang       
                            Buckingham C     10.141118    eV*Ang^6  
--------------------------------------------------------------------------------
Ge   c O1   s Buckingham    Buckingham A     1497.3996    eV        0.000 16.000
                            Buckingham rho  0.32564600    Ang       
                            Buckingham C     16.808599    eV*Ang^6  
--------------------------------------------------------------------------------
Ge   c O2   s Buckingham    Buckingham A     1497.3996    eV        0.000 16.000
                            Buckingham rho  0.32564600    Ang       
                            Buckingham C     16.808599    eV*Ang^6  
--------------------------------------------------------------------------------
Ge   c O3   s Buckingham    Buckingham A     1497.3996    eV        0.000 16.000
                            Buckingham rho  0.32564600    Ang       
                            Buckingham C     16.808599    eV*Ang^6  
--------------------------------------------------------------------------------
O1   s O1   s Buckingham    Buckingham A     22764.000    eV        0.000 16.000
                            Buckingham rho  0.14900000    Ang       
                            Buckingham C     10.937044    eV*Ang^6  
--------------------------------------------------------------------------------
O1   s O2   s Buckingham    Buckingham A     22764.000    eV        0.000 16.000
                            Buckingham rho  0.14900000    Ang       
                            Buckingham C     10.937044    eV*Ang^6  
--------------------------------------------------------------------------------
O1   s O3   s Buckingham    Buckingham A     22764.000    eV        0.000 16.000
                            Buckingham rho  0.14900000    Ang       
                            Buckingham C     10.937044    eV*Ang^6  
--------------------------------------------------------------------------------
O2   s O2   s Buckingham    Buckingham A     22764.000    eV        0.000 16.000
                            Buckingham rho  0.14900000    Ang       
                            Buckingham C     10.937044    eV*Ang^6  
--------------------------------------------------------------------------------
O2   s O3   s Buckingham    Buckingham A     22764.000    eV        0.000 16.000
                            Buckingham rho  0.14900000    Ang       
                            Buckingham C     10.937044    eV*Ang^6  
--------------------------------------------------------------------------------
O3   s O3   s Buckingham    Buckingham A     22764.000    eV        0.000 16.000
                            Buckingham rho  0.14900000    Ang       
                            Buckingham C     10.937044    eV*Ang^6  
--------------------------------------------------------------------------------
O1   c O1   s Spring (c-s)  Spring k 2       180.31577    eV*Ang^-2 0.000  0.800
                            Spring k 4       0.0000000    eV*Ang^-4 
--------------------------------------------------------------------------------
O2   c O2   s Spring (c-s)  Spring k 2       75.969800    eV*Ang^-2 0.000  0.800
                            Spring k 4       0.0000000    eV*Ang^-4 
--------------------------------------------------------------------------------
O3   c O3   s Spring (c-s)  Spring k 2       128.14270    eV*Ang^-2 0.000  0.800
                            Spring k 4       0.0000000    eV*Ang^-4 
--------------------------------------------------------------------------------

  General Three-body potentials :

--------------------------------------------------------------------------------
  Atoms       Potential      Parameter       Value         Units   Cutoffs(Ang)
  1 / 2 / 3                                                          Min /  Max 
--------------------------------------------------------------------------------
Si    core    Harmonic      Three-body cnst  1.2614000    eV*rad^-2 0.000  1.900
O1    shel                  Three-body angl  109.47000    degrees   0.000  1.900
O1    shel                  Three-body k4    0.0000000    eV*rad^-4 0.000  3.500
                            Three-body k3    0.0000000    eV*rad^-3 
--------------------------------------------------------------------------------
Si    core    Harmonic      Three-body cnst  1.2614000    eV*rad^-2 0.000  1.900
O1    shel                  Three-body angl  109.47000    degrees   0.000  1.900
õ(1   shel                  Three-body k4    0.0000000    eV*rad^-4 0.000  3.500
                            Three-body k3    0.0000000    eV*rad^-3 
--------------------------------------------------------------------------------
Si    core    Harmonic      Three-body cnst  1.2614000    eV*rad^-2 0.000  1.900
õ(1   shel                  Three-body angl  109.47000    degrees   0.000  1.900
õ(1   shel                  Three-body k4    0.0000000    eV*rad^-4 0.000  3.500
                            Three-body k3    0.0000000    eV*rad^-3 
--------------------------------------------------------------------------------
Si    core    Harmonic      Three-body cnst  1.2614000    eV*rad^-2 0.000  1.900
O1    shel                  Three-body angl  109.47000    degrees   0.000  1.900
O2    shel                  Three-body k4    0.0000000    eV*rad^-4 0.000  3.500
                            Three-body k3    0.0000000    eV*rad^-3 
--------------------------------------------------------------------------------
Si    core    Harmonic      Three-body cnst  1.2614000    eV*rad^-2 0.000  1.900
O1    shel                  Three-body angl  109.47000    degrees   0.000  1.900
õ(2   shel                  Three-body k4    0.0000000    eV*rad^-4 0.000  3.500
                            Three-body k3    0.0000000    eV*rad^-3 
--------------------------------------------------------------------------------
Si    core    Harmonic      Three-body cnst  1.2614000    eV*rad^-2 0.000  1.900
O2    shel                  Three-body angl  109.47000    degrees   0.000  1.900
õ(1   shel                  Three-body k4    0.0000000    eV*rad^-4 0.000  3.500
                            Three-body k3    0.0000000    eV*rad^-3 
--------------------------------------------------------------------------------
Si    core    Harmonic      Three-body cnst  1.2614000    eV*rad^-2 0.000  1.900
õ(1   shel                  Three-body angl  109.47000    degrees   0.000  1.900
õ(2   shel                  Three-body k4    0.0000000    eV*rad^-4 0.000  3.500
                            Three-body k3    0.0000000    eV*rad^-3 
--------------------------------------------------------------------------------
Si    core    Harmonic      Three-body cnst  1.2614000    eV*rad^-2 0.000  1.900
O2    shel                  Three-body angl  109.47000    degrees   0.000  1.900
O2    shel                  Three-body k4    0.0000000    eV*rad^-4 0.000  3.500
                            Three-body k3    0.0000000    eV*rad^-3 
--------------------------------------------------------------------------------
Si    core    Harmonic      Three-body cnst  1.2614000    eV*rad^-2 0.000  1.900
O2    shel                  Three-body angl  109.47000    degrees   0.000  1.900
õ(2   shel                  Three-body k4    0.0000000    eV*rad^-4 0.000  3.500
                            Three-body k3    0.0000000    eV*rad^-3 
--------------------------------------------------------------------------------
Si    core    Harmonic      Three-body cnst  1.2614000    eV*rad^-2 0.000  1.900
õ(2   shel                  Three-body angl  109.47000    degrees   0.000  1.900
õ(2   shel                  Three-body k4    0.0000000    eV*rad^-4 0.000  3.500
                            Three-body k3    0.0000000    eV*rad^-3 
--------------------------------------------------------------------------------

********************************************************************************
*  Output for configuration   1 : c00373.vasp                                  *
********************************************************************************


  Components of energy : 

--------------------------------------------------------------------------------
  Interatomic potentials     =         768.36055999 eV    
  Three-body potentials      =           0.01193094 eV    
  Monopole - monopole (real) =       -2676.00317478 eV    
  Monopole - monopole (recip)=       -1115.35404472 eV    
  Monopole - monopole (total)=       -3791.35721950 eV    
--------------------------------------------------------------------------------
  Total lattice energy       =       -3022.98472858 eV    
--------------------------------------------------------------------------------
  Total lattice energy       =         -291671.8158 kJ/(mole unit cells)
--------------------------------------------------------------------------------


  Number of variables =      363

  Maximum number of calculations  =          1000
  Maximum Hessian update interval =            10
  Maximum step size               =   0.100000000
  Maximum parameter tolerance     =   0.000010000
  Maximum function  tolerance     =   0.000010000
  Maximum gradient  tolerance     =   0.001000000
  Maximum gradient  component     =   0.010000000

  Symmetry not applied to optimisation

  Cell parameters to be optimised using strains

  Newton-Raphson optimiser to be used

  BFGS hessian update to be used

  Lower half triangular hessian to be used

  Minimiser to switch to RFO
  When gradient norm is less than     0.050000

  Dumpfile to be written after every cycle

  Start of bulk optimisation :

  Cycle:      0 Energy:     -3022.984729  Gnorm:      4.461330  CPU:    0.100
  ** Hessian calculated **
  Cycle:      1 Energy:     -3054.075681  Gnorm:      0.998709  CPU:    0.218
  ** Hessian calculated **
  Cycle:      2 Energy:     -3056.622109  Gnorm:      0.564717  CPU:    0.402
  Cycle:      3 Energy:     -3057.469135  Gnorm:      0.375961  CPU:    0.495
  Cycle:      4 Energy:     -3058.251036  Gnorm:      0.301128  CPU:    0.608
  Cycle:      5 Energy:     -3059.003707  Gnorm:      0.239044  CPU:    0.719
  Cycle:      6 Energy:     -3059.482763  Gnorm:      0.196068  CPU:    0.813
  Cycle:      7 Energy:     -3059.771570  Gnorm:      0.145684  CPU:    0.907
  Cycle:      8 Energy:     -3059.925578  Gnorm:      0.109098  CPU:    1.002
  Cycle:      9 Energy:     -3059.995531  Gnorm:      0.078643  CPU:    1.097
  Cycle:     10 Energy:     -3060.051764  Gnorm:      0.070381  CPU:    1.209
  Cycle:     11 Energy:     -3060.096238  Gnorm:      0.072184  CPU:    1.303
  ** Hessian calculated **
  Cycle:     12 Energy:     -3060.112320  Gnorm:      0.062920  CPU:    1.558
  Cycle:     13 Energy:     -3060.138385  Gnorm:      0.057805  CPU:    1.701
  Cycle:     14 Energy:     -3060.168712  Gnorm:      0.054946  CPU:    1.819
  Cycle:     15 Energy:     -3060.205946  Gnorm:      0.049353  CPU:    1.930
  ** Hessian has required structure
  Cycle:     16 Energy:     -3060.214709  Gnorm:      0.079037  CPU:    2.063
  ** Hessian has required structure
  Cycle:     17 Energy:     -3060.237100  Gnorm:      0.116905  CPU:    2.214
  ** Hessian has required structure
  Cycle:     18 Energy:     -3060.267530  Gnorm:      0.133240  CPU:    2.365
  ** Hessian has required structure
  Cycle:     19 Energy:     -3060.274346  Gnorm:      0.142519  CPU:    2.499
  ** Hessian has required structure
  Cycle:     20 Energy:     -3060.287345  Gnorm:      0.109780  CPU:    2.634
  ** Hessian has required structure
  Cycle:     21 Energy:     -3060.295506  Gnorm:      0.105591  CPU:    2.768
  ** Hessian has wrong structure
  ** Imaginary eigenvectors =   4
  ** Hessian has wrong structure
  ** Imaginary eigenvectors =   3
  Cycle:     22 Energy:     -3060.356369  Gnorm:      0.119898  CPU:    3.265
  ** Hessian has wrong structure
  ** Imaginary eigenvectors =   2
  ** Hessian has wrong structure
  ** Imaginary eigenvectors =   2
  Cycle:     23 Energy:     -3060.425294  Gnorm:      0.125477  CPU:    3.756
  ** Hessian has required structure
  Cycle:     24 Energy:     -3060.814878  Gnorm:      0.075752  CPU:    4.005
  ** Hessian has required structure
  Cycle:     25 Energy:     -3060.930857  Gnorm:      0.046899  CPU:    4.156
  ** Hessian has required structure
  Cycle:     26 Energy:     -3061.002040  Gnorm:      0.042430  CPU:    4.326
  ** Hessian has required structure
  Cycle:     27 Energy:     -3061.041791  Gnorm:      0.027177  CPU:    4.496
  ** Hessian has required structure
  Cycle:     28 Energy:     -3061.064669  Gnorm:      0.024217  CPU:    4.667
  ** Hessian has required structure
  Cycle:     29 Energy:     -3061.084839  Gnorm:      0.021981  CPU:    4.819
  ** Hessian has required structure
  Cycle:     30 Energy:     -3061.102365  Gnorm:      0.018759  CPU:    4.987
  ** Hessian has required structure
  Cycle:     31 Energy:     -3061.114804  Gnorm:      0.027602  CPU:    5.138
  ** Hessian has required structure
  Cycle:     32 Energy:     -3061.132057  Gnorm:      0.027008  CPU:    5.290
  ** Hessian has required structure
  Cycle:     33 Energy:     -3061.143411  Gnorm:      0.035530  CPU:    5.464
  ** Hessian has required structure
  Cycle:     34 Energy:     -3061.173900  Gnorm:      0.036511  CPU:    5.705
  ** Hessian has required structure
  Cycle:     35 Energy:     -3061.208414  Gnorm:      0.032169  CPU:    5.845
  ** Hessian has required structure
  Cycle:     36 Energy:     -3061.224180  Gnorm:      0.030252  CPU:    6.023
  ** Hessian has required structure
  Cycle:     37 Energy:     -3061.232591  Gnorm:      0.008530  CPU:    6.198
  ** Hessian has required structure
  Cycle:     38 Energy:     -3061.238895  Gnorm:      0.010869  CPU:    6.395
  ** Hessian has required structure
  Cycle:     39 Energy:     -3061.243652  Gnorm:      0.015511  CPU:    6.571
  ** Hessian has required structure
  Cycle:     40 Energy:     -3061.247057  Gnorm:      0.016890  CPU:    6.767
  ** Hessian has required structure
  Cycle:     41 Energy:     -3061.252317  Gnorm:      0.015978  CPU:    6.964
  ** Hessian has required structure
  Cycle:     42 Energy:     -3061.259427  Gnorm:      0.016801  CPU:    7.162
  ** Hessian has required structure
  Cycle:     43 Energy:     -3061.268578  Gnorm:      0.015825  CPU:    7.361
  ** Hessian has required structure
  Cycle:     44 Energy:     -3061.283240  Gnorm:      0.012203  CPU:    7.627
  ** Hessian has required structure
  Cycle:     45 Energy:     -3061.290973  Gnorm:      0.008541  CPU:    7.823
  ** Hessian has required structure
  Cycle:     46 Energy:     -3061.294296  Gnorm:      0.004650  CPU:    8.019
  ** Hessian has required structure
  Cycle:     47 Energy:     -3061.295709  Gnorm:      0.005858  CPU:    8.195
  ** Hessian has required structure
  Cycle:     48 Energy:     -3061.296761  Gnorm:      0.003301  CPU:    8.372
  ** Hessian has required structure
  Cycle:     49 Energy:     -3061.297178  Gnorm:      0.002348  CPU:    8.566
  ** Hessian has required structure
  Cycle:     50 Energy:     -3061.297436  Gnorm:      0.001918  CPU:    8.762
  ** Hessian has required structure
  Cycle:     51 Energy:     -3061.297597  Gnorm:      0.000894  CPU:    8.959
  ** Hessian has required structure
  Cycle:     52 Energy:     -3061.297674  Gnorm:      0.001265  CPU:    9.132
  ** Hessian has required structure
  Cycle:     53 Energy:     -3061.297712  Gnorm:      0.000828  CPU:    9.285
  ** Hessian has required structure
  Cycle:     54 Energy:     -3061.297740  Gnorm:      0.000353  CPU:    9.557
  ** Hessian has required structure
  Cycle:     55 Energy:     -3061.297744  Gnorm:      0.000277  CPU:    9.692
  ** Hessian has required structure
  Cycle:     56 Energy:     -3061.297747  Gnorm:      0.000185  CPU:    9.845
  ** Hessian has required structure
  Cycle:     57 Energy:     -3061.297748  Gnorm:      0.000130  CPU:    9.979
  ** Hessian has required structure
  Cycle:     58 Energy:     -3061.297748  Gnorm:      0.000092  CPU:   10.112
  ** Hessian has required structure


  **** Optimisation achieved ****


  Final energy =   -3061.29774865 eV      
  Final Gnorm  =       0.00006438

  Components of energy : 

--------------------------------------------------------------------------------
  Interatomic potentials     =         815.57940525 eV    
  Three-body potentials      =           0.22003310 eV    
  Monopole - monopole (real) =       -2166.40495698 eV    
  Monopole - monopole (recip)=       -1710.69223002 eV    
  Monopole - monopole (total)=       -3877.09718700 eV    
--------------------------------------------------------------------------------
  Total lattice energy       =       -3061.29774865 eV    
--------------------------------------------------------------------------------
  Total lattice energy       =         -295368.4365 kJ/(mole unit cells)
--------------------------------------------------------------------------------

  Final fractional coordinates of atoms :

--------------------------------------------------------------------------------
   No.  Atomic        x           y          z          Radius
        Label       (Frac)      (Frac)     (Frac)       (Angs) 
--------------------------------------------------------------------------------
     1  Ge    c     0.052090    0.000000    0.372270    0.000000
     2  Ge    c     0.447989    0.933212    0.862023    0.000000
     3  Ge    c     0.153892    0.313445    0.289336    0.000000
     4  Ge    c     0.359070    0.606137    0.957067    0.000000
     5  Si    c     0.458759    0.967374    0.354759    0.000000
     6  Si    c     0.956897    0.957221    0.634037    0.000000
     7  Si    c     0.553983    0.962651    0.614356    0.000000
     8  Si    c     0.559981    0.979435    0.102944    0.000000
     9  Si    c     0.946363    0.971673    0.120597    0.000000
    10  Si    c     0.060326    0.959686    0.887692    0.000000
    11  Si    c     0.359180    0.655673    0.261898    0.000000
    12  Si    c     0.851292    0.271258    0.709604    0.000000
    13  Si    c     0.657846    0.655358    0.711824    0.000000
    14  Si    c     0.838857    0.677913    0.712502    0.000000
    15  Si    c     0.670968    0.247369    0.711047    0.000000
    16  Si    c     0.180212    0.718730    0.261860    0.000000
    17  Si    c     0.338385    0.252257    0.283479    0.000000
    18  Si    c     0.672353    0.256060    0.011820    0.000000
    19  Si    c     0.836801    0.685998    0.013188    0.000000
    20  Si    c     0.331305    0.207058    0.983676    0.000000
    21  Si    c     0.176927    0.670565    0.959165    0.000000
    22  Si    c     0.149495    0.280103    0.985386    0.000000
    23  Si    c     0.655366    0.657265    0.011482    0.000000
    24  Si    c     0.853180    0.285097    0.010752    0.000000
    25  O1    c     0.085851    0.211087    0.381101    0.000000
    26  O2    c     0.419101    0.775973    0.344276    0.000000
    27  O2    c     0.911663    0.148045    0.626480    0.000000
    28  O2    c     0.597072    0.771786    0.630875    0.000000
    29  O2    c     0.891189    0.805653    0.629060    0.000000
    30  O2    c     0.618258    0.115452    0.627604    0.000000
    31  O3    c     0.137121    0.883296    0.329839    0.000000
    32  O2    c     0.391858    0.121986    0.369331    0.000000
    33  O3    c     0.016086    0.932417    0.517359    0.000000
    34  O2    c     0.516728    0.970643    0.474507    0.000000
    35  O3    c     0.976940    0.965995    0.263915    0.000000
    36  O2    c     0.511252    0.007476    0.231922    0.000000
    37  O2    c     0.005049    0.942637    0.765431    0.000000
    38  O3    c     0.484011    0.989988    0.715246    0.000000
    39  O2    c     0.629781    0.120882    0.102540    0.000000
    40  O2    c     0.878094    0.828744    0.104248    0.000000
    41  O3    c     0.358961    0.041451    0.897977    0.000000
    42  O2    c     0.129621    0.812026    0.874362    0.000000
    43  O1    c     0.426103    0.714271    0.866540    0.000000
    44  O2    c     0.095871    0.155825    0.894461    0.000000
    45  O2    c     0.596282    0.779254    0.096600    0.000000
    46  O2    c     0.912125    0.168473    0.094453    0.000000
    47  O3    c     0.508465    0.017428    0.979621    0.000000
    48  O2    c     0.014528    0.919773    0.018911    0.000000
    49  O3    c     0.138585    0.539167    0.300302    0.000000
    50  O2    c     0.374619    0.448640    0.289509    0.000000
    51  O2    c     0.865940    0.475775    0.680078    0.000000
    52  O2    c     0.643659    0.448372    0.683197    0.000000
    53  O3    c     0.249656    0.261938    0.333366    0.000000
    54  O2    c     0.270837    0.708256    0.307196    0.000000
    55  O2    c     0.762302    0.221194    0.672429    0.000000
    56  O2    c     0.747098    0.703521    0.677125    0.000000
    57  O3    c     0.133429    0.239240    0.133118    0.000000
    58  O3    c     0.371679    0.690852    0.112524    0.000000
    59  O2    c     0.866307    0.236720    0.860145    0.000000
    60  O2    c     0.639495    0.701335    0.861965    0.000000
    61  O2    c     0.849973    0.726756    0.863321    0.000000
    62  O2    c     0.660836    0.204413    0.861249    0.000000
    63  O2    c     0.181251    0.738177    0.107593    0.000000
    64  O2    c     0.339312    0.175062    0.136725    0.000000
    65  O2    c     0.637085    0.453814    0.038058    0.000000
    66  O2    c     0.871430    0.490343    0.041000    0.000000
    67  O3    c     0.378604    0.382059    0.948799    0.000000
    68  O2    c     0.130567    0.484787    0.953766    0.000000
    69  O2    c     0.763787    0.247518    0.048354    0.000000
    70  O2    c     0.744872    0.697246    0.046754    0.000000
    71  O2    c     0.240542    0.246593    0.952684    0.000000
    72  O3    c     0.263963    0.647891    0.904708    0.000000
    73  O1    s     0.088449    0.202716    0.373477    0.000000
    74  O2    s     0.416918    0.783603    0.336589    0.000000
    75  O2    s     0.909759    0.141948    0.636165    0.000000
    76  O2    s     0.599365    0.778795    0.638266    0.000000
    77  O2    s     0.892241    0.807292    0.638911    0.000000
    78  O2    s     0.617348    0.113971    0.635738    0.000000
    79  O3    s     0.134853    0.875263    0.325994    0.000000
    80  O2    s     0.393129    0.119656    0.358735    0.000000
    81  O3    s     0.012760    0.940745    0.517682    0.000000
    82  O2    s     0.514317    0.969297    0.476967    0.000000
    83  O3    s     0.979896    0.969461    0.257433    0.000000
    84  O2    s     0.511060    0.999571    0.230473    0.000000
    85  O2    s     0.006089    0.946303    0.764973    0.000000
    86  O3    s     0.488098    0.982341    0.717461    0.000000
    87  O2    s     0.627240    0.121209    0.092258    0.000000
    88  O2    s     0.880727    0.827786    0.095498    0.000000
    89  O3    s     0.362877    0.050414    0.904236    0.000000
    90  O2    s     0.127335    0.812547    0.884965    0.000000
    91  O1    s     0.422733    0.722926    0.873018    0.000000
    92  O2    s     0.097815    0.148323    0.903481    0.000000
    93  O2    s     0.599082    0.786304    0.087754    0.000000
    94  O2    s     0.909104    0.160936    0.087731    0.000000
    95  O3    s     0.508821    0.006390    0.982795    0.000000
    96  O2    s     0.012041    0.929698    0.015917    0.000000
    97  O3    s     0.143844    0.538301    0.295735    0.000000
    98  O2    s     0.369208    0.450066    0.285968    0.000000
    99  O2    s     0.861446    0.475183    0.686719    0.000000
   100  O2    s     0.648136    0.449421    0.689282    0.000000
   101  O3    s     0.250969    0.265030    0.324943    0.000000
   102  O2    s     0.270610    0.703809    0.297673    0.000000
   103  O2    s     0.761996    0.229355    0.680507    0.000000
   104  O2    s     0.747329    0.695613    0.684589    0.000000
   105  O3    s     0.136560    0.248859    0.130506    0.000000
   106  O3    s     0.369471    0.680792    0.115297    0.000000
   107  O2    s     0.863292    0.245526    0.860206    0.000000
   108  O2    s     0.642993    0.692102    0.861816    0.000000
   109  O2    s     0.847358    0.717197    0.863241    0.000000
   110  O2    s     0.663147    0.214433    0.861167    0.000000
   111  O2    s     0.180697    0.728942    0.108205    0.000000
   112  O2    s     0.338396    0.186323    0.136198    0.000000
   113  O2    s     0.642791    0.455028    0.032373    0.000000
   114  O2    s     0.865815    0.489118    0.034812    0.000000
   115  O3    s     0.372608    0.383733    0.952674    0.000000
   116  O2    s     0.137240    0.482251    0.957635    0.000000
   117  O2    s     0.763540    0.252670    0.040154    0.000000
   118  O2    s     0.745049    0.691467    0.039085    0.000000
   119  O2    s     0.240433    0.246105    0.959762    0.000000
   120  O3    s     0.262587    0.646915    0.914328    0.000000
--------------------------------------------------------------------------------

  Final Cartesian lattice vectors (Angstroms) :

       17.031461    0.181363    0.008161
        0.078399    7.561906   -0.104103
        0.005409   -0.142248   10.374331


  Final cell parameters and derivatives :

--------------------------------------------------------------------------------
       a           17.032429 Angstrom     dE/de1(xx)     0.001243 eV/strain
       b            7.563029 Angstrom     dE/de2(yy)     0.000565 eV/strain
       c           10.375308 Angstrom     dE/de3(zz)     0.002262 eV/strain
       alpha       91.573896 Degrees      dE/de4(yz)     0.000248 eV/strain
       beta        89.951045 Degrees      dE/de5(xz)     0.000093 eV/strain
       gamma       88.796389 Degrees      dE/de6(xy)     0.000167 eV/strain
--------------------------------------------------------------------------------

  Primitive cell volume =          1335.713069 Angs**3

  Density of cell =      2.014291 g/cm**3

  Non-primitive cell volume =          1335.713069 Angs**3


  Final internal derivatives :

--------------------------------------------------------------------------------
   No.  Atomic          a             b             c           Radius
        Label          (eV)          (eV)          (eV)        (eV/Angs)
--------------------------------------------------------------------------------
      1 Ge    c       0.000000      0.000000      0.000000      0.000000
      2 Ge    c      -0.003839     -0.001860     -0.002755      0.000000
      3 Ge    c       0.000487      0.000018     -0.000162      0.000000
      4 Ge    c       0.000688      0.000082     -0.000162      0.000000
      5 Si    c      -0.007870     -0.000804      0.000185      0.000000
      6 Si    c       0.005673     -0.000518      0.001575      0.000000
      7 Si    c       0.004299     -0.000595     -0.000076      0.000000
      8 Si    c       0.007611     -0.001475     -0.001928      0.000000
      9 Si    c       0.001733     -0.000317      0.000404      0.000000
     10 Si    c      -0.003075     -0.000443     -0.000420      0.000000
     11 Si    c       0.000998     -0.000082      0.000196      0.000000
     12 Si    c      -0.000502     -0.000054      0.000198      0.000000
     13 Si    c      -0.000427     -0.000063     -0.000126      0.000000
     14 Si    c      -0.000098      0.000136      0.000330      0.000000
     15 Si    c      -0.000213      0.000285      0.000037      0.000000
     16 Si    c      -0.000287      0.000617      0.000305      0.000000
     17 Si    c       0.000223      0.000262      0.000442      0.000000
     18 Si    c      -0.000920      0.000015      0.000025      0.000000
     19 Si    c      -0.000358      0.000058     -0.000284      0.000000
     20 Si    c       0.000617      0.000322     -0.000385      0.000000
     21 Si    c       0.000319      0.000155      0.000141      0.000000
     22 Si    c       0.000325      0.000061      0.000251      0.000000
     23 Si    c      -0.000915     -0.000085      0.000201      0.000000
     24 Si    c      -0.000420     -0.000100     -0.000035      0.000000
     25 O1    c       0.000206      0.000097      0.000110      0.000000
     26 O2    c       0.000024     -0.000456     -0.000080      0.000000
     27 O2    c      -0.000205     -0.000080      0.000067      0.000000
     28 O2    c      -0.000205     -0.000147      0.000072      0.000000
     29 O2    c       0.000295      0.000339      0.000152      0.000000
     30 O2    c       0.000688      0.000465     -0.000345      0.000000
     31 O3    c      -0.001777     -0.000162     -0.000927      0.000000
     32 O2    c      -0.000189      0.000454      0.000189      0.000000
     33 O3    c       0.000633      0.001551     -0.001977      0.000000
     34 O2    c       0.004481      0.000246      0.001472      0.000000
     35 O3    c       0.000395      0.000658     -0.001773      0.000000
     36 O2    c       0.000156      0.001731      0.004045      0.000000
     37 O2    c      -0.004456      0.000416     -0.001483      0.000000
     38 O3    c      -0.008218      0.001183      0.002662      0.000000
     39 O2    c       0.000918      0.000651      0.000034      0.000000
     40 O2    c       0.000494      0.000319     -0.000066      0.000000
     41 O3    c      -0.000989      0.000144     -0.000401      0.000000
     42 O2    c      -0.000060      0.000080     -0.000014      0.000000
     43 O1    c       0.000035     -0.000292      0.000454      0.000000
     44 O2    c      -0.000139     -0.000629     -0.000078      0.000000
     45 O2    c       0.000172     -0.001341     -0.000019      0.000000
     46 O2    c       0.000163     -0.000486      0.000076      0.000000
     47 O3    c      -0.001208      0.004626      0.000491      0.000000
     48 O2    c       0.000671      0.001145     -0.000842      0.000000
     49 O3    c       0.000459      0.000109     -0.000133      0.000000
     50 O2    c       0.000090     -0.000062      0.000037      0.000000
     51 O2    c      -0.000048     -0.000040      0.000014      0.000000
     52 O2    c      -0.000124     -0.000023     -0.000033      0.000000
     53 O3    c       0.000360      0.000027     -0.000058      0.000000
     54 O2    c      -0.000507     -0.000077     -0.000106      0.000000
     55 O2    c       0.000190     -0.000020     -0.000053      0.000000
     56 O2    c      -0.000172     -0.000004     -0.000008      0.000000
     57 O3    c       0.000067     -0.000002     -0.000140      0.000000
     58 O3    c       0.000080     -0.000207      0.000054      0.000000
     59 O2    c      -0.000023     -0.000073     -0.000081      0.000000
     60 O2    c       0.000080     -0.000119      0.000075      0.000000
     61 O2    c       0.000241      0.000105      0.000069      0.000000
     62 O2    c       0.000010      0.000043      0.000239      0.000000
     63 O2    c       0.000062     -0.000298      0.000474      0.000000
     64 O2    c      -0.000525      0.000203      0.000095      0.000000
     65 O2    c      -0.000180     -0.000029      0.000055      0.000000
     66 O2    c      -0.000064      0.000045     -0.000005      0.000000
     67 O3    c       0.000233     -0.000089     -0.000105      0.000000
     68 O2    c       0.000138     -0.000333      0.000062      0.000000
     69 O2    c      -0.000145     -0.000029      0.000074      0.000000
     70 O2    c      -0.000033     -0.000008      0.000041      0.000000
     71 O2    c      -0.000651      0.000024     -0.000015      0.000000
     72 O3    c       0.000309     -0.000040      0.000100      0.000000
     73 O1    s      -0.000710     -0.000400     -0.000150      0.000000
     74 O2    s      -0.002882     -0.000609     -0.000174      0.000000
     75 O2    s       0.001598     -0.000395     -0.000052      0.000000
     76 O2    s       0.001777     -0.000496     -0.000075      0.000000
     77 O2    s       0.002082      0.000186     -0.000395      0.000000
     78 O2    s       0.002243      0.000098      0.000193      0.000000
     79 O3    s      -0.000563     -0.000222      0.000003      0.000000
     80 O2    s      -0.003482      0.000246     -0.000373      0.000000
     81 O3    s      -0.001545     -0.000642      0.001780      0.000000
     82 O2    s       0.000063     -0.000241     -0.000046      0.000000
     83 O3    s       0.000906     -0.000421      0.000381      0.000000
     84 O2    s       0.000254      0.000385      0.000761      0.000000
     85 O2    s       0.001320      0.000174      0.000994      0.000000
     86 O3    s       0.002387     -0.000456     -0.001221      0.000000
     87 O2    s       0.004163      0.000519      0.000194      0.000000
     88 O2    s       0.001436      0.000057      0.000132      0.000000
     89 O3    s      -0.002129     -0.000057      0.000404      0.000000
     90 O2    s      -0.001624      0.000215      0.000256      0.000000
     91 O1    s      -0.001213     -0.000485     -0.000626      0.000000
     92 O2    s      -0.001464     -0.000272     -0.000087      0.000000
     93 O2    s       0.003825     -0.001021     -0.000268      0.000000
     94 O2    s       0.001377     -0.000228     -0.000038      0.000000
     95 O3    s      -0.001997     -0.001138     -0.002409      0.000000
     96 O2    s      -0.000022      0.000094      0.000187      0.000000
     97 O3    s      -0.000276      0.000278     -0.000031      0.000000
     98 O2    s      -0.000551     -0.000046     -0.000175      0.000000
     99 O2    s       0.000283     -0.000085     -0.000105      0.000000
    100 O2    s       0.000335      0.000045      0.000071      0.000000
    101 O3    s      -0.000203     -0.000060     -0.000154      0.000000
    102 O2    s      -0.000628      0.000181     -0.000393      0.000000
    103 O2    s       0.000230      0.000020     -0.000024      0.000000
    104 O2    s       0.000054      0.000036     -0.000081      0.000000
    105 O3    s      -0.000016      0.000267     -0.000046      0.000000
    106 O3    s      -0.000304      0.000418     -0.000026      0.000000
    107 O2    s       0.000114      0.000210     -0.000147      0.000000
    108 O2    s      -0.000227      0.000355     -0.000244      0.000000
    109 O2    s      -0.000656     -0.000305      0.000055      0.000000
    110 O2    s      -0.000238     -0.000235     -0.000428      0.000000
    111 O2    s       0.000304     -0.000131      0.000159      0.000000
    112 O2    s       0.001627     -0.000510     -0.000085      0.000000
    113 O2    s       0.000485      0.000103     -0.000203      0.000000
    114 O2    s       0.000315      0.000017      0.000065      0.000000
    115 O3    s      -0.000655      0.000105      0.000336      0.000000
    116 O2    s      -0.000019      0.000109     -0.000015      0.000000
    117 O2    s       0.000327      0.000028     -0.000012      0.000000
    118 O2    s       0.000275      0.000036     -0.000029      0.000000
    119 O2    s      -0.000167      0.000075      0.000060      0.000000
    120 O3    s      -0.000573      0.000055      0.000152      0.000000
--------------------------------------------------------------------------------
  Maximum abs         0.008218      0.004626      0.004045      0.000000
--------------------------------------------------------------------------------


  Born effective charge tensors : 

-------------------------------------------------------------------------------
  Atom             x           y             z
-------------------------------------------------------------------------------
    1 Ge    x       4.2474      0.4561     -0.4076
            y      -0.1275      3.8425      0.0897
            z      -0.3585     -0.2946      4.6773
-------------------------------------------------------------------------------
    2 Ge    x       4.1938      0.4769     -0.4033
            y      -0.2268      3.9304      0.0854
            z      -0.5525     -0.1421      3.8754
-------------------------------------------------------------------------------
    3 Ge    x       4.0409      0.3097     -0.1091
            y       0.3968      4.1911     -0.3129
            z      -0.2061     -0.0967      3.5129
-------------------------------------------------------------------------------
    4 Ge    x       4.1329      0.3603     -0.1726
            y       0.3489      4.2019     -0.3205
            z      -0.2931     -0.0675      3.3607
-------------------------------------------------------------------------------
    5 Si    x       3.4337      0.1451      0.1313
            y      -0.1261      3.2014      0.0223
            z       0.5710     -0.0830      3.7105
-------------------------------------------------------------------------------
    6 Si    x       3.6385     -0.1257     -0.2189
            y       0.1217      3.2656     -0.0220
            z      -0.8482      0.0827      4.0696
-------------------------------------------------------------------------------
    7 Si    x       3.6493     -0.1134      0.1967
            y       0.1226      3.2899     -0.0478
            z       0.1976     -0.0308      4.0154
-------------------------------------------------------------------------------
    8 Si    x       3.6014     -0.2069     -0.0508
            y       0.1475      3.2990     -0.0504
            z      -0.4486      0.0069      3.3107
-------------------------------------------------------------------------------
    9 Si    x       3.5365     -0.1417      0.4464
            y       0.1842      3.2901     -0.0424
            z       0.5195     -0.0457      3.6062
-------------------------------------------------------------------------------
   10 Si    x       3.4890      0.1489      0.1258
            y      -0.1759      3.2199      0.0508
            z       0.5703      0.0319      2.9739
-------------------------------------------------------------------------------
   11 Si    x       3.2541      0.2664      0.0189
            y       0.3026      3.5169      0.1328
            z       0.1008     -0.0036      3.1008
-------------------------------------------------------------------------------
   12 Si    x       3.1692     -0.2102     -0.0631
            y      -0.2887      3.4229      0.1510
            z      -0.0753      0.0615      2.7807
-------------------------------------------------------------------------------
   13 Si    x       3.1739     -0.1917      0.0608
            y      -0.2874      3.4178     -0.1654
            z       0.1216     -0.0903      2.8233
-------------------------------------------------------------------------------
   14 Si    x       3.1909      0.2743     -0.1218
            y       0.1953      3.4491     -0.1453
            z      -0.0810     -0.0523      2.7694
-------------------------------------------------------------------------------
   15 Si    x       3.1669      0.2652      0.1253
            y       0.1921      3.4618      0.1443
            z       0.1558      0.0784      2.8213
-------------------------------------------------------------------------------
   16 Si    x       3.3993     -0.4444     -0.1303
            y      -0.0873      3.9754      0.1524
            z      -0.2398      0.1674      2.9757
-------------------------------------------------------------------------------
   17 Si    x       3.5730     -0.3529      0.0301
            y      -0.1582      3.5093     -0.2077
            z       0.0373     -0.0307      2.8262
-------------------------------------------------------------------------------
   18 Si    x       3.1862      0.3004     -0.1793
            y       0.0875      3.4252     -0.1893
            z      -0.1301     -0.0828      2.7352
-------------------------------------------------------------------------------
   19 Si    x       3.1905      0.3066      0.1674
            y       0.0940      3.4325      0.1645
            z       0.0991      0.0774      2.7156
-------------------------------------------------------------------------------
   20 Si    x       3.4082     -0.4651     -0.2346
            y       0.0423      3.9167      0.2461
            z      -0.1727      0.1705      2.9419
-------------------------------------------------------------------------------
   21 Si    x       3.6143     -0.4191      0.0377
            y      -0.0948      3.4862     -0.2066
            z       0.0890     -0.0491      2.7454
-------------------------------------------------------------------------------
   22 Si    x       3.3335      0.3483      0.1283
            y       0.2744      3.4596      0.1110
            z       0.1208     -0.0296      2.9738
-------------------------------------------------------------------------------
   23 Si    x       3.2225     -0.2272     -0.1240
            y      -0.2493      3.3716      0.1439
            z      -0.1515      0.0420      2.7040
-------------------------------------------------------------------------------
   24 Si    x       3.2324     -0.2225      0.1340
            y      -0.2518      3.3877     -0.1750
            z       0.1662     -0.0737      2.7100
-------------------------------------------------------------------------------
   25 O1    x      -2.0761     -0.8993      0.4871
            y      -0.8343     -2.5848      0.3717
            z       0.5391      0.4143     -1.7280
-------------------------------------------------------------------------------
   26 O2    x      -1.6565     -0.7206     -0.2944
            y      -0.6488     -2.0272     -0.3258
            z      -0.3602     -0.3129     -1.3280
-------------------------------------------------------------------------------
   27 O2    x      -1.6368      0.6729      0.2578
            y       0.6537     -1.9992     -0.2506
            z       0.3356     -0.2465     -1.3464
-------------------------------------------------------------------------------
   28 O2    x      -1.6254      0.6558     -0.3624
            y       0.6375     -2.0003      0.3998
            z      -0.3899      0.3997     -1.4005
-------------------------------------------------------------------------------
   29 O2    x      -1.7559     -0.6974      0.2620
            y      -0.7546     -1.9240      0.2968
            z       0.3365      0.2711     -1.3306
-------------------------------------------------------------------------------
   30 O2    x      -1.7364     -0.7019     -0.3836
            y      -0.7514     -1.9423     -0.3656
            z      -0.4128     -0.3590     -1.3665
-------------------------------------------------------------------------------
   31 O3    x      -2.1664      0.8699      0.5183
            y       0.9499     -2.3003     -0.5555
            z       0.5344     -0.4875     -1.5587
-------------------------------------------------------------------------------
   32 O2    x      -1.7621      0.6987     -0.2727
            y       0.7194     -1.8941      0.2882
            z      -0.3225      0.2804     -1.3620
-------------------------------------------------------------------------------
   33 O3    x      -1.9326     -0.0740      1.0653
            y      -0.0136     -1.2368      0.0853
            z       1.3427      0.2106     -3.3703
-------------------------------------------------------------------------------
   34 O2    x      -1.6382      0.0076     -0.8284
            y       0.0049     -1.0875      0.0149
            z      -1.0393      0.0448     -2.7139
-------------------------------------------------------------------------------
   35 O3    x      -1.9462     -0.0527     -0.9223
            y      -0.0327     -1.2124     -0.0227
            z      -0.9560     -0.0397     -2.9337
-------------------------------------------------------------------------------
   36 O2    x      -1.7011     -0.0113      0.7218
            y      -0.0199     -1.1417      0.0419
            z       0.7080      0.0445     -2.1910
-------------------------------------------------------------------------------
   37 O2    x      -1.7441     -0.0168     -0.7670
            y       0.0053     -1.1327     -0.0032
            z      -0.7183     -0.0151     -2.1762
-------------------------------------------------------------------------------
   38 O3    x      -2.0684     -0.0550      0.8948
            y       0.0121     -1.2524      0.0719
            z       0.9150      0.1521     -2.6524
-------------------------------------------------------------------------------
   39 O2    x      -1.7419     -0.6799      0.3524
            y      -0.6639     -1.8901      0.3750
            z       0.3595      0.3328     -1.2678
-------------------------------------------------------------------------------
   40 O2    x      -1.7287     -0.6860     -0.3563
            y      -0.6671     -1.9140     -0.3710
            z      -0.3333     -0.3416     -1.2715
-------------------------------------------------------------------------------
   41 O3    x      -2.0866      0.7809      0.5353
            y       0.7532     -2.2416     -0.6406
            z       0.4547     -0.5211     -1.5333
-------------------------------------------------------------------------------
   42 O2    x      -1.7831      0.7100     -0.2540
            y       0.6729     -1.8982      0.2886
            z      -0.3124      0.2839     -1.2198
-------------------------------------------------------------------------------
   43 O1    x      -2.0774     -0.8847      0.5158
            y      -0.6962     -2.6381      0.4573
            z       0.5434      0.4730     -1.5665
-------------------------------------------------------------------------------
   44 O2    x      -1.6484     -0.7022     -0.3113
            y      -0.5640     -2.0359     -0.3425
            z      -0.3392     -0.3208     -1.2037
-------------------------------------------------------------------------------
   45 O2    x      -1.6248      0.6456      0.3294
            y       0.5567     -2.0107     -0.3474
            z       0.3641     -0.3320     -1.2432
-------------------------------------------------------------------------------
   46 O2    x      -1.6285      0.6388     -0.3715
            y       0.5568     -2.0170      0.4070
            z      -0.3663      0.3811     -1.2758
-------------------------------------------------------------------------------
   47 O3    x      -2.1002     -0.0470     -0.8221
            y       0.0064     -1.3474     -0.0222
            z      -0.5034     -0.0623     -2.1076
-------------------------------------------------------------------------------
   48 O2    x      -1.8427      0.0318      0.5851
            y       0.0248     -1.2039      0.0128
            z       0.3124      0.0083     -1.6458
-------------------------------------------------------------------------------
   49 O3    x      -1.4225     -0.2283      0.1039
            y      -0.3254     -2.9985      0.2255
            z       0.1429      0.1607     -1.2395
-------------------------------------------------------------------------------
   50 O2    x      -1.1957     -0.0794     -0.0413
            y      -0.1511     -2.5595      0.0838
            z      -0.0586      0.0723     -1.0579
-------------------------------------------------------------------------------
   51 O2    x      -1.1498      0.0416      0.0637
            y       0.0910     -2.5477      0.0013
            z       0.0687      0.0138     -1.0647
-------------------------------------------------------------------------------
   52 O2    x      -1.1511      0.0501     -0.0597
            y       0.0952     -2.5654      0.0182
            z      -0.0786      0.0021     -1.0710
-------------------------------------------------------------------------------
   53 O3    x      -3.0032      0.2235      0.1059
            y       0.1339     -1.3831      0.0776
            z       0.1343      0.0211     -1.2520
-------------------------------------------------------------------------------
   54 O2    x      -2.3431      0.1850     -0.0661
            y       0.1027     -1.2787     -0.0514
            z      -0.0490     -0.0311     -1.1029
-------------------------------------------------------------------------------
   55 O2    x      -2.3633     -0.0869      0.0031
            y      -0.0414     -1.2526     -0.0649
            z      -0.0077     -0.0466     -1.0684
-------------------------------------------------------------------------------
   56 O2    x      -2.3773     -0.0824     -0.0009
            y      -0.0377     -1.2536      0.0675
            z      -0.0335      0.0467     -1.0607
-------------------------------------------------------------------------------
   57 O3    x      -1.3759     -0.1797     -0.0208
            y      -0.1574     -1.4484     -0.0032
            z      -0.0380     -0.0259     -2.5661
-------------------------------------------------------------------------------
   58 O3    x      -1.3506     -0.1512      0.0572
            y      -0.1371     -1.4635     -0.0386
            z       0.0531     -0.0767     -2.5910
-------------------------------------------------------------------------------
   59 O2    x      -1.1888      0.1182     -0.0291
            y       0.1205     -1.2671     -0.0102
            z      -0.0418     -0.0226     -2.0559
-------------------------------------------------------------------------------
   60 O2    x      -1.2158      0.1292      0.0318
            y       0.1381     -1.2745      0.0057
            z       0.0458      0.0119     -2.0654
-------------------------------------------------------------------------------
   61 O2    x      -1.1720     -0.1255     -0.0137
            y      -0.0901     -1.2816      0.0125
            z      -0.0052     -0.0082     -2.0424
-------------------------------------------------------------------------------
   62 O2    x      -1.1570     -0.1169      0.0186
            y      -0.0826     -1.2915     -0.0167
            z       0.0068      0.0006     -2.0756
-------------------------------------------------------------------------------
   63 O2    x      -1.2130      0.1041     -0.1304
            y       0.0284     -1.3128     -0.1004
            z      -0.0961     -0.0920     -2.0419
-------------------------------------------------------------------------------
   64 O2    x      -1.2142      0.1219     -0.0999
            y       0.0485     -1.3242     -0.0711
            z      -0.0843     -0.0922     -2.0318
-------------------------------------------------------------------------------
   65 O2    x      -1.2228      0.0607      0.0864
            y       0.1284     -2.4851      0.0253
            z       0.1016      0.0123     -1.0171
-------------------------------------------------------------------------------
   66 O2    x      -1.2205      0.0529     -0.0881
            y       0.1186     -2.4942      0.0065
            z      -0.0980      0.0163     -1.0177
-------------------------------------------------------------------------------
   67 O3    x      -1.5348     -0.2343      0.1415
            y      -0.3269     -2.9319      0.2064
            z       0.1701      0.1637     -1.1726
-------------------------------------------------------------------------------
   68 O2    x      -1.2913     -0.0918     -0.0702
            y      -0.1906     -2.4568      0.1065
            z      -0.0941      0.0675     -1.0055
-------------------------------------------------------------------------------
   69 O2    x      -2.3897     -0.0976      0.0020
            y      -0.0547     -1.2411      0.0682
            z       0.0001      0.0397     -1.0366
-------------------------------------------------------------------------------
   70 O2    x      -2.3995     -0.0976     -0.0045
            y      -0.0562     -1.2414     -0.0579
            z       0.0047     -0.0330     -1.0272
-------------------------------------------------------------------------------
   71 O2    x      -2.4074      0.2146     -0.0621
            y       0.1300     -1.2929     -0.0325
            z      -0.0455     -0.0103     -1.0371
-------------------------------------------------------------------------------
   72 O3    x      -3.0105      0.2492      0.1064
            y       0.1721     -1.3858      0.0690
            z       0.1192      0.0053     -1.2415
-------------------------------------------------------------------------------




  Elastic Constant Matrix: (Units=GPa)

-------------------------------------------------------------------------------
  Indices      1         2         3         4         5         6    
-------------------------------------------------------------------------------
       1     47.1660   23.3426   21.8900   -3.0155    7.1700    3.5100
       2     23.3426   65.6384   18.9125   -2.2909    6.7786    4.0314
       3     21.8900   18.9125   23.9985   -1.5971    2.3317    6.3085
       4     -3.0155   -2.2909   -1.5971   11.0357    2.1860    0.0577
       5      7.1700    6.7786    2.3317    2.1860   20.6491   -3.6325
       6      3.5100    4.0314    6.3085    0.0577   -3.6325   27.7562
-------------------------------------------------------------------------------


  Elastic Compliance Matrix: (Units=1/GPa)

-------------------------------------------------------------------------------
  Indices      1         2         3         4         5         6    
-------------------------------------------------------------------------------
       1    0.039898 -0.003691 -0.032507  0.007296 -0.009458  0.001626
       2   -0.003691  0.020627 -0.012212  0.002384 -0.004422 -0.000337
       3   -0.032507 -0.012212  0.083949  0.000092  0.003568 -0.012729
       4    0.007296  0.002384  0.000092  0.095921 -0.014067 -0.003330
       5   -0.009458 -0.004422  0.003568 -0.014067  0.055719  0.008349
       6    0.001626 -0.000337 -0.012729 -0.003330  0.008349  0.039864
-------------------------------------------------------------------------------

  Mechanical properties :

-------------------------------------------------------------------------------
  Convention :                    Reuss         Voigt         Hill
-------------------------------------------------------------------------------
  Bulk  Modulus (GPa)     =      20.98399      29.45477      25.21938
  Shear Modulus (GPa)     =      11.14374      16.73205      13.93789
-------------------------------------------------------------------------------
  Velocity S-wave (km/s)  =       2.35209       2.88213       2.63050
  Velocity P-wave (km/s)  =       4.21829       5.06936       4.66329
-------------------------------------------------------------------------------
  Compressibility (1/GPa) =    0.04765537
-------------------------------------------------------------------------------
  Stress axis :                     x             y             z
-------------------------------------------------------------------------------
  Youngs Moduli (GPa)     =      25.06373      48.48066      11.91195
-------------------------------------------------------------------------------
  Poissons Ratio (x)      =                     0.17894       0.38722
  Poissons Ratio (y)      =       0.09251                     0.14546
  Poissons Ratio (z)      =       0.81474       0.59203
-------------------------------------------------------------------------------


  Piezoelectric Strain Matrix: (Units=C/m**2)

-------------------------------------------------------------------------------
  Indices      1         2         3         4         5         6    
-------------------------------------------------------------------------------
       x     0.03923  -0.57795   0.54944   0.00566  -0.16791  -0.11853
       y     0.33301  -0.37473  -0.68183   0.41770  -0.45951   0.03082
       z    -0.22761  -0.20686  -0.60971  -0.17198  -0.00037   0.12965
-------------------------------------------------------------------------------


  Piezoelectric Stress Matrix: (Units=10**-11 C/N)

-------------------------------------------------------------------------------
  Indices      1         2         3         4         5         6    
-------------------------------------------------------------------------------
       x    -1.27256  -1.79794   5.28176   0.22585  -0.62799  -1.28810
       y     4.42776   0.23851  -6.54814   4.79013  -3.51468   0.53482
       z     1.04617   0.35666  -4.29272  -1.91329   0.43734   1.31987
-------------------------------------------------------------------------------


  Static dielectric constant tensor : 

-------------------------------------------------------------------------------
              x         y         z
-------------------------------------------------------------------------------
       x     4.07242   0.04553  -0.15089
       y     0.04553   4.34342  -0.03040
       z    -0.15089  -0.03040   3.41383
--------------------------------------------------------------------------------

  High frequency dielectric constant tensor : 

-------------------------------------------------------------------------------
              x         y         z
-------------------------------------------------------------------------------
       x     1.67231   0.00043   0.00313
       y     0.00043   1.68149  -0.00178
       z     0.00313  -0.00178   1.61358
-------------------------------------------------------------------------------

  Static refractive indices : 

-------------------------------------------------------------------------------
    1 =    1.83861      2 =    2.02359      3 =    2.08669
-------------------------------------------------------------------------------

  High frequency refractive indices : 

-------------------------------------------------------------------------------
    1 =    1.27018      2 =    1.29324      3 =    1.29675
-------------------------------------------------------------------------------


  Time to end of optimisation =      10.4225 seconds


  Peak dynamic memory used =       5.01 MB 


  Timing analysis for GULP :

--------------------------------------------------------------------------------
  Task / Subroutine                                          Time (Seconds)
--------------------------------------------------------------------------------
  Calculation of reciprocal space energy and derivatives          0.6067
  Calculation of real space energy and derivatives                6.3851
  Calculation of three-body energy and derivatives                0.5763
  Calculation and manipulation of Hessian matrix                  3.0377
  Calculation of matrix inversion                                 0.0218
  Global summation overhead                                       0.0001
--------------------------------------------------------------------------------
  Total CPU time                                                 10.4225
--------------------------------------------------------------------------------


  Dump file written as c00373.vasp.grs
  CIF file written as c00373.vasp.cif


  Job Finished at 12:54.29 31st October    2025                               

