********************************************************************************
*                       GENERAL UTILITY LATTICE PROGRAM                        *
*                                 Julian Gale                                  *
*                       Curtin Institute for Computation                       *
*                    School of Molecular and Life Sciences                     *
*                    Curtin University, Western Australia                      *
********************************************************************************
* Version = 6.1.2 * Last modified =   3rd November 2022                        *
********************************************************************************
*  optimise     - perform optimisation run                                     *
*  conp         - constant pressure calculation                                *
*  property     - calculate properties for final geometry                      *
********************************************************************************

  Job Started  at 13:13.37 31st October    2025                               

  Number of CPUs =     1


  Total number of configurations input =      1

********************************************************************************
*  Input for Configuration =   1 : c00479.vasp                                 *
********************************************************************************

  Formula = Ge4Si20O48                                                  

  Number of irreducible atoms/shells =     120


  Total number atoms/shells =     120

  Dimensionality = 3               :  Bulk   



  Cartesian lattice vectors (Angstroms) :

       17.182800    0.000000    0.000000
        0.000000    7.513760    0.000000
        0.000000    0.000000   10.447700

  Cell parameters (Angstroms/Degrees):

  a =      17.1828    alpha =  90.0000
  b =       7.5138    beta  =  90.0000
  c =      10.4477    gamma =  90.0000

  Initial cell volume =        1348.875752 Angs**3

  Temperature of configuration =   0.00     K 

  Pressure of configuration =         0.000 GPa 

  Fractional coordinates of asymmetric unit :

--------------------------------------------------------------------------------
   No.  Atomic       x           y          z         Charge      Occupancy
        Label      (Frac)      (Frac)     (Frac)        (e)         (Frac)  
--------------------------------------------------------------------------------
      1 Ge    c    0.052090    0.000000    0.372270     4.00000    1.000000    
      2 Ge    c    0.056730 *  0.000000 *  0.877870 *   4.00000    1.000000    
      3 Ge    c    0.660660 *  0.294090 *  0.017440 *   4.00000    1.000000    
      4 Ge    c    0.660660 *  0.705910 *  0.017440 *   4.00000    1.000000    
      5 Si    c    0.447910 *  0.000000 *  0.372270 *   4.00000    1.000000    
      6 Si    c    0.947910 *  0.000000 *  0.627730 *   4.00000    1.000000    
      7 Si    c    0.552090 *  0.000000 *  0.627730 *   4.00000    1.000000    
      8 Si    c    0.556730 *  0.000000 *  0.122130 *   4.00000    1.000000    
      9 Si    c    0.943270 *  0.000000 *  0.122130 *   4.00000    1.000000    
     10 Si    c    0.443270 *  0.000000 *  0.877870 *   4.00000    1.000000    
     11 Si    c    0.160190 *  0.293910 *  0.273440 *   4.00000    1.000000    
     12 Si    c    0.339810 *  0.706090 *  0.273440 *   4.00000    1.000000    
     13 Si    c    0.839810 *  0.293910 *  0.726560 *   4.00000    1.000000    
     14 Si    c    0.660190 *  0.706090 *  0.726560 *   4.00000    1.000000    
     15 Si    c    0.839810 *  0.706090 *  0.726560 *   4.00000    1.000000    
     16 Si    c    0.660190 *  0.293910 *  0.726560 *   4.00000    1.000000    
     17 Si    c    0.160190 *  0.706090 *  0.273440 *   4.00000    1.000000    
     18 Si    c    0.339810 *  0.293910 *  0.273440 *   4.00000    1.000000    
     19 Si    c    0.839340 *  0.705910 *  0.017440 *   4.00000    1.000000    
     20 Si    c    0.339340 *  0.294090 *  0.982560 *   4.00000    1.000000    
     21 Si    c    0.160660 *  0.705910 *  0.982560 *   4.00000    1.000000    
     22 Si    c    0.339340 *  0.705910 *  0.982560 *   4.00000    1.000000    
     23 Si    c    0.160660 *  0.294090 *  0.982560 *   4.00000    1.000000    
     24 Si    c    0.839340 *  0.294090 *  0.017440 *   4.00000    1.000000    
     25 O3    c    0.106570 *  0.174340 *  0.366200 *   1.33043    1.000000    
     26 O2    c    0.393430 *  0.825660 *  0.366200 *   0.87073    1.000000    
     27 O2    c    0.893430 *  0.174340 *  0.633800 *   0.87073    1.000000    
     28 O2    c    0.606570 *  0.825660 *  0.633800 *   0.87073    1.000000    
     29 O2    c    0.893430 *  0.825660 *  0.633800 *   0.87073    1.000000    
     30 O2    c    0.606570 *  0.174340 *  0.633800 *   0.87073    1.000000    
     31 O3    c    0.106570 *  0.825660 *  0.366200 *   1.33043    1.000000    
     32 O2    c    0.393430 *  0.174340 *  0.366200 *   0.87073    1.000000    
     33 O3    c    0.000000 *  0.000000 *  0.500000 *   1.33043    1.000000    
     34 O2    c    0.500000 *  0.000000 *  0.500000 *   0.87073    1.000000    
     35 O3    c    0.994520 *  0.000000 *  0.250840 *   1.33043    1.000000    
     36 O2    c    0.505480 *  0.000000 *  0.250840 *   0.87073    1.000000    
     37 O3    c    0.005480 *  0.000000 *  0.749160 *   1.33043    1.000000    
     38 O2    c    0.494520 *  0.000000 *  0.749160 *   0.87073    1.000000    
     39 O3    c    0.610230 *  0.175520 *  0.115390 *   1.33043    1.000000    
     40 O2    c    0.889770 *  0.824480 *  0.115390 *   0.87073    1.000000    
     41 O2    c    0.389770 *  0.175520 *  0.884610 *   0.87073    1.000000    
     42 O3    c    0.110230 *  0.824480 *  0.884610 *   1.33043    1.000000    
     43 O2    c    0.389770 *  0.824480 *  0.884610 *   0.87073    1.000000    
     44 O3    c    0.110230 *  0.175520 *  0.884610 *   1.33043    1.000000    
     45 O3    c    0.610230 *  0.824480 *  0.115390 *   1.33043    1.000000    
     46 O2    c    0.889770 *  0.175520 *  0.115390 *   0.87073    1.000000    
     47 O2    c    0.500000 *  0.000000 *  0.000000 *   0.87073    1.000000    
     48 O3    c    0.000000 *  0.000000 *  0.000000 *   1.33043    1.000000    
     49 O2    c    0.151750 *  0.500000 *  0.313330 *   0.87073    1.000000    
     50 O2    c    0.348250 *  0.500000 *  0.313330 *   0.87073    1.000000    
     51 O2    c    0.848250 *  0.500000 *  0.686670 *   0.87073    1.000000    
     52 O2    c    0.651750 *  0.500000 *  0.686670 *   0.87073    1.000000    
     53 O2    c    0.250000 *  0.234950 *  0.285720 *   0.87073    1.000000    
     54 O2    c    0.250000 *  0.765050 *  0.285720 *   0.87073    1.000000    
     55 O2    c    0.750000 *  0.234950 *  0.714280 *   0.87073    1.000000    
     56 O2    c    0.750000 *  0.765050 *  0.714280 *   0.87073    1.000000    
     57 O2    c    0.131410 *  0.268650 *  0.127790 *   0.87073    1.000000    
     58 O2    c    0.368590 *  0.731350 *  0.127790 *   0.87073    1.000000    
     59 O2    c    0.868590 *  0.268650 *  0.872210 *   0.87073    1.000000    
     60 O3    c    0.631410 *  0.731350 *  0.872210 *   1.33043    1.000000    
     61 O2    c    0.868590 *  0.731350 *  0.872210 *   0.87073    1.000000    
     62 O3    c    0.631410 *  0.268650 *  0.872210 *   1.33043    1.000000    
     63 O2    c    0.131410 *  0.731350 *  0.127790 *   0.87073    1.000000    
     64 O2    c    0.368590 *  0.268650 *  0.127790 *   0.87073    1.000000    
     65 O1    c    0.653920 *  0.500000 *  0.058200 *   1.73396    1.000000    
     66 O2    c    0.846080 *  0.500000 *  0.058200 *   0.87073    1.000000    
     67 O2    c    0.346080 *  0.500000 *  0.941800 *   0.87073    1.000000    
     68 O2    c    0.153920 *  0.500000 *  0.941800 *   0.87073    1.000000    
     69 O3    c    0.750000 *  0.231060 *  0.027050 *   1.33043    1.000000    
     70 O3    c    0.750000 *  0.768940 *  0.027050 *   1.33043    1.000000    
     71 O2    c    0.250000 *  0.231060 *  0.972950 *   0.87073    1.000000    
     72 O2    c    0.250000 *  0.768940 *  0.972950 *   0.87073    1.000000    
     73 O3    s    0.106570 *  0.174340 *  0.366200 *  -3.33043    1.000000    
     74 O2    s    0.393430 *  0.825660 *  0.366200 *  -2.87073    1.000000    
     75 O2    s    0.893430 *  0.174340 *  0.633800 *  -2.87073    1.000000    
     76 O2    s    0.606570 *  0.825660 *  0.633800 *  -2.87073    1.000000    
     77 O2    s    0.893430 *  0.825660 *  0.633800 *  -2.87073    1.000000    
     78 O2    s    0.606570 *  0.174340 *  0.633800 *  -2.87073    1.000000    
     79 O3    s    0.106570 *  0.825660 *  0.366200 *  -3.33043    1.000000    
     80 O2    s    0.393430 *  0.174340 *  0.366200 *  -2.87073    1.000000    
     81 O3    s    0.000000 *  0.000000 *  0.500000 *  -3.33043    1.000000    
     82 O2    s    0.500000 *  0.000000 *  0.500000 *  -2.87073    1.000000    
     83 O3    s    0.994520 *  0.000000 *  0.250840 *  -3.33043    1.000000    
     84 O2    s    0.505480 *  0.000000 *  0.250840 *  -2.87073    1.000000    
     85 O3    s    0.005480 *  0.000000 *  0.749160 *  -3.33043    1.000000    
     86 O2    s    0.494520 *  0.000000 *  0.749160 *  -2.87073    1.000000    
     87 O3    s    0.610230 *  0.175520 *  0.115390 *  -3.33043    1.000000    
     88 O2    s    0.889770 *  0.824480 *  0.115390 *  -2.87073    1.000000    
     89 O2    s    0.389770 *  0.175520 *  0.884610 *  -2.87073    1.000000    
     90 O3    s    0.110230 *  0.824480 *  0.884610 *  -3.33043    1.000000    
     91 O2    s    0.389770 *  0.824480 *  0.884610 *  -2.87073    1.000000    
     92 O3    s    0.110230 *  0.175520 *  0.884610 *  -3.33043    1.000000    
     93 O3    s    0.610230 *  0.824480 *  0.115390 *  -3.33043    1.000000    
     94 O2    s    0.889770 *  0.175520 *  0.115390 *  -2.87073    1.000000    
     95 O2    s    0.500000 *  0.000000 *  0.000000 *  -2.87073    1.000000    
     96 O3    s    0.000000 *  0.000000 *  0.000000 *  -3.33043    1.000000    
     97 O2    s    0.151750 *  0.500000 *  0.313330 *  -2.87073    1.000000    
     98 O2    s    0.348250 *  0.500000 *  0.313330 *  -2.87073    1.000000    
     99 O2    s    0.848250 *  0.500000 *  0.686670 *  -2.87073    1.000000    
    100 O2    s    0.651750 *  0.500000 *  0.686670 *  -2.87073    1.000000    
    101 O2    s    0.250000 *  0.234950 *  0.285720 *  -2.87073    1.000000    
    102 O2    s    0.250000 *  0.765050 *  0.285720 *  -2.87073    1.000000    
    103 O2    s    0.750000 *  0.234950 *  0.714280 *  -2.87073    1.000000    
    104 O2    s    0.750000 *  0.765050 *  0.714280 *  -2.87073    1.000000    
    105 O2    s    0.131410 *  0.268650 *  0.127790 *  -2.87073    1.000000    
    106 O2    s    0.368590 *  0.731350 *  0.127790 *  -2.87073    1.000000    
    107 O2    s    0.868590 *  0.268650 *  0.872210 *  -2.87073    1.000000    
    108 O3    s    0.631410 *  0.731350 *  0.872210 *  -3.33043    1.000000    
    109 O2    s    0.868590 *  0.731350 *  0.872210 *  -2.87073    1.000000    
    110 O3    s    0.631410 *  0.268650 *  0.872210 *  -3.33043    1.000000    
    111 O2    s    0.131410 *  0.731350 *  0.127790 *  -2.87073    1.000000    
    112 O2    s    0.368590 *  0.268650 *  0.127790 *  -2.87073    1.000000    
    113 O1    s    0.653920 *  0.500000 *  0.058200 *  -3.73396    1.000000    
    114 O2    s    0.846080 *  0.500000 *  0.058200 *  -2.87073    1.000000    
    115 O2    s    0.346080 *  0.500000 *  0.941800 *  -2.87073    1.000000    
    116 O2    s    0.153920 *  0.500000 *  0.941800 *  -2.87073    1.000000    
    117 O3    s    0.750000 *  0.231060 *  0.027050 *  -3.33043    1.000000    
    118 O3    s    0.750000 *  0.768940 *  0.027050 *  -3.33043    1.000000    
    119 O2    s    0.250000 *  0.231060 *  0.972950 *  -2.87073    1.000000    
    120 O2    s    0.250000 *  0.768940 *  0.972950 *  -2.87073    1.000000    
--------------------------------------------------------------------------------



********************************************************************************
*  General input information                                                   *
********************************************************************************

  Species output for all configurations : 

--------------------------------------------------------------------------------
  Species    Type    Atomic    Atomic    Charge       Radii (Angs)     Library
                     Number     Mass       (e)     Cova   Ionic  VDW   Symbol
--------------------------------------------------------------------------------
    Ge       Core       32      72.61   4.000000   1.170  0.000  1.750 Ge       
    Si       Core       14      28.09   4.000000   1.200  0.000  2.100 Si       
    O1       Core        8      16.00   1.733957   0.730  0.000  1.360 O1       
    O2       Core        8      16.00   0.870733   0.730  0.000  1.360 O2       
    O3       Core        8      16.00   1.330431   0.730  0.000  1.360 O3       
    O1       Shell       8       0.00  -3.733957   0.730  0.000  0.000 O1       
    O2       Shell       8       0.00  -2.870733   0.730  0.000  0.000 O2       
    O3       Shell       8       0.00  -3.330431   0.730  0.000  0.000 O3       
--------------------------------------------------------------------------------


  Lattice summation method               =    Ewald          (3-D)
                                         =    Parry          (2-D)
                                         =    Saunders et al (1-D)
  Accuracy factor for lattice sums       =   12.000


  Analytic derivatives to be used

  Time limit = Infinity

  Maximum range for interatomic potentials =    100000.000000 Angstroms

  General interatomic potentials :

--------------------------------------------------------------------------------
Atom  Types   Potential      Parameter       Value         Units   Cutoffs(Ang)
  1     2                                                            Min /  Max 
--------------------------------------------------------------------------------
Si   c O1   s Buckingham    Buckingham A     1315.2478    eV        0.000 16.000
                            Buckingham rho  0.31775900    Ang       
                            Buckingham C     10.141118    eV*Ang^6  
--------------------------------------------------------------------------------
Si   c O2   s Buckingham    Buckingham A     1315.2478    eV        0.000 16.000
                            Buckingham rho  0.31775900    Ang       
                            Buckingham C     10.141118    eV*Ang^6  
--------------------------------------------------------------------------------
Si   c O3   s Buckingham    Buckingham A     1315.2478    eV        0.000 16.000
                            Buckingham rho  0.31775900    Ang       
                            Buckingham C     10.141118    eV*Ang^6  
--------------------------------------------------------------------------------
Ge   c O1   s Buckingham    Buckingham A     1497.3996    eV        0.000 16.000
                            Buckingham rho  0.32564600    Ang       
                            Buckingham C     16.808599    eV*Ang^6  
--------------------------------------------------------------------------------
Ge   c O2   s Buckingham    Buckingham A     1497.3996    eV        0.000 16.000
                            Buckingham rho  0.32564600    Ang       
                            Buckingham C     16.808599    eV*Ang^6  
--------------------------------------------------------------------------------
Ge   c O3   s Buckingham    Buckingham A     1497.3996    eV        0.000 16.000
                            Buckingham rho  0.32564600    Ang       
                            Buckingham C     16.808599    eV*Ang^6  
--------------------------------------------------------------------------------
O1   s O1   s Buckingham    Buckingham A     22764.000    eV        0.000 16.000
                            Buckingham rho  0.14900000    Ang       
                            Buckingham C     10.937044    eV*Ang^6  
--------------------------------------------------------------------------------
O1   s O2   s Buckingham    Buckingham A     22764.000    eV        0.000 16.000
                            Buckingham rho  0.14900000    Ang       
                            Buckingham C     10.937044    eV*Ang^6  
--------------------------------------------------------------------------------
O1   s O3   s Buckingham    Buckingham A     22764.000    eV        0.000 16.000
                            Buckingham rho  0.14900000    Ang       
                            Buckingham C     10.937044    eV*Ang^6  
--------------------------------------------------------------------------------
O2   s O2   s Buckingham    Buckingham A     22764.000    eV        0.000 16.000
                            Buckingham rho  0.14900000    Ang       
                            Buckingham C     10.937044    eV*Ang^6  
--------------------------------------------------------------------------------
O2   s O3   s Buckingham    Buckingham A     22764.000    eV        0.000 16.000
                            Buckingham rho  0.14900000    Ang       
                            Buckingham C     10.937044    eV*Ang^6  
--------------------------------------------------------------------------------
O3   s O3   s Buckingham    Buckingham A     22764.000    eV        0.000 16.000
                            Buckingham rho  0.14900000    Ang       
                            Buckingham C     10.937044    eV*Ang^6  
--------------------------------------------------------------------------------
O1   c O1   s Spring (c-s)  Spring k 2       180.31577    eV*Ang^-2 0.000  0.800
                            Spring k 4       0.0000000    eV*Ang^-4 
--------------------------------------------------------------------------------
O2   c O2   s Spring (c-s)  Spring k 2       75.969800    eV*Ang^-2 0.000  0.800
                            Spring k 4       0.0000000    eV*Ang^-4 
--------------------------------------------------------------------------------
O3   c O3   s Spring (c-s)  Spring k 2       128.14270    eV*Ang^-2 0.000  0.800
                            Spring k 4       0.0000000    eV*Ang^-4 
--------------------------------------------------------------------------------

  General Three-body potentials :

--------------------------------------------------------------------------------
  Atoms       Potential      Parameter       Value         Units   Cutoffs(Ang)
  1 / 2 / 3                                                          Min /  Max 
--------------------------------------------------------------------------------
Si    core    Harmonic      Three-body cnst  1.2614000    eV*rad^-2 0.000  1.900
O1    shel                  Three-body angl  109.47000    degrees   0.000  1.900
O1    shel                  Three-body k4    0.0000000    eV*rad^-4 0.000  3.500
                            Three-body k3    0.0000000    eV*rad^-3 
--------------------------------------------------------------------------------
Si    core    Harmonic      Three-body cnst  1.2614000    eV*rad^-2 0.000  1.900
O1    shel                  Three-body angl  109.47000    degrees   0.000  1.900
õ(1   shel                  Three-body k4    0.0000000    eV*rad^-4 0.000  3.500
                            Three-body k3    0.0000000    eV*rad^-3 
--------------------------------------------------------------------------------
Si    core    Harmonic      Three-body cnst  1.2614000    eV*rad^-2 0.000  1.900
õ(1   shel                  Three-body angl  109.47000    degrees   0.000  1.900
õ(1   shel                  Three-body k4    0.0000000    eV*rad^-4 0.000  3.500
                            Three-body k3    0.0000000    eV*rad^-3 
--------------------------------------------------------------------------------
Si    core    Harmonic      Three-body cnst  1.2614000    eV*rad^-2 0.000  1.900
O1    shel                  Three-body angl  109.47000    degrees   0.000  1.900
O2    shel                  Three-body k4    0.0000000    eV*rad^-4 0.000  3.500
                            Three-body k3    0.0000000    eV*rad^-3 
--------------------------------------------------------------------------------
Si    core    Harmonic      Three-body cnst  1.2614000    eV*rad^-2 0.000  1.900
O1    shel                  Three-body angl  109.47000    degrees   0.000  1.900
õ(2   shel                  Three-body k4    0.0000000    eV*rad^-4 0.000  3.500
                            Three-body k3    0.0000000    eV*rad^-3 
--------------------------------------------------------------------------------
Si    core    Harmonic      Three-body cnst  1.2614000    eV*rad^-2 0.000  1.900
O2    shel                  Three-body angl  109.47000    degrees   0.000  1.900
õ(1   shel                  Three-body k4    0.0000000    eV*rad^-4 0.000  3.500
                            Three-body k3    0.0000000    eV*rad^-3 
--------------------------------------------------------------------------------
Si    core    Harmonic      Three-body cnst  1.2614000    eV*rad^-2 0.000  1.900
õ(1   shel                  Three-body angl  109.47000    degrees   0.000  1.900
õ(2   shel                  Three-body k4    0.0000000    eV*rad^-4 0.000  3.500
                            Three-body k3    0.0000000    eV*rad^-3 
--------------------------------------------------------------------------------
Si    core    Harmonic      Three-body cnst  1.2614000    eV*rad^-2 0.000  1.900
O2    shel                  Three-body angl  109.47000    degrees   0.000  1.900
O2    shel                  Three-body k4    0.0000000    eV*rad^-4 0.000  3.500
                            Three-body k3    0.0000000    eV*rad^-3 
--------------------------------------------------------------------------------
Si    core    Harmonic      Three-body cnst  1.2614000    eV*rad^-2 0.000  1.900
O2    shel                  Three-body angl  109.47000    degrees   0.000  1.900
õ(2   shel                  Three-body k4    0.0000000    eV*rad^-4 0.000  3.500
                            Three-body k3    0.0000000    eV*rad^-3 
--------------------------------------------------------------------------------
Si    core    Harmonic      Three-body cnst  1.2614000    eV*rad^-2 0.000  1.900
õ(2   shel                  Three-body angl  109.47000    degrees   0.000  1.900
õ(2   shel                  Three-body k4    0.0000000    eV*rad^-4 0.000  3.500
                            Three-body k3    0.0000000    eV*rad^-3 
--------------------------------------------------------------------------------

********************************************************************************
*  Output for configuration   1 : c00479.vasp                                  *
********************************************************************************


  Components of energy : 

--------------------------------------------------------------------------------
  Interatomic potentials     =         768.38726474 eV    
  Three-body potentials      =           0.00933310 eV    
  Monopole - monopole (real) =       -2676.00317478 eV    
  Monopole - monopole (recip)=       -1115.35404472 eV    
  Monopole - monopole (total)=       -3791.35721950 eV    
--------------------------------------------------------------------------------
  Total lattice energy       =       -3022.96062166 eV    
--------------------------------------------------------------------------------
  Total lattice energy       =         -291669.4898 kJ/(mole unit cells)
--------------------------------------------------------------------------------


  Number of variables =      363

  Maximum number of calculations  =          1000
  Maximum Hessian update interval =            10
  Maximum step size               =   0.100000000
  Maximum parameter tolerance     =   0.000010000
  Maximum function  tolerance     =   0.000010000
  Maximum gradient  tolerance     =   0.001000000
  Maximum gradient  component     =   0.010000000

  Symmetry not applied to optimisation

  Cell parameters to be optimised using strains

  Newton-Raphson optimiser to be used

  BFGS hessian update to be used

  Lower half triangular hessian to be used

  Minimiser to switch to RFO
  When gradient norm is less than     0.050000

  Dumpfile to be written after every cycle

  Start of bulk optimisation :

  Cycle:      0 Energy:     -3022.960622  Gnorm:      4.470655  CPU:    0.107
  ** Hessian calculated **
  Cycle:      1 Energy:     -3034.469333  Gnorm:      3.719263  CPU:    0.284
  ** Hessian calculated **
  Cycle:      2 Energy:     -3055.599807  Gnorm:      0.875288  CPU:    0.458
  ** Hessian calculated **
  Cycle:      3 Energy:     -3057.721940  Gnorm:      0.694018  CPU:    0.650
  ** Hessian calculated **
  Cycle:      4 Energy:     -3058.895347  Gnorm:      0.387939  CPU:    0.827
  Cycle:      5 Energy:     -3059.286433  Gnorm:      0.261178  CPU:    0.918
  Cycle:      6 Energy:     -3059.645484  Gnorm:      0.208274  CPU:    1.026
  Cycle:      7 Energy:     -3059.985346  Gnorm:      0.160870  CPU:    1.134
  Cycle:      8 Energy:     -3060.186478  Gnorm:      0.128450  CPU:    1.225
  Cycle:      9 Energy:     -3060.307684  Gnorm:      0.095311  CPU:    1.316
  Cycle:     10 Energy:     -3060.375284  Gnorm:      0.074652  CPU:    1.405
  Cycle:     11 Energy:     -3060.413431  Gnorm:      0.056260  CPU:    1.514
  Cycle:     12 Energy:     -3060.438835  Gnorm:      0.052586  CPU:    1.622
  Cycle:     13 Energy:     -3060.465329  Gnorm:      0.053653  CPU:    1.729
  ** Hessian calculated **
  Cycle:     14 Energy:     -3060.495851  Gnorm:      0.051360  CPU:    1.923
  Cycle:     15 Energy:     -3060.545051  Gnorm:      0.047423  CPU:    2.047
  ** Hessian has wrong structure
  ** Imaginary eigenvectors =   4
  Cycle:     16 Energy:     -3060.545556  Gnorm:      0.073696  CPU:    2.276
  ** Hessian has wrong structure
  ** Imaginary eigenvectors =   4
  ** Hessian has wrong structure
  ** Imaginary eigenvectors =   4
  Cycle:     17 Energy:     -3060.583065  Gnorm:      0.074702  CPU:    2.749
  ** Hessian has wrong structure
  ** Imaginary eigenvectors =   4
  Cycle:     18 Energy:     -3060.639411  Gnorm:      0.080660  CPU:    2.963
  ** Hessian has wrong structure
  ** Imaginary eigenvectors =   3
  ** Hessian has wrong structure
  ** Imaginary eigenvectors =   1
  Cycle:     19 Energy:     -3060.840003  Gnorm:      0.061169  CPU:    3.308
  ** Hessian has wrong structure
  ** Imaginary eigenvectors =   1
  ** Hessian has wrong structure
  ** Imaginary eigenvectors =   1
  Cycle:     20 Energy:     -3060.865417  Gnorm:      0.071203  CPU:    3.721
  ** Hessian has required structure
  Cycle:     21 Energy:     -3061.063668  Gnorm:      0.053966  CPU:    3.881
  ** Hessian has required structure
  Cycle:     22 Energy:     -3061.129890  Gnorm:      0.026848  CPU:    4.029
  ** Hessian has required structure
  Cycle:     23 Energy:     -3061.181330  Gnorm:      0.026010  CPU:    4.190
  ** Hessian has required structure
  Cycle:     24 Energy:     -3061.201446  Gnorm:      0.031763  CPU:    4.337
  ** Hessian has required structure
  Cycle:     25 Energy:     -3061.218281  Gnorm:      0.027786  CPU:    4.484
  ** Hessian has required structure
  Cycle:     26 Energy:     -3061.234471  Gnorm:      0.028054  CPU:    4.630
  ** Hessian has required structure
  Cycle:     27 Energy:     -3061.246906  Gnorm:      0.019674  CPU:    4.795
  ** Hessian has required structure
  Cycle:     28 Energy:     -3061.257852  Gnorm:      0.025659  CPU:    4.966
  ** Hessian has required structure
  Cycle:     29 Energy:     -3061.270313  Gnorm:      0.024332  CPU:    5.135
  ** Hessian has required structure
  Cycle:     30 Energy:     -3061.297959  Gnorm:      0.020818  CPU:    5.389
  ** Hessian has required structure
  Cycle:     31 Energy:     -3061.321759  Gnorm:      0.021911  CPU:    5.536
  ** Hessian has required structure
  Cycle:     32 Energy:     -3061.333726  Gnorm:      0.014920  CPU:    5.683
  ** Hessian has required structure
  Cycle:     33 Energy:     -3061.337890  Gnorm:      0.014937  CPU:    5.829
  ** Hessian has required structure
  Cycle:     34 Energy:     -3061.340995  Gnorm:      0.010294  CPU:    5.973
  ** Hessian has required structure
  Cycle:     35 Energy:     -3061.342023  Gnorm:      0.005734  CPU:    6.118
  ** Hessian has required structure
  Cycle:     36 Energy:     -3061.342610  Gnorm:      0.004714  CPU:    6.280
  ** Hessian has required structure
  Cycle:     37 Energy:     -3061.342949  Gnorm:      0.002381  CPU:    6.442
  ** Hessian has required structure
  Cycle:     38 Energy:     -3061.343165  Gnorm:      0.001959  CPU:    6.605
  ** Hessian has required structure
  Cycle:     39 Energy:     -3061.343351  Gnorm:      0.001526  CPU:    6.768
  ** Hessian has required structure
  Cycle:     40 Energy:     -3061.343485  Gnorm:      0.000938  CPU:    6.990
  ** Hessian has required structure
  Cycle:     41 Energy:     -3061.343547  Gnorm:      0.000506  CPU:    7.152
  ** Hessian has required structure
  Cycle:     42 Energy:     -3061.343559  Gnorm:      0.000313  CPU:    7.300
  ** Hessian has required structure
  Cycle:     43 Energy:     -3061.343567  Gnorm:      0.000161  CPU:    7.496
  ** Hessian has required structure
  Cycle:     44 Energy:     -3061.343568  Gnorm:      0.000142  CPU:    7.633
  ** Hessian has required structure
  Cycle:     45 Energy:     -3061.343568  Gnorm:      0.000137  CPU:    7.759
  ** Hessian has required structure
  Cycle:     46 Energy:     -3061.343568  Gnorm:      0.000134  CPU:    7.886
  ** Hessian has required structure
  Cycle:     47 Energy:     -3061.343568  Gnorm:      0.000133  CPU:    8.021
  ** Hessian has required structure
  Cycle:     48 Energy:     -3061.343568  Gnorm:      0.000133  CPU:    8.155
  ** Hessian has required structure
  Cycle:     49 Energy:     -3061.343568  Gnorm:      0.000133  CPU:    8.342
  ** Hessian has required structure
  Cycle:     50 Energy:     -3061.343568  Gnorm:      0.000133  CPU:    8.607
  ** Hessian calculated **


  **** Optimisation achieved ****


  Final energy =   -3061.34356812 eV      
  Final Gnorm  =       0.00013284

  Components of energy : 

--------------------------------------------------------------------------------
  Interatomic potentials     =         816.31584691 eV    
  Three-body potentials      =           0.20282917 eV    
  Monopole - monopole (real) =       -2169.19452287 eV    
  Monopole - monopole (recip)=       -1708.66772133 eV    
  Monopole - monopole (total)=       -3877.86224420 eV    
--------------------------------------------------------------------------------
  Total lattice energy       =       -3061.34356812 eV    
--------------------------------------------------------------------------------
  Total lattice energy       =         -295372.8574 kJ/(mole unit cells)
--------------------------------------------------------------------------------

  Final fractional coordinates of atoms :

--------------------------------------------------------------------------------
   No.  Atomic        x           y          z          Radius
        Label       (Frac)      (Frac)     (Frac)       (Angs) 
--------------------------------------------------------------------------------
     1  Ge    c     0.052090    0.000000    0.372270    0.000000
     2  Ge    c     0.063749    0.004846    0.890760    0.000000
     3  Ge    c     0.652523    0.348240    0.024625    0.000000
     4  Ge    c     0.676511    0.760660    0.016338    0.000000
     5  Si    c     0.453912    0.014172    0.368881    0.000000
     6  Si    c     0.952990    0.998609    0.637566    0.000000
     7  Si    c     0.555927    0.013837    0.624472    0.000000
     8  Si    c     0.562686    0.034059    0.124034    0.000000
     9  Si    c     0.949158    0.013971    0.123051    0.000000
    10  Si    c     0.456958    0.006902    0.881415    0.000000
    11  Si    c     0.173902    0.285375    0.267653    0.000000
    12  Si    c     0.340124    0.724478    0.280998    0.000000
    13  Si    c     0.836097    0.289354    0.712861    0.000000
    14  Si    c     0.672138    0.729702    0.708644    0.000000
    15  Si    c     0.849606    0.688968    0.703709    0.000000
    16  Si    c     0.656906    0.320849    0.718711    0.000000
    17  Si    c     0.160462    0.694897    0.271591    0.000000
    18  Si    c     0.352772    0.321005    0.280126    0.000000
    19  Si    c     0.857180    0.697844    0.009987    0.000000
    20  Si    c     0.361060    0.323751    0.976915    0.000000
    21  Si    c     0.163929    0.689608    0.971915    0.000000
    22  Si    c     0.344271    0.722377    0.977512    0.000000
    23  Si    c     0.181601    0.286537    0.967370    0.000000
    24  Si    c     0.836931    0.302566    0.018416    0.000000
    25  O3    c     0.119497    0.165525    0.353509    0.000000
    26  O2    c     0.389930    0.858872    0.368234    0.000000
    27  O2    c     0.885858    0.149046    0.629926    0.000000
    28  O2    c     0.619046    0.855288    0.619625    0.000000
    29  O2    c     0.910913    0.807745    0.624763    0.000000
    30  O2    c     0.598837    0.202805    0.631260    0.000000
    31  O3    c     0.099330    0.799718    0.358317    0.000000
    32  O2    c     0.410334    0.202457    0.365557    0.000000
    33  O3    c     0.017688    0.018699    0.529015    0.000000
    34  O2    c     0.505482    0.004176    0.495722    0.000000
    35  O3    c     0.971741    0.013635    0.273086    0.000000
    36  O2    c     0.511216    0.987570    0.247325    0.000000
    37  O3    c     0.993608    0.021953    0.776175    0.000000
    38  O2    c     0.496468    0.986933    0.742554    0.000000
    39  O3    c     0.585997    0.237027    0.119659    0.000000
    40  O2    c     0.922808    0.818647    0.075996    0.000000
    41  O2    c     0.422068    0.203969    0.897101    0.000000
    42  O3    c     0.106525    0.798336    0.882685    0.000000
    43  O2    c     0.388507    0.863308    0.890347    0.000000
    44  O3    c     0.137809    0.157812    0.871256    0.000000
    45  O3    c     0.642461    0.923724    0.118003    0.000000
    46  O2    c     0.880802    0.156313    0.101724    0.000000
    47  O2    c     0.519500    0.966488    0.992694    0.000000
    48  O3    c     0.024555    0.061518    0.040044    0.000000
    49  O2    c     0.146809    0.487245    0.285968    0.000000
    50  O2    c     0.367715    0.525956    0.312136    0.000000
    51  O2    c     0.869207    0.483328    0.679997    0.000000
    52  O2    c     0.639764    0.529622    0.704511    0.000000
    53  O2    c     0.263927    0.269043    0.312810    0.000000
    54  O2    c     0.248634    0.745468    0.314420    0.000000
    55  O2    c     0.745411    0.278776    0.672580    0.000000
    56  O2    c     0.761535    0.730210    0.656664    0.000000
    57  O2    c     0.169031    0.226374    0.116715    0.000000
    58  O2    c     0.353906    0.768297    0.129730    0.000000
    59  O2    c     0.841142    0.249682    0.866138    0.000000
    60  O3    c     0.670773    0.808136    0.853112    0.000000
    61  O2    c     0.856624    0.734846    0.855933    0.000000
    62  O3    c     0.643364    0.269420    0.866870    0.000000
    63  O2    c     0.147494    0.749780    0.121365    0.000000
    64  O2    c     0.371605    0.281383    0.128978    0.000000
    65  O1    c     0.630304    0.564432    0.041087    0.000000
    66  O2    c     0.878041    0.493287    0.037337    0.000000
    67  O2    c     0.379771    0.527970    0.949426    0.000000
    68  O2    c     0.148053    0.483495    0.951346    0.000000
    69  O3    c     0.748896    0.313538    0.067332    0.000000
    70  O3    c     0.772577    0.740241    0.064899    0.000000
    71  O2    c     0.273393    0.281388    0.933003    0.000000
    72  O2    c     0.253954    0.730365    0.937619    0.000000
    73  O3    s     0.119719    0.164586    0.345818    0.000000
    74  O2    s     0.391265    0.860658    0.358629    0.000000
    75  O2    s     0.887319    0.148966    0.639856    0.000000
    76  O2    s     0.618119    0.858479    0.629727    0.000000
    77  O2    s     0.908624    0.814392    0.634470    0.000000
    78  O2    s     0.600534    0.195541    0.639881    0.000000
    79  O3    s     0.101934    0.804980    0.350298    0.000000
    80  O2    s     0.408648    0.195361    0.356480    0.000000
    81  O3    s     0.013636    0.014947    0.527484    0.000000
    82  O2    s     0.505261    0.006543    0.495716    0.000000
    83  O3    s     0.976081    0.012523    0.265993    0.000000
    84  O2    s     0.510794    0.996016    0.246554    0.000000
    85  O3    s     0.995857    0.018003    0.772446    0.000000
    86  O2    s     0.498557    0.992334    0.745620    0.000000
    87  O3    s     0.588972    0.225631    0.112559    0.000000
    88  O2    s     0.918324    0.825437    0.073497    0.000000
    89  O2    s     0.419036    0.196474    0.904315    0.000000
    90  O3    s     0.109083    0.803452    0.892577    0.000000
    91  O2    s     0.390961    0.863038    0.899312    0.000000
    92  O3    s     0.136609    0.159438    0.882908    0.000000
    93  O3    s     0.637445    0.921115    0.110097    0.000000
    94  O2    s     0.883273    0.157203    0.094673    0.000000
    95  O2    s     0.517144    0.977535    0.993902    0.000000
    96  O3    s     0.020054    0.052138    0.036495    0.000000
    97  O2    s     0.151227    0.488332    0.282423    0.000000
    98  O2    s     0.363158    0.524943    0.305376    0.000000
    99  O2    s     0.863672    0.485002    0.685945    0.000000
   100  O2    s     0.644951    0.528716    0.706422    0.000000
   101  O2    s     0.264037    0.276369    0.304550    0.000000
   102  O2    s     0.249317    0.737966    0.306405    0.000000
   103  O2    s     0.745826    0.284418    0.681734    0.000000
   104  O2    s     0.761492    0.725726    0.666955    0.000000
   105  O2    s     0.170830    0.238585    0.117183    0.000000
   106  O2    s     0.351404    0.758768    0.129573    0.000000
   107  O2    s     0.840155    0.259473    0.865822    0.000000
   108  O3    s     0.671369    0.796510    0.851914    0.000000
   109  O2    s     0.855924    0.725956    0.855783    0.000000
   110  O3    s     0.645415    0.280692    0.864437    0.000000
   111  O2    s     0.150454    0.738279    0.121570    0.000000
   112  O2    s     0.368512    0.289988    0.128803    0.000000
   113  O1    s     0.635644    0.562017    0.037880    0.000000
   114  O2    s     0.871738    0.494855    0.032559    0.000000
   115  O2    s     0.374087    0.526537    0.955292    0.000000
   116  O2    s     0.153375    0.485135    0.955308    0.000000
   117  O3    s     0.750171    0.315199    0.058896    0.000000
   118  O3    s     0.773682    0.737449    0.055272    0.000000
   119  O2    s     0.273211    0.286668    0.941549    0.000000
   120  O2    s     0.254270    0.725092    0.945689    0.000000
--------------------------------------------------------------------------------

  Final Cartesian lattice vectors (Angstroms) :

       17.128269    0.028731    0.032145
        0.012219    7.600202   -0.036536
        0.016304   -0.049173   10.289343


  Final cell parameters and derivatives :

--------------------------------------------------------------------------------
       a           17.128324 Angstrom     dE/de1(xx)    -0.003322 eV/strain
       b            7.600299 Angstrom     dE/de2(yy)    -0.006707 eV/strain
       c           10.289474 Angstrom     dE/de3(zz)     0.002633 eV/strain
       alpha       90.549101 Degrees      dE/de4(yz)    -0.000321 eV/strain
       beta        89.802145 Degrees      dE/de5(xz)     0.000360 eV/strain
       gamma       89.812295 Degrees      dE/de6(xy)    -0.000614 eV/strain
--------------------------------------------------------------------------------

  Primitive cell volume =          1339.410803 Angs**3

  Density of cell =      2.008730 g/cm**3

  Non-primitive cell volume =          1339.410803 Angs**3


  Final internal derivatives :

--------------------------------------------------------------------------------
   No.  Atomic          a             b             c           Radius
        Label          (eV)          (eV)          (eV)        (eV/Angs)
--------------------------------------------------------------------------------
      1 Ge    c       0.000000      0.000000      0.000000      0.000000
      2 Ge    c       0.000957      0.000104     -0.000062      0.000000
      3 Ge    c      -0.000079      0.002621      0.000851      0.000000
      4 Ge    c       0.006610     -0.002059      0.001013      0.000000
      5 Si    c      -0.018534      0.001453     -0.001880      0.000000
      6 Si    c       0.000594      0.000028      0.000115      0.000000
      7 Si    c       0.010188      0.001134      0.002301      0.000000
      8 Si    c       0.009439      0.003608     -0.005374      0.000000
      9 Si    c      -0.000116      0.000116     -0.000074      0.000000
     10 Si    c      -0.006363      0.000217      0.000333      0.000000
     11 Si    c       0.000427      0.000080      0.000065      0.000000
     12 Si    c       0.000773     -0.000163      0.000704      0.000000
     13 Si    c      -0.000066      0.000051     -0.000049      0.000000
     14 Si    c      -0.000700     -0.000336      0.002081      0.000000
     15 Si    c      -0.000193     -0.000059     -0.000276      0.000000
     16 Si    c      -0.001583      0.000179     -0.000117      0.000000
     17 Si    c       0.000380     -0.000145      0.000240      0.000000
     18 Si    c       0.001271      0.000160      0.000526      0.000000
     19 Si    c      -0.007248      0.000109      0.001587      0.000000
     20 Si    c       0.000422      0.000597     -0.000556      0.000000
     21 Si    c       0.000687     -0.000432     -0.000153      0.000000
     22 Si    c       0.000607     -0.000478     -0.001030      0.000000
     23 Si    c       0.000855      0.000352     -0.000017      0.000000
     24 Si    c      -0.008675      0.000227      0.001922      0.000000
     25 O3    c      -0.001583     -0.000819      0.000115      0.000000
     26 O2    c      -0.000084     -0.000909      0.000435      0.000000
     27 O2    c      -0.000329      0.000104      0.000233      0.000000
     28 O2    c       0.000614     -0.000760     -0.000507      0.000000
     29 O2    c       0.000154      0.000204     -0.000016      0.000000
     30 O2    c      -0.000378      0.000080      0.000074      0.000000
     31 O3    c       0.000047      0.000374     -0.000281      0.000000
     32 O2    c       0.000716      0.000394      0.000029      0.000000
     33 O3    c      -0.000422      0.000026     -0.000066      0.000000
     34 O2    c       0.013702     -0.000776      0.004087      0.000000
     35 O3    c       0.000535     -0.000032      0.000396      0.000000
     36 O2    c      -0.007987     -0.003802      0.002218      0.000000
     37 O3    c      -0.000014      0.000080     -0.000161      0.000000
     38 O2    c      -0.010082     -0.000937      0.001049      0.000000
     39 O3    c       0.000852      0.001852     -0.000185      0.000000
     40 O2    c      -0.000011     -0.000163     -0.000192      0.000000
     41 O2    c       0.000172     -0.000164      0.000293      0.000000
     42 O3    c      -0.000978      0.000930      0.000139      0.000000
     43 O2    c       0.001116     -0.000048     -0.000000      0.000000
     44 O3    c      -0.001627     -0.000725      0.000020      0.000000
     45 O3    c       0.005236     -0.002038      0.000022      0.000000
     46 O2    c       0.000119      0.000236     -0.000707      0.000000
     47 O2    c       0.006600     -0.002248     -0.000650      0.000000
     48 O3    c      -0.000779     -0.000096     -0.000396      0.000000
     49 O2    c       0.000435      0.000104     -0.000069      0.000000
     50 O2    c       0.000070     -0.000345     -0.000069      0.000000
     51 O2    c      -0.001302     -0.000297      0.001136      0.000000
     52 O2    c       0.001812      0.000822      0.000218      0.000000
     53 O2    c       0.000756      0.000172     -0.000200      0.000000
     54 O2    c      -0.000318     -0.000127     -0.000164      0.000000
     55 O2    c       0.001410      0.000222      0.000493      0.000000
     56 O2    c      -0.001667     -0.000211      0.000990      0.000000
     57 O2    c       0.000192      0.000096     -0.000021      0.000000
     58 O2    c      -0.000544     -0.000260      0.000143      0.000000
     59 O2    c       0.000070      0.000207      0.000340      0.000000
     60 O3    c       0.000898     -0.002097     -0.002871      0.000000
     61 O2    c       0.000767     -0.000408      0.000508      0.000000
     62 O3    c       0.000901      0.001645      0.001539      0.000000
     63 O2    c       0.000114     -0.000075     -0.000114      0.000000
     64 O2    c       0.000115      0.000166      0.000247      0.000000
     65 O1    c       0.008265     -0.000665     -0.004418      0.000000
     66 O2    c      -0.003045     -0.001110     -0.002323      0.000000
     67 O2    c      -0.000190     -0.000254      0.000109      0.000000
     68 O2    c       0.000461      0.000354      0.000131      0.000000
     69 O3    c       0.014796      0.003255     -0.003316      0.000000
     70 O3    c      -0.008265     -0.003306     -0.004887      0.000000
     71 O2    c       0.000205      0.000167      0.000314      0.000000
     72 O2    c      -0.000835     -0.000207      0.000177      0.000000
     73 O3    s       0.000429      0.000194     -0.000202      0.000000
     74 O2    s      -0.006885     -0.000774     -0.000261      0.000000
     75 O2    s      -0.000505      0.000370      0.000043      0.000000
     76 O2    s       0.005725     -0.001102      0.001139      0.000000
     77 O2    s      -0.000156     -0.000374      0.000448      0.000000
     78 O2    s       0.003849      0.001130      0.000408      0.000000
     79 O3    s       0.000028      0.000015      0.000104      0.000000
     80 O2    s      -0.006906      0.001350      0.000078      0.000000
     81 O3    s       0.000181     -0.000002      0.000138      0.000000
     82 O2    s      -0.001667      0.000281      0.000731      0.000000
     83 O3    s       0.000362      0.000113     -0.000325      0.000000
     84 O2    s       0.000180     -0.000070     -0.001374      0.000000
     85 O3    s       0.000410     -0.000318      0.000208      0.000000
     86 O2    s       0.000223      0.000611     -0.000026      0.000000
     87 O3    s       0.005786      0.001845     -0.001244      0.000000
     88 O2    s      -0.001080     -0.000588     -0.000035      0.000000
     89 O2    s      -0.003391      0.000328     -0.000105      0.000000
     90 O3    s       0.000454     -0.000226      0.000021      0.000000
     91 O2    s      -0.003796      0.000134      0.000800      0.000000
     92 O3    s       0.000157      0.000255      0.000332      0.000000
     93 O3    s       0.006448     -0.001063      0.001192      0.000000
     94 O2    s      -0.001639      0.001342     -0.000201      0.000000
     95 O2    s      -0.002687      0.000379     -0.002622      0.000000
     96 O3    s       0.000190     -0.000111     -0.000009      0.000000
     97 O2    s      -0.000160      0.000119     -0.000069      0.000000
     98 O2    s      -0.000970      0.000011     -0.000314      0.000000
     99 O2    s      -0.002407      0.000058      0.001056      0.000000
    100 O2    s       0.004369      0.000584      0.001206      0.000000
    101 O2    s      -0.000367     -0.000013     -0.000056      0.000000
    102 O2    s      -0.000432     -0.000046     -0.000088      0.000000
    103 O2    s       0.000767      0.001246      0.001557      0.000000
    104 O2    s      -0.001380     -0.001379      0.002381      0.000000
    105 O2    s      -0.000131      0.000183     -0.000152      0.000000
    106 O2    s       0.001617      0.000757     -0.000380      0.000000
    107 O2    s      -0.004585      0.001329      0.001454      0.000000
    108 O3    s       0.002073     -0.001013      0.001310      0.000000
    109 O2    s      -0.003457     -0.000672      0.000504      0.000000
    110 O3    s       0.002029     -0.000286     -0.000232      0.000000
    111 O2    s       0.000349     -0.000195     -0.000100      0.000000
    112 O2    s      -0.000626     -0.000363     -0.000441      0.000000
    113 O1    s       0.002246      0.000786      0.001071      0.000000
    114 O2    s      -0.002950     -0.000404     -0.001414      0.000000
    115 O2    s      -0.001034     -0.000031      0.000299      0.000000
    116 O2    s       0.000405      0.000048      0.000229      0.000000
    117 O3    s      -0.005236     -0.000217     -0.001927      0.000000
    118 O3    s       0.003520     -0.000175     -0.001189      0.000000
    119 O2    s      -0.000078     -0.000050      0.000065      0.000000
    120 O2    s      -0.000228      0.000026      0.000097      0.000000
--------------------------------------------------------------------------------
  Maximum abs         0.018534      0.003802      0.005374      0.000000
--------------------------------------------------------------------------------


  Born effective charge tensors : 

-------------------------------------------------------------------------------
  Atom             x           y             z
-------------------------------------------------------------------------------
    1 Ge    x       4.2642     -0.1255     -0.4557
            y       0.0916      3.9125     -0.0261
            z      -0.3304      0.0689      4.5993
-------------------------------------------------------------------------------
    2 Ge    x       4.4002     -0.2160      0.0635
            y       0.1613      3.9163     -0.0446
            z       0.8266     -0.0281      3.5688
-------------------------------------------------------------------------------
    3 Ge    x       4.0727      0.2426     -0.1897
            y       0.2778      4.2243     -0.2506
            z      -0.2952      0.0266      3.3365
-------------------------------------------------------------------------------
    4 Ge    x       4.0004     -0.4453     -0.1800
            y      -0.0104      4.1979      0.2364
            z      -0.2079      0.0637      3.3828
-------------------------------------------------------------------------------
    5 Si    x       3.3973     -0.1028      0.2133
            y       0.1335      3.2310     -0.0403
            z       0.5552     -0.0263      3.7404
-------------------------------------------------------------------------------
    6 Si    x       3.8169      0.1922     -0.0576
            y      -0.0889      3.3263     -0.0058
            z      -0.8112     -0.0598      4.2977
-------------------------------------------------------------------------------
    7 Si    x       3.4417      0.1147      0.1974
            y      -0.1022      3.2124      0.0205
            z       0.4614     -0.0082      3.7949
-------------------------------------------------------------------------------
    8 Si    x       3.7409      0.2322     -0.2068
            y      -0.2986      3.5771     -0.0049
            z      -0.5973     -0.1252      3.1888
-------------------------------------------------------------------------------
    9 Si    x       3.7966      0.1726      0.3745
            y      -0.1718      3.3241      0.0083
            z       0.3114     -0.0325      3.6946
-------------------------------------------------------------------------------
   10 Si    x       3.4215     -0.1440     -0.2917
            y       0.2004      3.2554      0.0146
            z      -0.4783      0.0476      3.1195
-------------------------------------------------------------------------------
   11 Si    x       3.4302      0.4294     -0.2502
            y       0.3499      3.6062     -0.3426
            z      -0.2785     -0.1850      2.9641
-------------------------------------------------------------------------------
   12 Si    x       3.1528      0.2930      0.1425
            y       0.1990      3.4723      0.1589
            z       0.1170      0.0763      2.8122
-------------------------------------------------------------------------------
   13 Si    x       3.1760     -0.3207     -0.0807
            y      -0.1319      3.4423      0.1327
            z      -0.1099      0.0487      2.7741
-------------------------------------------------------------------------------
   14 Si    x       3.2829     -0.3626      0.0799
            y      -0.1908      3.5790     -0.0945
            z       0.1624      0.0949      3.0430
-------------------------------------------------------------------------------
   15 Si    x       3.1706      0.2542     -0.0081
            y       0.2649      3.4217     -0.1721
            z      -0.1181     -0.0683      2.7710
-------------------------------------------------------------------------------
   16 Si    x       3.2818      0.2952     -0.0281
            y       0.3151      3.5543      0.1341
            z       0.0723     -0.0350      3.1000
-------------------------------------------------------------------------------
   17 Si    x       3.4644     -0.3301     -0.2434
            y      -0.4283      3.5260      0.3558
            z      -0.2778      0.1584      2.9620
-------------------------------------------------------------------------------
   18 Si    x       3.1448     -0.2158      0.0781
            y      -0.2909      3.4252     -0.1631
            z       0.1038     -0.0882      2.8209
-------------------------------------------------------------------------------
   19 Si    x       3.5762      0.1782     -0.0390
            y       0.1889      3.4648      0.1745
            z       0.1481      0.0790      2.8151
-------------------------------------------------------------------------------
   20 Si    x       3.2244     -0.2487     -0.1128
            y      -0.2970      3.4041      0.1477
            z      -0.1692      0.0598      2.7155
-------------------------------------------------------------------------------
   21 Si    x       3.5059     -0.3886      0.3168
            y      -0.3989      3.5035     -0.3506
            z       0.2986     -0.1387      2.8455
-------------------------------------------------------------------------------
   22 Si    x       3.1789      0.3134     -0.1693
            y       0.1139      3.4623     -0.1718
            z      -0.1281     -0.0889      2.7437
-------------------------------------------------------------------------------
   23 Si    x       3.4206      0.4716      0.3088
            y       0.2466      3.5831      0.3785
            z       0.2289      0.1635      2.8592
-------------------------------------------------------------------------------
   24 Si    x       3.5544     -0.3510      0.0137
            y      -0.0594      3.4865     -0.2005
            z       0.0529     -0.0913      2.8504
-------------------------------------------------------------------------------
   25 O3    x      -2.1811     -0.9758      0.5902
            y      -1.0313     -2.3056      0.5796
            z       0.6041      0.5392     -1.6308
-------------------------------------------------------------------------------
   26 O2    x      -1.7190     -0.7102     -0.3162
            y      -0.7584     -1.9562     -0.3364
            z      -0.3688     -0.3291     -1.3556
-------------------------------------------------------------------------------
   27 O2    x      -1.7352      0.7040      0.2427
            y       0.7218     -1.9602     -0.2951
            z       0.3238     -0.2677     -1.3214
-------------------------------------------------------------------------------
   28 O2    x      -1.7624      0.7267     -0.2898
            y       0.7335     -1.9209      0.2889
            z      -0.3534      0.2932     -1.3469
-------------------------------------------------------------------------------
   29 O2    x      -1.6427     -0.6858      0.2417
            y      -0.6340     -2.0178      0.2542
            z       0.3552      0.2671     -1.3301
-------------------------------------------------------------------------------
   30 O2    x      -1.6546     -0.7187     -0.3035
            y      -0.6562     -2.0095     -0.3254
            z      -0.3549     -0.3184     -1.3542
-------------------------------------------------------------------------------
   31 O3    x      -2.0916      0.9497      0.5754
            y       0.9269     -2.3251     -0.5279
            z       0.5749     -0.5059     -1.6273
-------------------------------------------------------------------------------
   32 O2    x      -1.6143      0.6852     -0.3160
            y       0.6533     -1.9945      0.3424
            z      -0.3740      0.3486     -1.3660
-------------------------------------------------------------------------------
   33 O3    x      -2.0808     -0.0512      1.1534
            y      -0.0397     -1.2281      0.0429
            z       1.3780      0.0473     -3.3019
-------------------------------------------------------------------------------
   34 O2    x      -1.6712      0.0017     -0.8479
            y       0.0059     -1.0797      0.0139
            z      -1.1067      0.0099     -2.7118
-------------------------------------------------------------------------------
   35 O3    x      -1.9589      0.0244     -0.8616
            y       0.0657     -1.2215      0.0485
            z      -0.8418      0.0411     -2.8222
-------------------------------------------------------------------------------
   36 O2    x      -1.6761     -0.0568      0.6613
            y      -0.0207     -1.1342      0.0603
            z       0.6653      0.0858     -2.1439
-------------------------------------------------------------------------------
   37 O3    x      -2.1216     -0.0058     -1.0070
            y       0.0100     -1.2707     -0.0064
            z      -0.9788     -0.0245     -2.6884
-------------------------------------------------------------------------------
   38 O2    x      -1.6595     -0.0054      0.7284
            y      -0.0275     -1.1202      0.0095
            z       0.6990      0.0112     -2.2812
-------------------------------------------------------------------------------
   39 O3    x      -1.8617     -0.7838      0.3917
            y      -0.6830     -2.4783      0.4167
            z       0.4461      0.3840     -1.4265
-------------------------------------------------------------------------------
   40 O2    x      -1.6513     -0.6405     -0.3594
            y      -0.5053     -2.0371     -0.4284
            z      -0.3363     -0.3846     -1.2735
-------------------------------------------------------------------------------
   41 O2    x      -1.6619      0.6824      0.3407
            y       0.6036     -2.0334     -0.3527
            z       0.3710     -0.3496     -1.2310
-------------------------------------------------------------------------------
   42 O3    x      -2.0580      0.9466     -0.4935
            y       0.8502     -2.3575      0.4813
            z      -0.5586      0.4701     -1.4783
-------------------------------------------------------------------------------
   43 O2    x      -1.7502     -0.7060      0.3614
            y      -0.7061     -1.9295      0.3716
            z       0.3620      0.3469     -1.2538
-------------------------------------------------------------------------------
   44 O3    x      -2.1363     -0.9330     -0.4055
            y      -0.9355     -2.2507     -0.4772
            z      -0.4763     -0.4423     -1.5060
-------------------------------------------------------------------------------
   45 O3    x      -2.2852      0.8430      0.3883
            y       0.8307     -2.0743     -0.4332
            z       0.3912     -0.3623     -1.4586
-------------------------------------------------------------------------------
   46 O2    x      -1.7159      0.6912     -0.3882
            y       0.6338     -1.9480      0.4013
            z      -0.3479      0.3802     -1.2989
-------------------------------------------------------------------------------
   47 O2    x      -1.7230      0.0056     -0.5298
            y       0.0209     -1.2317     -0.0545
            z      -0.2766     -0.0559     -1.7500
-------------------------------------------------------------------------------
   48 O3    x      -2.3335     -0.1076      0.7801
            y      -0.1190     -1.3550      0.0264
            z       0.4233     -0.0271     -1.9118
-------------------------------------------------------------------------------
   49 O2    x      -1.1982      0.0576      0.0548
            y       0.0988     -2.5134     -0.0146
            z       0.0744      0.0062     -1.0635
-------------------------------------------------------------------------------
   50 O2    x      -1.1415      0.0571     -0.0659
            y       0.1037     -2.5471      0.0017
            z      -0.0765     -0.0040     -1.0762
-------------------------------------------------------------------------------
   51 O2    x      -1.1791     -0.0526      0.0533
            y      -0.1121     -2.5200      0.0557
            z       0.0842      0.0239     -1.0632
-------------------------------------------------------------------------------
   52 O2    x      -1.2099     -0.0663     -0.0152
            y      -0.1240     -2.6023      0.0474
            z      -0.0520      0.0511     -1.0426
-------------------------------------------------------------------------------
   53 O2    x      -2.3465     -0.0962     -0.0712
            y      -0.0414     -1.2544      0.0720
            z      -0.0433      0.0484     -1.0848
-------------------------------------------------------------------------------
   54 O2    x      -2.3644     -0.1087     -0.0568
            y      -0.0610     -1.2609     -0.0822
            z      -0.0172     -0.0500     -1.0838
-------------------------------------------------------------------------------
   55 O2    x      -2.3942      0.0980     -0.0081
            y       0.0251     -1.2552     -0.0625
            z      -0.0413     -0.0301     -1.0689
-------------------------------------------------------------------------------
   56 O2    x      -2.3673      0.1179     -0.0171
            y       0.0821     -1.2470      0.0673
            z      -0.0161      0.0320     -1.0965
-------------------------------------------------------------------------------
   57 O2    x      -1.2214     -0.1471     -0.0062
            y      -0.1030     -1.3392      0.0020
            z       0.0140     -0.0068     -1.9868
-------------------------------------------------------------------------------
   58 O2    x      -1.1591     -0.1252      0.0426
            y      -0.0898     -1.2893     -0.0155
            z       0.0366     -0.0002     -2.0740
-------------------------------------------------------------------------------
   59 O2    x      -1.1659      0.1087     -0.0787
            y       0.0476     -1.2917     -0.0261
            z      -0.0396     -0.0242     -2.0936
-------------------------------------------------------------------------------
   60 O3    x      -1.3256      0.1540      0.0168
            y       0.0804     -1.4873     -0.1933
            z      -0.0231     -0.1798     -2.5716
-------------------------------------------------------------------------------
   61 O2    x      -1.1902     -0.1014     -0.0877
            y      -0.0939     -1.2770     -0.0246
            z      -0.0974      0.0014     -2.0944
-------------------------------------------------------------------------------
   62 O3    x      -1.3543     -0.1669      0.1207
            y      -0.1497     -1.4534      0.0822
            z       0.1057      0.0020     -2.6001
-------------------------------------------------------------------------------
   63 O2    x      -1.2415      0.1503     -0.0122
            y       0.1416     -1.3214      0.0110
            z      -0.0169      0.0043     -1.9895
-------------------------------------------------------------------------------
   64 O2    x      -1.1977      0.1253      0.0643
            y       0.1341     -1.2670      0.0088
            z       0.0748      0.0185     -2.0733
-------------------------------------------------------------------------------
   65 O1    x      -1.5501     -0.1151      0.1151
            y      -0.2247     -3.2786      0.0532
            z       0.1626      0.0555     -1.2080
-------------------------------------------------------------------------------
   66 O2    x      -1.2413     -0.0872     -0.0697
            y      -0.1657     -2.4872      0.0552
            z      -0.1012      0.0254     -1.0473
-------------------------------------------------------------------------------
   67 O2    x      -1.2194      0.0668      0.0839
            y       0.1410     -2.5051      0.0089
            z       0.1048      0.0025     -1.0221
-------------------------------------------------------------------------------
   68 O2    x      -1.2526      0.0639     -0.0871
            y       0.1310     -2.4291     -0.0139
            z      -0.1004      0.0004     -1.0217
-------------------------------------------------------------------------------
   69 O3    x      -3.0870      0.1698      0.1306
            y       0.0637     -1.3542      0.0688
            z       0.1200      0.0168     -1.2265
-------------------------------------------------------------------------------
   70 O3    x      -2.9957      0.2819      0.1115
            y       0.2303     -1.3965     -0.0970
            z       0.1324     -0.0605     -1.2416
-------------------------------------------------------------------------------
   71 O2    x      -2.3710     -0.0869     -0.0177
            y      -0.0439     -1.2388     -0.0697
            z      -0.0180     -0.0373     -1.0515
-------------------------------------------------------------------------------
   72 O2    x      -2.3961     -0.1157     -0.0121
            y      -0.0838     -1.2528      0.0705
            z      -0.0229      0.0352     -1.0488
-------------------------------------------------------------------------------




  Elastic Constant Matrix: (Units=GPa)

-------------------------------------------------------------------------------
  Indices      1         2         3         4         5         6    
-------------------------------------------------------------------------------
       1     53.2236   26.6427   28.0544   -1.6017    3.6367   -2.1660
       2     26.6427   71.1007   23.3531   -1.7233    3.8498   -2.8808
       3     28.0544   23.3531   38.6355   -1.1443    2.2455   -1.0343
       4     -1.6017   -1.7233   -1.1443   11.7738    0.3061    0.2545
       5      3.6367    3.8498    2.2455    0.3061   23.0709   -0.4653
       6     -2.1660   -2.8808   -1.0343    0.2545   -0.4653   25.2611
-------------------------------------------------------------------------------


  Elastic Compliance Matrix: (Units=1/GPa)

-------------------------------------------------------------------------------
  Indices      1         2         3         4         5         6    
-------------------------------------------------------------------------------
       1    0.032234 -0.005299 -0.019988  0.001698 -0.002248  0.001283
       2   -0.005299  0.018593 -0.007226  0.001310 -0.001555  0.001328
       3   -0.019988 -0.007226  0.044764  0.000590 -0.000023 -0.000711
       4    0.001698  0.001310  0.000590  0.085471 -0.001689 -0.000573
       5   -0.002248 -0.001555 -0.000023 -0.001689  0.043992  0.000456
       6    0.001283  0.001328 -0.000711 -0.000573  0.000456  0.039833
-------------------------------------------------------------------------------

  Mechanical properties :

-------------------------------------------------------------------------------
  Convention :                    Reuss         Voigt         Hill
-------------------------------------------------------------------------------
  Bulk  Modulus (GPa)     =      32.71650      35.45112      34.08381
  Shear Modulus (GPa)     =      14.70151      17.68182      16.19166
-------------------------------------------------------------------------------
  Velocity S-wave (km/s)  =       2.70533       2.96690       2.83913
  Velocity P-wave (km/s)  =       5.10349       5.42081       5.26454
-------------------------------------------------------------------------------
  Compressibility (1/GPa) =    0.03056562
-------------------------------------------------------------------------------
  Stress axis :                     x             y             z
-------------------------------------------------------------------------------
  Youngs Moduli (GPa)     =      31.02356      53.78271      22.33920
-------------------------------------------------------------------------------
  Poissons Ratio (x)      =                     0.28498       0.44651
  Poissons Ratio (y)      =       0.16438                     0.16143
  Poissons Ratio (z)      =       0.62009       0.38866
-------------------------------------------------------------------------------


  Piezoelectric Strain Matrix: (Units=C/m**2)

-------------------------------------------------------------------------------
  Indices      1         2         3         4         5         6    
-------------------------------------------------------------------------------
       x     0.27386   0.28725  -0.85742   0.28555  -0.14455  -0.18402
       y    -0.23784   0.10078  -0.35614  -0.28671   0.35208   0.56794
       z    -0.54510  -0.22587  -0.62234  -0.03778  -0.15115  -0.12451
-------------------------------------------------------------------------------


  Piezoelectric Stress Matrix: (Units=10**-11 C/N)

-------------------------------------------------------------------------------
  Indices      1         2         3         4         5         6    
-------------------------------------------------------------------------------
       x     2.50169   1.04403  -4.56289   2.50913  -0.79683  -0.62167
       y    -0.16317   0.55392  -1.24980  -2.59070   1.66184   2.30298
       z    -0.38187   0.32061  -1.52613  -0.44910  -0.50518  -0.55632
-------------------------------------------------------------------------------


  Static dielectric constant tensor : 

-------------------------------------------------------------------------------
              x         y         z
-------------------------------------------------------------------------------
       x     4.09751   0.00600  -0.02361
       y     0.00600   4.28659  -0.09312
       z    -0.02361  -0.09312   3.48058
--------------------------------------------------------------------------------

  High frequency dielectric constant tensor : 

-------------------------------------------------------------------------------
              x         y         z
-------------------------------------------------------------------------------
       x     1.67189   0.00014   0.00034
       y     0.00014   1.67903  -0.00103
       z     0.00034  -0.00103   1.61207
-------------------------------------------------------------------------------

  Static refractive indices : 

-------------------------------------------------------------------------------
    1 =    1.86256      2 =    2.02434      3 =    2.07306
-------------------------------------------------------------------------------

  High frequency refractive indices : 

-------------------------------------------------------------------------------
    1 =    1.26967      2 =    1.29302      3 =    1.29578
-------------------------------------------------------------------------------


  Time to end of optimisation =       8.9913 seconds


  Peak dynamic memory used =       5.01 MB 


  Timing analysis for GULP :

--------------------------------------------------------------------------------
  Task / Subroutine                                          Time (Seconds)
--------------------------------------------------------------------------------
  Calculation of reciprocal space energy and derivatives          0.5797
  Calculation of real space energy and derivatives                5.6548
  Calculation of three-body energy and derivatives                0.4741
  Calculation and manipulation of Hessian matrix                  2.5882
  Calculation of matrix inversion                                 0.0399
  Global summation overhead                                       0.0001
--------------------------------------------------------------------------------
  Total CPU time                                                  8.9913
--------------------------------------------------------------------------------


  Dump file written as c00479.vasp.grs
  CIF file written as c00479.vasp.cif


  Job Finished at 13:13.46 31st October    2025                               

