********************************************************************************
*                       GENERAL UTILITY LATTICE PROGRAM                        *
*                                 Julian Gale                                  *
*                       Curtin Institute for Computation                       *
*                    School of Molecular and Life Sciences                     *
*                    Curtin University, Western Australia                      *
********************************************************************************
* Version = 6.1.2 * Last modified =   3rd November 2022                        *
********************************************************************************
*  optimise     - perform optimisation run                                     *
*  conp         - constant pressure calculation                                *
*  property     - calculate properties for final geometry                      *
********************************************************************************

  Job Started  at 14:12.35 31st October    2025                               

  Number of CPUs =     1


  Total number of configurations input =      1

********************************************************************************
*  Input for Configuration =   1 : c00838.vasp                                 *
********************************************************************************

  Formula = Ge4Si20O48                                                  

  Number of irreducible atoms/shells =     120


  Total number atoms/shells =     120

  Dimensionality = 3               :  Bulk   



  Cartesian lattice vectors (Angstroms) :

       17.182800    0.000000    0.000000
        0.000000    7.513760    0.000000
        0.000000    0.000000   10.447700

  Cell parameters (Angstroms/Degrees):

  a =      17.1828    alpha =  90.0000
  b =       7.5138    beta  =  90.0000
  c =      10.4477    gamma =  90.0000

  Initial cell volume =        1348.875752 Angs**3

  Temperature of configuration =   0.00     K 

  Pressure of configuration =         0.000 GPa 

  Fractional coordinates of asymmetric unit :

--------------------------------------------------------------------------------
   No.  Atomic       x           y          z         Charge      Occupancy
        Label      (Frac)      (Frac)     (Frac)        (e)         (Frac)  
--------------------------------------------------------------------------------
      1 Ge    c    0.556730    0.000000    0.122130     4.00000    1.000000    
      2 Ge    c    0.443270 *  0.000000 *  0.877870 *   4.00000    1.000000    
      3 Ge    c    0.339810 *  0.706090 *  0.273440 *   4.00000    1.000000    
      4 Ge    c    0.160660 *  0.294090 *  0.982560 *   4.00000    1.000000    
      5 Si    c    0.052090 *  0.000000 *  0.372270 *   4.00000    1.000000    
      6 Si    c    0.447910 *  0.000000 *  0.372270 *   4.00000    1.000000    
      7 Si    c    0.947910 *  0.000000 *  0.627730 *   4.00000    1.000000    
      8 Si    c    0.552090 *  0.000000 *  0.627730 *   4.00000    1.000000    
      9 Si    c    0.943270 *  0.000000 *  0.122130 *   4.00000    1.000000    
     10 Si    c    0.056730 *  0.000000 *  0.877870 *   4.00000    1.000000    
     11 Si    c    0.160190 *  0.293910 *  0.273440 *   4.00000    1.000000    
     12 Si    c    0.839810 *  0.293910 *  0.726560 *   4.00000    1.000000    
     13 Si    c    0.660190 *  0.706090 *  0.726560 *   4.00000    1.000000    
     14 Si    c    0.839810 *  0.706090 *  0.726560 *   4.00000    1.000000    
     15 Si    c    0.660190 *  0.293910 *  0.726560 *   4.00000    1.000000    
     16 Si    c    0.160190 *  0.706090 *  0.273440 *   4.00000    1.000000    
     17 Si    c    0.339810 *  0.293910 *  0.273440 *   4.00000    1.000000    
     18 Si    c    0.660660 *  0.294090 *  0.017440 *   4.00000    1.000000    
     19 Si    c    0.839340 *  0.705910 *  0.017440 *   4.00000    1.000000    
     20 Si    c    0.339340 *  0.294090 *  0.982560 *   4.00000    1.000000    
     21 Si    c    0.160660 *  0.705910 *  0.982560 *   4.00000    1.000000    
     22 Si    c    0.339340 *  0.705910 *  0.982560 *   4.00000    1.000000    
     23 Si    c    0.660660 *  0.705910 *  0.017440 *   4.00000    1.000000    
     24 Si    c    0.839340 *  0.294090 *  0.017440 *   4.00000    1.000000    
     25 O2    c    0.106570 *  0.174340 *  0.366200 *   0.87073    1.000000    
     26 O3    c    0.393430 *  0.825660 *  0.366200 *   1.33043    1.000000    
     27 O2    c    0.893430 *  0.174340 *  0.633800 *   0.87073    1.000000    
     28 O2    c    0.606570 *  0.825660 *  0.633800 *   0.87073    1.000000    
     29 O2    c    0.893430 *  0.825660 *  0.633800 *   0.87073    1.000000    
     30 O2    c    0.606570 *  0.174340 *  0.633800 *   0.87073    1.000000    
     31 O2    c    0.106570 *  0.825660 *  0.366200 *   0.87073    1.000000    
     32 O2    c    0.393430 *  0.174340 *  0.366200 *   0.87073    1.000000    
     33 O2    c    0.000000 *  0.000000 *  0.500000 *   0.87073    1.000000    
     34 O2    c    0.500000 *  0.000000 *  0.500000 *   0.87073    1.000000    
     35 O2    c    0.994520 *  0.000000 *  0.250840 *   0.87073    1.000000    
     36 O3    c    0.505480 *  0.000000 *  0.250840 *   1.33043    1.000000    
     37 O2    c    0.005480 *  0.000000 *  0.749160 *   0.87073    1.000000    
     38 O3    c    0.494520 *  0.000000 *  0.749160 *   1.33043    1.000000    
     39 O3    c    0.610230 *  0.175520 *  0.115390 *   1.33043    1.000000    
     40 O2    c    0.889770 *  0.824480 *  0.115390 *   0.87073    1.000000    
     41 O3    c    0.389770 *  0.175520 *  0.884610 *   1.33043    1.000000    
     42 O2    c    0.110230 *  0.824480 *  0.884610 *   0.87073    1.000000    
     43 O3    c    0.389770 *  0.824480 *  0.884610 *   1.33043    1.000000    
     44 O3    c    0.110230 *  0.175520 *  0.884610 *   1.33043    1.000000    
     45 O3    c    0.610230 *  0.824480 *  0.115390 *   1.33043    1.000000    
     46 O2    c    0.889770 *  0.175520 *  0.115390 *   0.87073    1.000000    
     47 O1    c    0.500000 *  0.000000 *  0.000000 *   1.73396    1.000000    
     48 O2    c    0.000000 *  0.000000 *  0.000000 *   0.87073    1.000000    
     49 O2    c    0.151750 *  0.500000 *  0.313330 *   0.87073    1.000000    
     50 O3    c    0.348250 *  0.500000 *  0.313330 *   1.33043    1.000000    
     51 O2    c    0.848250 *  0.500000 *  0.686670 *   0.87073    1.000000    
     52 O2    c    0.651750 *  0.500000 *  0.686670 *   0.87073    1.000000    
     53 O2    c    0.250000 *  0.234950 *  0.285720 *   0.87073    1.000000    
     54 O3    c    0.250000 *  0.765050 *  0.285720 *   1.33043    1.000000    
     55 O2    c    0.750000 *  0.234950 *  0.714280 *   0.87073    1.000000    
     56 O2    c    0.750000 *  0.765050 *  0.714280 *   0.87073    1.000000    
     57 O3    c    0.131410 *  0.268650 *  0.127790 *   1.33043    1.000000    
     58 O3    c    0.368590 *  0.731350 *  0.127790 *   1.33043    1.000000    
     59 O2    c    0.868590 *  0.268650 *  0.872210 *   0.87073    1.000000    
     60 O2    c    0.631410 *  0.731350 *  0.872210 *   0.87073    1.000000    
     61 O2    c    0.868590 *  0.731350 *  0.872210 *   0.87073    1.000000    
     62 O2    c    0.631410 *  0.268650 *  0.872210 *   0.87073    1.000000    
     63 O2    c    0.131410 *  0.731350 *  0.127790 *   0.87073    1.000000    
     64 O2    c    0.368590 *  0.268650 *  0.127790 *   0.87073    1.000000    
     65 O2    c    0.653920 *  0.500000 *  0.058200 *   0.87073    1.000000    
     66 O2    c    0.846080 *  0.500000 *  0.058200 *   0.87073    1.000000    
     67 O2    c    0.346080 *  0.500000 *  0.941800 *   0.87073    1.000000    
     68 O3    c    0.153920 *  0.500000 *  0.941800 *   1.33043    1.000000    
     69 O2    c    0.750000 *  0.231060 *  0.027050 *   0.87073    1.000000    
     70 O2    c    0.750000 *  0.768940 *  0.027050 *   0.87073    1.000000    
     71 O3    c    0.250000 *  0.231060 *  0.972950 *   1.33043    1.000000    
     72 O2    c    0.250000 *  0.768940 *  0.972950 *   0.87073    1.000000    
     73 O2    s    0.106570 *  0.174340 *  0.366200 *  -2.87073    1.000000    
     74 O3    s    0.393430 *  0.825660 *  0.366200 *  -3.33043    1.000000    
     75 O2    s    0.893430 *  0.174340 *  0.633800 *  -2.87073    1.000000    
     76 O2    s    0.606570 *  0.825660 *  0.633800 *  -2.87073    1.000000    
     77 O2    s    0.893430 *  0.825660 *  0.633800 *  -2.87073    1.000000    
     78 O2    s    0.606570 *  0.174340 *  0.633800 *  -2.87073    1.000000    
     79 O2    s    0.106570 *  0.825660 *  0.366200 *  -2.87073    1.000000    
     80 O2    s    0.393430 *  0.174340 *  0.366200 *  -2.87073    1.000000    
     81 O2    s    0.000000 *  0.000000 *  0.500000 *  -2.87073    1.000000    
     82 O2    s    0.500000 *  0.000000 *  0.500000 *  -2.87073    1.000000    
     83 O2    s    0.994520 *  0.000000 *  0.250840 *  -2.87073    1.000000    
     84 O3    s    0.505480 *  0.000000 *  0.250840 *  -3.33043    1.000000    
     85 O2    s    0.005480 *  0.000000 *  0.749160 *  -2.87073    1.000000    
     86 O3    s    0.494520 *  0.000000 *  0.749160 *  -3.33043    1.000000    
     87 O3    s    0.610230 *  0.175520 *  0.115390 *  -3.33043    1.000000    
     88 O2    s    0.889770 *  0.824480 *  0.115390 *  -2.87073    1.000000    
     89 O3    s    0.389770 *  0.175520 *  0.884610 *  -3.33043    1.000000    
     90 O2    s    0.110230 *  0.824480 *  0.884610 *  -2.87073    1.000000    
     91 O3    s    0.389770 *  0.824480 *  0.884610 *  -3.33043    1.000000    
     92 O3    s    0.110230 *  0.175520 *  0.884610 *  -3.33043    1.000000    
     93 O3    s    0.610230 *  0.824480 *  0.115390 *  -3.33043    1.000000    
     94 O2    s    0.889770 *  0.175520 *  0.115390 *  -2.87073    1.000000    
     95 O1    s    0.500000 *  0.000000 *  0.000000 *  -3.73396    1.000000    
     96 O2    s    0.000000 *  0.000000 *  0.000000 *  -2.87073    1.000000    
     97 O2    s    0.151750 *  0.500000 *  0.313330 *  -2.87073    1.000000    
     98 O3    s    0.348250 *  0.500000 *  0.313330 *  -3.33043    1.000000    
     99 O2    s    0.848250 *  0.500000 *  0.686670 *  -2.87073    1.000000    
    100 O2    s    0.651750 *  0.500000 *  0.686670 *  -2.87073    1.000000    
    101 O2    s    0.250000 *  0.234950 *  0.285720 *  -2.87073    1.000000    
    102 O3    s    0.250000 *  0.765050 *  0.285720 *  -3.33043    1.000000    
    103 O2    s    0.750000 *  0.234950 *  0.714280 *  -2.87073    1.000000    
    104 O2    s    0.750000 *  0.765050 *  0.714280 *  -2.87073    1.000000    
    105 O3    s    0.131410 *  0.268650 *  0.127790 *  -3.33043    1.000000    
    106 O3    s    0.368590 *  0.731350 *  0.127790 *  -3.33043    1.000000    
    107 O2    s    0.868590 *  0.268650 *  0.872210 *  -2.87073    1.000000    
    108 O2    s    0.631410 *  0.731350 *  0.872210 *  -2.87073    1.000000    
    109 O2    s    0.868590 *  0.731350 *  0.872210 *  -2.87073    1.000000    
    110 O2    s    0.631410 *  0.268650 *  0.872210 *  -2.87073    1.000000    
    111 O2    s    0.131410 *  0.731350 *  0.127790 *  -2.87073    1.000000    
    112 O2    s    0.368590 *  0.268650 *  0.127790 *  -2.87073    1.000000    
    113 O2    s    0.653920 *  0.500000 *  0.058200 *  -2.87073    1.000000    
    114 O2    s    0.846080 *  0.500000 *  0.058200 *  -2.87073    1.000000    
    115 O2    s    0.346080 *  0.500000 *  0.941800 *  -2.87073    1.000000    
    116 O3    s    0.153920 *  0.500000 *  0.941800 *  -3.33043    1.000000    
    117 O2    s    0.750000 *  0.231060 *  0.027050 *  -2.87073    1.000000    
    118 O2    s    0.750000 *  0.768940 *  0.027050 *  -2.87073    1.000000    
    119 O3    s    0.250000 *  0.231060 *  0.972950 *  -3.33043    1.000000    
    120 O2    s    0.250000 *  0.768940 *  0.972950 *  -2.87073    1.000000    
--------------------------------------------------------------------------------



********************************************************************************
*  General input information                                                   *
********************************************************************************

  Species output for all configurations : 

--------------------------------------------------------------------------------
  Species    Type    Atomic    Atomic    Charge       Radii (Angs)     Library
                     Number     Mass       (e)     Cova   Ionic  VDW   Symbol
--------------------------------------------------------------------------------
    Ge       Core       32      72.61   4.000000   1.170  0.000  1.750 Ge       
    Si       Core       14      28.09   4.000000   1.200  0.000  2.100 Si       
    O1       Core        8      16.00   1.733957   0.730  0.000  1.360 O1       
    O2       Core        8      16.00   0.870733   0.730  0.000  1.360 O2       
    O3       Core        8      16.00   1.330431   0.730  0.000  1.360 O3       
    O1       Shell       8       0.00  -3.733957   0.730  0.000  0.000 O1       
    O2       Shell       8       0.00  -2.870733   0.730  0.000  0.000 O2       
    O3       Shell       8       0.00  -3.330431   0.730  0.000  0.000 O3       
--------------------------------------------------------------------------------


  Lattice summation method               =    Ewald          (3-D)
                                         =    Parry          (2-D)
                                         =    Saunders et al (1-D)
  Accuracy factor for lattice sums       =   12.000


  Analytic derivatives to be used

  Time limit = Infinity

  Maximum range for interatomic potentials =    100000.000000 Angstroms

  General interatomic potentials :

--------------------------------------------------------------------------------
Atom  Types   Potential      Parameter       Value         Units   Cutoffs(Ang)
  1     2                                                            Min /  Max 
--------------------------------------------------------------------------------
Si   c O1   s Buckingham    Buckingham A     1315.2478    eV        0.000 16.000
                            Buckingham rho  0.31775900    Ang       
                            Buckingham C     10.141118    eV*Ang^6  
--------------------------------------------------------------------------------
Si   c O2   s Buckingham    Buckingham A     1315.2478    eV        0.000 16.000
                            Buckingham rho  0.31775900    Ang       
                            Buckingham C     10.141118    eV*Ang^6  
--------------------------------------------------------------------------------
Si   c O3   s Buckingham    Buckingham A     1315.2478    eV        0.000 16.000
                            Buckingham rho  0.31775900    Ang       
                            Buckingham C     10.141118    eV*Ang^6  
--------------------------------------------------------------------------------
Ge   c O1   s Buckingham    Buckingham A     1497.3996    eV        0.000 16.000
                            Buckingham rho  0.32564600    Ang       
                            Buckingham C     16.808599    eV*Ang^6  
--------------------------------------------------------------------------------
Ge   c O2   s Buckingham    Buckingham A     1497.3996    eV        0.000 16.000
                            Buckingham rho  0.32564600    Ang       
                            Buckingham C     16.808599    eV*Ang^6  
--------------------------------------------------------------------------------
Ge   c O3   s Buckingham    Buckingham A     1497.3996    eV        0.000 16.000
                            Buckingham rho  0.32564600    Ang       
                            Buckingham C     16.808599    eV*Ang^6  
--------------------------------------------------------------------------------
O1   s O1   s Buckingham    Buckingham A     22764.000    eV        0.000 16.000
                            Buckingham rho  0.14900000    Ang       
                            Buckingham C     10.937044    eV*Ang^6  
--------------------------------------------------------------------------------
O1   s O2   s Buckingham    Buckingham A     22764.000    eV        0.000 16.000
                            Buckingham rho  0.14900000    Ang       
                            Buckingham C     10.937044    eV*Ang^6  
--------------------------------------------------------------------------------
O1   s O3   s Buckingham    Buckingham A     22764.000    eV        0.000 16.000
                            Buckingham rho  0.14900000    Ang       
                            Buckingham C     10.937044    eV*Ang^6  
--------------------------------------------------------------------------------
O2   s O2   s Buckingham    Buckingham A     22764.000    eV        0.000 16.000
                            Buckingham rho  0.14900000    Ang       
                            Buckingham C     10.937044    eV*Ang^6  
--------------------------------------------------------------------------------
O2   s O3   s Buckingham    Buckingham A     22764.000    eV        0.000 16.000
                            Buckingham rho  0.14900000    Ang       
                            Buckingham C     10.937044    eV*Ang^6  
--------------------------------------------------------------------------------
O3   s O3   s Buckingham    Buckingham A     22764.000    eV        0.000 16.000
                            Buckingham rho  0.14900000    Ang       
                            Buckingham C     10.937044    eV*Ang^6  
--------------------------------------------------------------------------------
O1   c O1   s Spring (c-s)  Spring k 2       180.31577    eV*Ang^-2 0.000  0.800
                            Spring k 4       0.0000000    eV*Ang^-4 
--------------------------------------------------------------------------------
O2   c O2   s Spring (c-s)  Spring k 2       75.969800    eV*Ang^-2 0.000  0.800
                            Spring k 4       0.0000000    eV*Ang^-4 
--------------------------------------------------------------------------------
O3   c O3   s Spring (c-s)  Spring k 2       128.14270    eV*Ang^-2 0.000  0.800
                            Spring k 4       0.0000000    eV*Ang^-4 
--------------------------------------------------------------------------------

  General Three-body potentials :

--------------------------------------------------------------------------------
  Atoms       Potential      Parameter       Value         Units   Cutoffs(Ang)
  1 / 2 / 3                                                          Min /  Max 
--------------------------------------------------------------------------------
Si    core    Harmonic      Three-body cnst  1.2614000    eV*rad^-2 0.000  1.900
O1    shel                  Three-body angl  109.47000    degrees   0.000  1.900
O1    shel                  Three-body k4    0.0000000    eV*rad^-4 0.000  3.500
                            Three-body k3    0.0000000    eV*rad^-3 
--------------------------------------------------------------------------------
Si    core    Harmonic      Three-body cnst  1.2614000    eV*rad^-2 0.000  1.900
O1    shel                  Three-body angl  109.47000    degrees   0.000  1.900
õ(1   shel                  Three-body k4    0.0000000    eV*rad^-4 0.000  3.500
                            Three-body k3    0.0000000    eV*rad^-3 
--------------------------------------------------------------------------------
Si    core    Harmonic      Three-body cnst  1.2614000    eV*rad^-2 0.000  1.900
õ(1   shel                  Three-body angl  109.47000    degrees   0.000  1.900
õ(1   shel                  Three-body k4    0.0000000    eV*rad^-4 0.000  3.500
                            Three-body k3    0.0000000    eV*rad^-3 
--------------------------------------------------------------------------------
Si    core    Harmonic      Three-body cnst  1.2614000    eV*rad^-2 0.000  1.900
O1    shel                  Three-body angl  109.47000    degrees   0.000  1.900
O2    shel                  Three-body k4    0.0000000    eV*rad^-4 0.000  3.500
                            Three-body k3    0.0000000    eV*rad^-3 
--------------------------------------------------------------------------------
Si    core    Harmonic      Three-body cnst  1.2614000    eV*rad^-2 0.000  1.900
O1    shel                  Three-body angl  109.47000    degrees   0.000  1.900
õ(2   shel                  Three-body k4    0.0000000    eV*rad^-4 0.000  3.500
                            Three-body k3    0.0000000    eV*rad^-3 
--------------------------------------------------------------------------------
Si    core    Harmonic      Three-body cnst  1.2614000    eV*rad^-2 0.000  1.900
O2    shel                  Three-body angl  109.47000    degrees   0.000  1.900
õ(1   shel                  Three-body k4    0.0000000    eV*rad^-4 0.000  3.500
                            Three-body k3    0.0000000    eV*rad^-3 
--------------------------------------------------------------------------------
Si    core    Harmonic      Three-body cnst  1.2614000    eV*rad^-2 0.000  1.900
õ(1   shel                  Three-body angl  109.47000    degrees   0.000  1.900
õ(2   shel                  Three-body k4    0.0000000    eV*rad^-4 0.000  3.500
                            Three-body k3    0.0000000    eV*rad^-3 
--------------------------------------------------------------------------------
Si    core    Harmonic      Three-body cnst  1.2614000    eV*rad^-2 0.000  1.900
O2    shel                  Three-body angl  109.47000    degrees   0.000  1.900
O2    shel                  Three-body k4    0.0000000    eV*rad^-4 0.000  3.500
                            Three-body k3    0.0000000    eV*rad^-3 
--------------------------------------------------------------------------------
Si    core    Harmonic      Three-body cnst  1.2614000    eV*rad^-2 0.000  1.900
O2    shel                  Three-body angl  109.47000    degrees   0.000  1.900
õ(2   shel                  Three-body k4    0.0000000    eV*rad^-4 0.000  3.500
                            Three-body k3    0.0000000    eV*rad^-3 
--------------------------------------------------------------------------------
Si    core    Harmonic      Three-body cnst  1.2614000    eV*rad^-2 0.000  1.900
õ(2   shel                  Three-body angl  109.47000    degrees   0.000  1.900
õ(2   shel                  Three-body k4    0.0000000    eV*rad^-4 0.000  3.500
                            Three-body k3    0.0000000    eV*rad^-3 
--------------------------------------------------------------------------------

********************************************************************************
*  Output for configuration   1 : c00838.vasp                                  *
********************************************************************************


  Components of energy : 

--------------------------------------------------------------------------------
  Interatomic potentials     =         768.40103815 eV    
  Three-body potentials      =           0.01050018 eV    
  Monopole - monopole (real) =       -2676.00317478 eV    
  Monopole - monopole (recip)=       -1115.35404472 eV    
  Monopole - monopole (total)=       -3791.35721950 eV    
--------------------------------------------------------------------------------
  Total lattice energy       =       -3022.94568117 eV    
--------------------------------------------------------------------------------
  Total lattice energy       =         -291668.0483 kJ/(mole unit cells)
--------------------------------------------------------------------------------


  Number of variables =      363

  Maximum number of calculations  =          1000
  Maximum Hessian update interval =            10
  Maximum step size               =   0.100000000
  Maximum parameter tolerance     =   0.000010000
  Maximum function  tolerance     =   0.000010000
  Maximum gradient  tolerance     =   0.001000000
  Maximum gradient  component     =   0.010000000

  Symmetry not applied to optimisation

  Cell parameters to be optimised using strains

  Newton-Raphson optimiser to be used

  BFGS hessian update to be used

  Lower half triangular hessian to be used

  Minimiser to switch to RFO
  When gradient norm is less than     0.050000

  Dumpfile to be written after every cycle

  Start of bulk optimisation :

  Cycle:      0 Energy:     -3022.945681  Gnorm:      4.470239  CPU:    0.113
  ** Hessian calculated **
  Cycle:      1 Energy:     -3054.148213  Gnorm:      1.007340  CPU:    0.234
  ** Hessian calculated **
  Cycle:      2 Energy:     -3056.764426  Gnorm:      0.575608  CPU:    0.417
  Cycle:      3 Energy:     -3057.681568  Gnorm:      0.382214  CPU:    0.559
  Cycle:      4 Energy:     -3058.513489  Gnorm:      0.294208  CPU:    0.668
  Cycle:      5 Energy:     -3059.263962  Gnorm:      0.224307  CPU:    0.778
  Cycle:      6 Energy:     -3059.709796  Gnorm:      0.177495  CPU:    0.868
  Cycle:      7 Energy:     -3059.966234  Gnorm:      0.131396  CPU:    0.963
  Cycle:      8 Energy:     -3060.097467  Gnorm:      0.103331  CPU:    1.054
  Cycle:      9 Energy:     -3060.156374  Gnorm:      0.077652  CPU:    1.146
  Cycle:     10 Energy:     -3060.206928  Gnorm:      0.073861  CPU:    1.265
  Cycle:     11 Energy:     -3060.256770  Gnorm:      0.079777  CPU:    1.383
  ** Hessian calculated **
  Cycle:     12 Energy:     -3060.276608  Gnorm:      0.078525  CPU:    1.579
  Cycle:     13 Energy:     -3060.309010  Gnorm:      0.076401  CPU:    1.702
  Cycle:     14 Energy:     -3060.354826  Gnorm:      0.073214  CPU:    1.825
  Cycle:     15 Energy:     -3060.402788  Gnorm:      0.069599  CPU:    1.932
  Cycle:     16 Energy:     -3060.459663  Gnorm:      0.064854  CPU:    2.057
  Cycle:     17 Energy:     -3060.487638  Gnorm:      0.063041  CPU:    2.165
  ** Hessian calculated **
  Cycle:     18 Energy:     -3060.742770  Gnorm:      0.043360  CPU:    2.357
  ** Hessian has wrong structure
  ** Imaginary eigenvectors =   3
  Cycle:     19 Energy:     -3060.762345  Gnorm:      0.063521  CPU:    2.591
  ** Hessian has wrong structure
  ** Imaginary eigenvectors =   2
  ** Hessian has wrong structure
  ** Imaginary eigenvectors =   2
  Cycle:     20 Energy:     -3060.796028  Gnorm:      0.084514  CPU:    3.031
  ** Hessian has wrong structure
  ** Imaginary eigenvectors =   1
  ** Hessian has required structure
  Cycle:     21 Energy:     -3061.005164  Gnorm:      0.049716  CPU:    3.412
  ** Hessian has required structure
  Cycle:     22 Energy:     -3061.072458  Gnorm:      0.041797  CPU:    3.559
  ** Hessian has required structure
  Cycle:     23 Energy:     -3061.119696  Gnorm:      0.022888  CPU:    3.722
  ** Hessian has required structure
  Cycle:     24 Energy:     -3061.144147  Gnorm:      0.030876  CPU:    3.879
  ** Hessian has required structure
  Cycle:     25 Energy:     -3061.160186  Gnorm:      0.017789  CPU:    4.060
  ** Hessian has required structure
  Cycle:     26 Energy:     -3061.171863  Gnorm:      0.017062  CPU:    4.246
  ** Hessian has required structure
  Cycle:     27 Energy:     -3061.181025  Gnorm:      0.014816  CPU:    4.415
  ** Hessian has required structure
  Cycle:     28 Energy:     -3061.189906  Gnorm:      0.012415  CPU:    4.574
  ** Hessian has required structure
  Cycle:     29 Energy:     -3061.196549  Gnorm:      0.017918  CPU:    4.720
  ** Hessian has required structure
  Cycle:     30 Energy:     -3061.204245  Gnorm:      0.017693  CPU:    4.870
  ** Hessian has wrong structure
  ** Imaginary eigenvectors =   1
  Cycle:     31 Energy:     -3061.229189  Gnorm:      0.028741  CPU:    5.238
  ** Hessian has required structure
  Cycle:     32 Energy:     -3061.256973  Gnorm:      0.016411  CPU:    5.498
  ** Hessian has required structure
  Cycle:     33 Energy:     -3061.267170  Gnorm:      0.010275  CPU:    5.664
  ** Hessian has required structure
  Cycle:     34 Energy:     -3061.271274  Gnorm:      0.005103  CPU:    5.832
  ** Hessian has required structure
  Cycle:     35 Energy:     -3061.272553  Gnorm:      0.003319  CPU:    6.001
  ** Hessian has required structure
  Cycle:     36 Energy:     -3061.272892  Gnorm:      0.001297  CPU:    6.157
  ** Hessian has required structure
  Cycle:     37 Energy:     -3061.273014  Gnorm:      0.001005  CPU:    6.305
  ** Hessian has required structure
  Cycle:     38 Energy:     -3061.273046  Gnorm:      0.000523  CPU:    6.454
  ** Hessian has required structure
  Cycle:     39 Energy:     -3061.273057  Gnorm:      0.000325  CPU:    6.603
  ** Hessian has required structure
  Cycle:     40 Energy:     -3061.273059  Gnorm:      0.000226  CPU:    6.734
  ** Hessian has required structure
  Cycle:     41 Energy:     -3061.273061  Gnorm:      0.000159  CPU:    6.865
  ** Hessian has required structure
  Cycle:     42 Energy:     -3061.273061  Gnorm:      0.000156  CPU:    7.096
  ** Hessian has required structure
  Cycle:     43 Energy:     -3061.273061  Gnorm:      0.000155  CPU:    7.230
  ** Hessian has required structure
  Cycle:     44 Energy:     -3061.273061  Gnorm:      0.000153  CPU:    7.361
  ** Hessian has required structure
  Cycle:     45 Energy:     -3061.273061  Gnorm:      0.000152  CPU:    7.493
  ** Hessian has required structure
  Cycle:     46 Energy:     -3061.273061  Gnorm:      0.000151  CPU:    7.626
  ** Hessian has required structure
  Cycle:     47 Energy:     -3061.273061  Gnorm:      0.000150  CPU:    7.759
  ** Hessian has required structure
  Cycle:     48 Energy:     -3061.273061  Gnorm:      0.000150  CPU:    7.892
  ** Hessian has required structure
  Cycle:     49 Energy:     -3061.273061  Gnorm:      0.000149  CPU:    8.025
  ** Hessian has required structure
  Cycle:     50 Energy:     -3061.273061  Gnorm:      0.000149  CPU:    8.157
  ** Hessian has required structure
  Cycle:     51 Energy:     -3061.273061  Gnorm:      0.000149  CPU:    8.288
  ** Hessian has required structure
  Cycle:     52 Energy:     -3061.273061  Gnorm:      0.000148  CPU:    8.606
  ** Hessian has required structure
  Cycle:     53 Energy:     -3061.273061  Gnorm:      0.000148  CPU:    8.737
  ** Hessian has required structure
  Cycle:     54 Energy:     -3061.273061  Gnorm:      0.000147  CPU:    8.958
  ** Hessian has required structure
  Cycle:     55 Energy:     -3061.273061  Gnorm:      0.000147  CPU:    9.293
  ** Hessian calculated **


  **** Optimisation achieved ****


  Final energy =   -3061.27306101 eV      
  Final Gnorm  =       0.00014763

  Components of energy : 

--------------------------------------------------------------------------------
  Interatomic potentials     =         815.29631066 eV    
  Three-body potentials      =           0.21065615 eV    
  Monopole - monopole (real) =       -2168.92958195 eV    
  Monopole - monopole (recip)=       -1707.85044588 eV    
  Monopole - monopole (total)=       -3876.78002783 eV    
--------------------------------------------------------------------------------
  Total lattice energy       =       -3061.27306101 eV    
--------------------------------------------------------------------------------
  Total lattice energy       =         -295366.0545 kJ/(mole unit cells)
--------------------------------------------------------------------------------

  Final fractional coordinates of atoms :

--------------------------------------------------------------------------------
   No.  Atomic        x           y          z          Radius
        Label       (Frac)      (Frac)     (Frac)       (Angs) 
--------------------------------------------------------------------------------
     1  Ge    c     0.556730    0.000000    0.122130    0.000000
     2  Ge    c     0.438362    0.001500    0.879506    0.000000
     3  Ge    c     0.327030    0.710960    0.268417    0.000000
     4  Ge    c     0.162911    0.266784    0.957299    0.000000
     5  Si    c     0.043232    0.977867    0.352458    0.000000
     6  Si    c     0.449024    0.995200    0.368699    0.000000
     7  Si    c     0.943639    0.982251    0.609447    0.000000
     8  Si    c     0.546370    0.000331    0.626131    0.000000
     9  Si    c     0.943225    0.994869    0.096846    0.000000
    10  Si    c     0.051385    0.984817    0.859123    0.000000
    11  Si    c     0.161765    0.261003    0.264590    0.000000
    12  Si    c     0.829640    0.273094    0.702019    0.000000
    13  Si    c     0.662005    0.713238    0.703468    0.000000
    14  Si    c     0.843184    0.675106    0.695099    0.000000
    15  Si    c     0.648838    0.308157    0.709600    0.000000
    16  Si    c     0.144015    0.667898    0.269280    0.000000
    17  Si    c     0.342181    0.297428    0.260916    0.000000
    18  Si    c     0.649555    0.320195    0.009614    0.000000
    19  Si    c     0.851532    0.676499    0.995353    0.000000
    20  Si    c     0.345377    0.325268    0.960040    0.000000
    21  Si    c     0.139346    0.666626    0.967376    0.000000
    22  Si    c     0.319945    0.723063    0.964118    0.000000
    23  Si    c     0.670238    0.720538    0.003265    0.000000
    24  Si    c     0.830925    0.279652    0.004036    0.000000
    25  O2    c     0.111765    0.124448    0.350500    0.000000
    26  O3    c     0.387501    0.837392    0.361668    0.000000
    27  O2    c     0.879058    0.137042    0.617390    0.000000
    28  O2    c     0.611547    0.844851    0.613773    0.000000
    29  O2    c     0.899126    0.794855    0.606403    0.000000
    30  O2    c     0.589382    0.190002    0.626998    0.000000
    31  O2    c     0.081290    0.782924    0.349388    0.000000
    32  O2    c     0.403264    0.176209    0.337660    0.000000
    33  O2    c     0.993999    0.002941    0.481490    0.000000
    34  O2    c     0.483317    0.001243    0.512748    0.000000
    35  O2    c     0.984014    0.007467    0.234341    0.000000
    36  O3    c     0.523489    0.973570    0.277044    0.000000
    37  O2    c     0.001830    0.994398    0.729750    0.000000
    38  O3    c     0.500786    0.960299    0.756341    0.000000
    39  O3    c     0.590110    0.213238    0.096941    0.000000
    40  O2    c     0.910863    0.797232    0.076090    0.000000
    41  O3    c     0.408431    0.219225    0.878236    0.000000
    42  O2    c     0.081731    0.786672    0.882039    0.000000
    43  O3    c     0.357455    0.863224    0.869087    0.000000
    44  O3    c     0.123541    0.117434    0.851995    0.000000
    45  O3    c     0.634833    0.859618    0.098490    0.000000
    46  O2    c     0.872724    0.135848    0.094011    0.000000
    47  O1    c     0.482867    0.943891    0.021326    0.000000
    48  O2    c     0.002508    0.051029    0.983457    0.000000
    49  O2    c     0.129445    0.458732    0.286832    0.000000
    50  O3    c     0.361430    0.498630    0.285454    0.000000
    51  O2    c     0.858335    0.469999    0.666607    0.000000
    52  O2    c     0.632542    0.513574    0.681320    0.000000
    53  O2    c     0.253362    0.252791    0.306374    0.000000
    54  O3    c     0.230349    0.715152    0.317891    0.000000
    55  O2    c     0.737387    0.256890    0.670122    0.000000
    56  O2    c     0.753234    0.725328    0.664740    0.000000
    57  O3    c     0.156140    0.202665    0.116861    0.000000
    58  O3    c     0.328738    0.786754    0.111427    0.000000
    59  O2    c     0.841899    0.231272    0.853544    0.000000
    60  O2    c     0.652942    0.769541    0.853197    0.000000
    61  O2    c     0.864452    0.716019    0.843784    0.000000
    62  O2    c     0.633401    0.265872    0.860530    0.000000
    63  O2    c     0.132933    0.717954    0.118399    0.000000
    64  O2    c     0.350952    0.255462    0.108562    0.000000
    65  O2    c     0.634339    0.526995    0.029928    0.000000
    66  O2    c     0.868379    0.472219    0.028673    0.000000
    67  O2    c     0.363189    0.533281    0.954118    0.000000
    68  O3    c     0.116204    0.467887    0.943019    0.000000
    69  O2    c     0.739890    0.276689    0.042791    0.000000
    70  O2    c     0.762754    0.720850    0.031303    0.000000
    71  O3    c     0.258874    0.285544    0.909016    0.000000
    72  O2    c     0.229207    0.697884    0.925538    0.000000
    73  O2    s     0.109932    0.123673    0.341370    0.000000
    74  O3    s     0.388548    0.842628    0.354398    0.000000
    75  O2    s     0.880434    0.135678    0.626037    0.000000
    76  O2    s     0.610383    0.846443    0.624680    0.000000
    77  O2    s     0.897697    0.801584    0.616461    0.000000
    78  O2    s     0.591430    0.183106    0.636000    0.000000
    79  O2    s     0.083961    0.791119    0.341237    0.000000
    80  O2    s     0.401319    0.170446    0.332339    0.000000
    81  O2    s     0.993783    0.997568    0.481587    0.000000
    82  O2    s     0.486765    0.000494    0.509766    0.000000
    83  O2    s     0.985926    0.002626    0.231469    0.000000
    84  O3    s     0.518791    0.977996    0.273137    0.000000
    85  O2    s     0.001020    0.991892    0.731317    0.000000
    86  O3    s     0.499946    0.968336    0.753689    0.000000
    87  O3    s     0.593721    0.207702    0.089741    0.000000
    88  O2    s     0.907757    0.804775    0.069316    0.000000
    89  O3    s     0.404452    0.212800    0.886550    0.000000
    90  O2    s     0.084797    0.794791    0.889030    0.000000
    91  O3    s     0.359837    0.859407    0.879794    0.000000
    92  O3    s     0.119480    0.116440    0.861514    0.000000
    93  O3    s     0.632261    0.855962    0.090034    0.000000
    94  O2    s     0.875640    0.136739    0.084180    0.000000
    95  O1    s     0.485435    0.952963    0.018437    0.000000
    96  O2    s     0.001250    0.038275    0.982784    0.000000
    97  O2    s     0.134355    0.459985    0.282657    0.000000
    98  O3    s     0.356624    0.495004    0.281518    0.000000
    99  O2    s     0.853636    0.471275    0.673440    0.000000
   100  O2    s     0.637425    0.512585    0.686705    0.000000
   101  O2    s     0.253018    0.258249    0.297407    0.000000
   102  O3    s     0.229497    0.710122    0.309086    0.000000
   103  O2    s     0.737866    0.264145    0.677767    0.000000
   104  O2    s     0.753068    0.718531    0.672215    0.000000
   105  O3    s     0.157251    0.213673    0.118600    0.000000
   106  O3    s     0.327779    0.774582    0.110074    0.000000
   107  O2    s     0.839420    0.240820    0.853302    0.000000
   108  O2    s     0.655643    0.758745    0.853078    0.000000
   109  O2    s     0.860827    0.707567    0.844163    0.000000
   110  O2    s     0.636634    0.275706    0.859971    0.000000
   111  O2    s     0.134754    0.707456    0.118448    0.000000
   112  O2    s     0.349516    0.266691    0.109327    0.000000
   113  O2    s     0.639714    0.525080    0.024961    0.000000
   114  O2    s     0.862688    0.473762    0.022563    0.000000
   115  O2    s     0.356938    0.530488    0.955740    0.000000
   116  O3    s     0.122328    0.472480    0.946663    0.000000
   117  O2    s     0.740165    0.281721    0.034971    0.000000
   118  O2    s     0.762592    0.715716    0.024105    0.000000
   119  O3    s     0.259660    0.288010    0.918164    0.000000
   120  O2    s     0.229364    0.697164    0.934197    0.000000
--------------------------------------------------------------------------------

  Final Cartesian lattice vectors (Angstroms) :

       17.050678    0.000877   -0.020132
        0.000211    7.603935    0.022598
       -0.012459    0.032359   10.345470


  Final cell parameters and derivatives :

--------------------------------------------------------------------------------
       a           17.050690 Angstrom     dE/de1(xx)     0.016317 eV/strain
       b            7.603968 Angstrom     dE/de2(yy)     0.016750 eV/strain
       c           10.345528 Angstrom     dE/de3(zz)     0.015962 eV/strain
       alpha       89.650516 Degrees      dE/de4(yz)     0.000545 eV/strain
       beta        90.136643 Degrees      dE/de5(xz)     0.001197 eV/strain
       gamma       89.995665 Degrees      dE/de6(xy)     0.000850 eV/strain
--------------------------------------------------------------------------------

  Primitive cell volume =          1341.298988 Angs**3

  Density of cell =      2.005902 g/cm**3

  Non-primitive cell volume =          1341.298988 Angs**3


  Final internal derivatives :

--------------------------------------------------------------------------------
   No.  Atomic          a             b             c           Radius
        Label          (eV)          (eV)          (eV)        (eV/Angs)
--------------------------------------------------------------------------------
      1 Ge    c       0.000000      0.000000      0.000000      0.000000
      2 Ge    c      -0.003544      0.000479      0.000225      0.000000
      3 Ge    c       0.000924      0.001604      0.001549      0.000000
      4 Ge    c      -0.003015     -0.003821     -0.000811      0.000000
      5 Si    c       0.001986     -0.000534      0.000448      0.000000
      6 Si    c      -0.001399      0.000259     -0.000051      0.000000
      7 Si    c      -0.001439     -0.000305      0.000404      0.000000
      8 Si    c      -0.000383     -0.000465      0.001062      0.000000
      9 Si    c      -0.000813     -0.000424      0.000478      0.000000
     10 Si    c       0.001640     -0.000442      0.000962      0.000000
     11 Si    c      -0.000651      0.000008      0.003967      0.000000
     12 Si    c      -0.000046     -0.000102     -0.000515      0.000000
     13 Si    c      -0.000047      0.000149      0.000304      0.000000
     14 Si    c       0.000372      0.000093     -0.000343      0.000000
     15 Si    c      -0.000182     -0.000225     -0.000204      0.000000
     16 Si    c      -0.007180      0.000484      0.000421      0.000000
     17 Si    c       0.002744     -0.002502     -0.000468      0.000000
     18 Si    c      -0.000429     -0.000393      0.000111      0.000000
     19 Si    c       0.000216      0.000702      0.000142      0.000000
     20 Si    c       0.010808     -0.001629      0.000201      0.000000
     21 Si    c      -0.005890      0.004606      0.001184      0.000000
     22 Si    c       0.005997      0.001309     -0.003254      0.000000
     23 Si    c      -0.000826     -0.000257     -0.000668      0.000000
     24 Si    c      -0.000164     -0.000415     -0.000251      0.000000
     25 O2    c       0.000766      0.000364     -0.000396      0.000000
     26 O3    c      -0.000323     -0.000071     -0.000584      0.000000
     27 O2    c       0.000339     -0.000072     -0.000073      0.000000
     28 O2    c      -0.001390      0.000450     -0.000039      0.000000
     29 O2    c       0.000296     -0.000045     -0.000030      0.000000
     30 O2    c       0.000578      0.000494      0.000273      0.000000
     31 O2    c       0.001068     -0.000403     -0.000725      0.000000
     32 O2    c      -0.000140     -0.000040     -0.000235      0.000000
     33 O2    c       0.001290      0.000115     -0.000869      0.000000
     34 O2    c      -0.001443      0.000098     -0.000879      0.000000
     35 O2    c      -0.000070      0.000036      0.000090      0.000000
     36 O3    c      -0.001697      0.000166      0.000626      0.000000
     37 O2    c      -0.000520      0.000129     -0.001178      0.000000
     38 O3    c       0.003886      0.000349     -0.003248      0.000000
     39 O3    c      -0.000815     -0.000042     -0.000411      0.000000
     40 O2    c       0.000064     -0.000036     -0.000728      0.000000
     41 O3    c      -0.002272      0.000549      0.001464      0.000000
     42 O2    c       0.000166     -0.001358      0.000859      0.000000
     43 O3    c      -0.001355     -0.001183      0.001242      0.000000
     44 O3    c       0.001118      0.000289     -0.000045      0.000000
     45 O3    c       0.000590      0.000701      0.000425      0.000000
     46 O2    c      -0.000150     -0.000258      0.000162      0.000000
     47 O1    c      -0.004057     -0.000459     -0.000789      0.000000
     48 O2    c       0.000701      0.000120     -0.001298      0.000000
     49 O2    c      -0.003210     -0.000931      0.002291      0.000000
     50 O3    c       0.006411      0.001069      0.004776      0.000000
     51 O2    c       0.000345     -0.000139     -0.000027      0.000000
     52 O2    c      -0.000293      0.000359      0.000038      0.000000
     53 O2    c      -0.002790     -0.001705      0.002305      0.000000
     54 O3    c       0.010244      0.003483      0.003879      0.000000
     55 O2    c      -0.000896      0.000175      0.000110      0.000000
     56 O2    c      -0.000891     -0.000187     -0.000063      0.000000
     57 O3    c      -0.004509     -0.002307     -0.002613      0.000000
     58 O3    c       0.004157      0.002369      0.002253      0.000000
     59 O2    c       0.000098     -0.000063      0.000580      0.000000
     60 O2    c       0.000394     -0.000020     -0.000435      0.000000
     61 O2    c      -0.000300      0.000039      0.000375      0.000000
     62 O2    c       0.000512     -0.000006     -0.000486      0.000000
     63 O2    c      -0.000736      0.001250      0.000092      0.000000
     64 O2    c       0.001167     -0.001561      0.000941      0.000000
     65 O2    c      -0.000537     -0.000081      0.000040      0.000000
     66 O2    c       0.000490      0.000114      0.000095      0.000000
     67 O2    c       0.007405      0.001722     -0.001524      0.000000
     68 O3    c      -0.015562     -0.002655     -0.008372      0.000000
     69 O2    c      -0.000390      0.000163      0.000238      0.000000
     70 O2    c       0.002892      0.000017      0.000161      0.000000
     71 O3    c      -0.006323     -0.004663     -0.005895      0.000000
     72 O2    c       0.001768      0.002323     -0.003632      0.000000
     73 O2    s      -0.001398     -0.001234      0.000683      0.000000
     74 O3    s       0.002286      0.000887      0.000867      0.000000
     75 O2    s      -0.000792      0.000055     -0.000261      0.000000
     76 O2    s       0.000704      0.000051     -0.000196      0.000000
     77 O2    s      -0.000857     -0.000000      0.000244      0.000000
     78 O2    s       0.000438     -0.000301      0.000484      0.000000
     79 O2    s      -0.003030      0.001452      0.001397      0.000000
     80 O2    s       0.003339     -0.001214      0.000976      0.000000
     81 O2    s      -0.000756      0.000197      0.000178      0.000000
     82 O2    s       0.001039     -0.000425      0.000140      0.000000
     83 O2    s      -0.000183      0.000112     -0.000191      0.000000
     84 O3    s       0.000510     -0.000177      0.000125      0.000000
     85 O2    s      -0.000425      0.000540      0.000004      0.000000
     86 O3    s      -0.001435     -0.000101      0.001034      0.000000
     87 O3    s       0.001358      0.000671      0.000287      0.000000
     88 O2    s      -0.000737     -0.000263     -0.000113      0.000000
     89 O3    s       0.004757     -0.001506     -0.002391      0.000000
     90 O2    s      -0.002983      0.002456     -0.000550      0.000000
     91 O3    s       0.001536      0.002368     -0.001666      0.000000
     92 O3    s       0.000017     -0.001573     -0.001191      0.000000
     93 O3    s       0.000141     -0.000406     -0.000084      0.000000
     94 O2    s      -0.000592     -0.000016     -0.000322      0.000000
     95 O1    s       0.002837     -0.000674      0.001021      0.000000
     96 O2    s      -0.001363      0.000692      0.001347      0.000000
     97 O2    s      -0.006961     -0.000976      0.004601      0.000000
     98 O3    s       0.005355      0.001254      0.002769      0.000000
     99 O2    s      -0.000214      0.000009      0.000037      0.000000
    100 O2    s       0.000443     -0.000261      0.000456      0.000000
    101 O2    s       0.000485     -0.003454      0.004553      0.000000
    102 O3    s      -0.003802      0.002315      0.004684      0.000000
    103 O2    s      -0.000683     -0.000110     -0.000302      0.000000
    104 O2    s       0.000004     -0.000040     -0.000335      0.000000
    105 O3    s      -0.004368     -0.003915      0.001333      0.000000
    106 O3    s       0.006305      0.004334      0.000406      0.000000
    107 O2    s       0.000422     -0.000056      0.000094      0.000000
    108 O2    s       0.000172      0.000005     -0.000101      0.000000
    109 O2    s      -0.000265      0.000068      0.000421      0.000000
    110 O2    s      -0.000172     -0.000044     -0.000141      0.000000
    111 O2    s      -0.010944      0.003968      0.001379      0.000000
    112 O2    s       0.008656     -0.003808      0.000526      0.000000
    113 O2    s      -0.000766     -0.000257     -0.000058      0.000000
    114 O2    s       0.000369      0.000051     -0.000167      0.000000
    115 O2    s       0.007812      0.000232     -0.004881      0.000000
    116 O3    s      -0.003946     -0.001642     -0.002222      0.000000
    117 O2    s       0.000125      0.000188      0.000499      0.000000
    118 O2    s       0.000193     -0.000021      0.000385      0.000000
    119 O3    s      -0.000249     -0.000743     -0.004733      0.000000
    120 O2    s       0.000897      0.003595     -0.005903      0.000000
--------------------------------------------------------------------------------
  Maximum abs         0.015562      0.004663      0.008372      0.000000
--------------------------------------------------------------------------------


  Born effective charge tensors : 

-------------------------------------------------------------------------------
  Atom             x           y             z
-------------------------------------------------------------------------------
    1 Ge    x       4.3695      0.2953     -0.3796
            y      -0.2006      3.9109      0.0444
            z      -0.4782     -0.0623      3.9323
-------------------------------------------------------------------------------
    2 Ge    x       4.3244     -0.3133     -0.1471
            y       0.2246      3.9025      0.0252
            z      -0.7151      0.1054      3.7448
-------------------------------------------------------------------------------
    3 Ge    x       4.0082      0.3552      0.1790
            y       0.2074      4.1694      0.2523
            z       0.2525      0.0455      3.4406
-------------------------------------------------------------------------------
    4 Ge    x       3.9482      0.4707      0.1925
            y       0.0747      4.1846      0.2970
            z       0.1622      0.0835      3.3543
-------------------------------------------------------------------------------
    5 Si    x       3.4083     -0.1687     -0.1987
            y       0.1392      3.2097      0.0104
            z      -0.4668      0.0814      3.8339
-------------------------------------------------------------------------------
    6 Si    x       3.9889      0.0961      0.2544
            y       0.2503      3.4667     -0.0602
            z       0.1569      0.0720      3.9946
-------------------------------------------------------------------------------
    7 Si    x       3.4049      0.1028     -0.1992
            y      -0.1309      3.2387      0.0242
            z      -0.5306     -0.0706      3.8001
-------------------------------------------------------------------------------
    8 Si    x       3.6103      0.1589     -0.0960
            y      -0.0886      3.3094     -0.0181
            z       0.5033     -0.1276      3.9222
-------------------------------------------------------------------------------
    9 Si    x       3.3877      0.1534      0.2671
            y      -0.2249      3.2636      0.0447
            z       0.4926      0.0265      3.1351
-------------------------------------------------------------------------------
   10 Si    x       3.6462      0.0140      0.1972
            y       0.3898      3.3731     -0.0763
            z       0.5522      0.0006      3.1591
-------------------------------------------------------------------------------
   11 Si    x       3.2929      0.3466     -0.0789
            y       0.1606      3.5523     -0.0847
            z      -0.1183      0.0419      3.1053
-------------------------------------------------------------------------------
   12 Si    x       3.1686     -0.3087     -0.1338
            y      -0.1854      3.4755      0.1560
            z      -0.1133      0.0889      2.8218
-------------------------------------------------------------------------------
   13 Si    x       3.2005     -0.3068      0.1605
            y      -0.1746      3.4570     -0.1846
            z       0.1067     -0.0420      2.7654
-------------------------------------------------------------------------------
   14 Si    x       3.1556      0.2226     -0.0746
            y       0.2764      3.4323     -0.1795
            z      -0.0702     -0.0869      2.8139
-------------------------------------------------------------------------------
   15 Si    x       3.1860      0.2104      0.0709
            y       0.2614      3.4318      0.1880
            z       0.1007      0.0785      2.7809
-------------------------------------------------------------------------------
   16 Si    x       3.5118     -0.1779      0.0903
            y      -0.2612      3.5503      0.2386
            z      -0.0255      0.0854      2.8917
-------------------------------------------------------------------------------
   17 Si    x       3.3248     -0.1747      0.0600
            y      -0.1603      3.7593     -0.1252
            z       0.1790     -0.0148      2.8701
-------------------------------------------------------------------------------
   18 Si    x       3.5035      0.3631     -0.3199
            y       0.4066      3.5082     -0.3293
            z      -0.3320     -0.1598      2.9189
-------------------------------------------------------------------------------
   19 Si    x       3.2163      0.2532      0.1488
            y       0.2945      3.4127      0.1523
            z       0.1701      0.0795      2.7221
-------------------------------------------------------------------------------
   20 Si    x       3.8612     -0.3571     -0.1370
            y      -0.3476      3.5398      0.3428
            z      -0.2719      0.1104      2.9073
-------------------------------------------------------------------------------
   21 Si    x       3.3244     -0.1945      0.1501
            y      -0.1298      3.7187     -0.1212
            z       0.2263      0.0064      2.7919
-------------------------------------------------------------------------------
   22 Si    x       3.4074      0.5318     -0.2462
            y       0.1590      3.6600     -0.2993
            z      -0.2013     -0.1080      3.1597
-------------------------------------------------------------------------------
   23 Si    x       3.2832     -0.4367     -0.3128
            y      -0.1550      3.6412      0.3986
            z      -0.1790      0.2642      2.9754
-------------------------------------------------------------------------------
   24 Si    x       3.1771     -0.3225      0.1687
            y      -0.0946      3.4625     -0.1741
            z       0.1079     -0.0785      2.7356
-------------------------------------------------------------------------------
   25 O2    x      -1.7828     -0.7201      0.2952
            y      -0.7514     -1.9279      0.3100
            z       0.3532      0.3060     -1.3445
-------------------------------------------------------------------------------
   26 O3    x      -2.1835     -0.9731     -0.4956
            y      -1.0383     -2.3589     -0.4441
            z      -0.5217     -0.4303     -1.5603
-------------------------------------------------------------------------------
   27 O2    x      -1.7223      0.7171      0.3343
            y       0.7618     -1.9769     -0.3760
            z       0.3751     -0.3454     -1.3610
-------------------------------------------------------------------------------
   28 O2    x      -1.7499      0.7164     -0.2959
            y       0.7288     -1.9394      0.3227
            z      -0.3371      0.2879     -1.3475
-------------------------------------------------------------------------------
   29 O2    x      -1.6006     -0.6832      0.3061
            y      -0.6434     -1.9908      0.3128
            z       0.3545      0.3252     -1.3732
-------------------------------------------------------------------------------
   30 O2    x      -1.6471     -0.6983     -0.3099
            y      -0.6445     -2.0114     -0.3486
            z      -0.3786     -0.3329     -1.3393
-------------------------------------------------------------------------------
   31 O2    x      -1.6073      0.6925      0.3020
            y       0.6263     -2.0332     -0.3252
            z       0.3415     -0.3177     -1.3674
-------------------------------------------------------------------------------
   32 O2    x      -1.7439      0.6721     -0.4037
            y       0.6611     -1.9242      0.4207
            z      -0.4036      0.3692     -1.4046
-------------------------------------------------------------------------------
   33 O2    x      -1.6327      0.0201      0.8380
            y      -0.0023     -1.0899     -0.0095
            z       1.0892     -0.0285     -2.7578
-------------------------------------------------------------------------------
   34 O2    x      -1.7005     -0.0117     -0.7856
            y      -0.0147     -1.1000     -0.0178
            z      -0.9863     -0.0091     -2.6141
-------------------------------------------------------------------------------
   35 O2    x      -1.6476      0.0231     -0.7310
            y       0.0353     -1.1201      0.0210
            z      -0.7077      0.0252     -2.2912
-------------------------------------------------------------------------------
   36 O3    x      -2.1544      0.0271      0.9139
            y       0.0855     -1.2327     -0.0166
            z       0.9340      0.0286     -2.6568
-------------------------------------------------------------------------------
   37 O2    x      -1.6896      0.0161     -0.7215
            y      -0.0056     -1.1176      0.0227
            z      -0.7012      0.0287     -2.2228
-------------------------------------------------------------------------------
   38 O3    x      -2.0916      0.0181      1.0239
            y      -0.0038     -1.2890      0.0218
            z       0.9439      0.0224     -2.6792
-------------------------------------------------------------------------------
   39 O3    x      -2.0116     -0.8943      0.6067
            y      -0.7783     -2.3837      0.6010
            z       0.5902      0.5782     -1.5695
-------------------------------------------------------------------------------
   40 O2    x      -1.6339     -0.6745     -0.3556
            y      -0.5777     -2.0486     -0.3966
            z      -0.3715     -0.3843     -1.2454
-------------------------------------------------------------------------------
   41 O3    x      -2.0244      0.9104      0.4973
            y       0.7355     -2.3576     -0.4533
            z       0.5493     -0.4632     -1.4570
-------------------------------------------------------------------------------
   42 O2    x      -1.6360      0.6196     -0.3522
            y       0.5439     -1.9484      0.4075
            z      -0.3757      0.3506     -1.2712
-------------------------------------------------------------------------------
   43 O3    x      -2.1078     -0.9023      0.4202
            y      -0.8602     -2.2461      0.5042
            z       0.4706      0.4799     -1.4888
-------------------------------------------------------------------------------
   44 O3    x      -2.1860     -0.9407     -0.3558
            y      -0.9088     -2.2337     -0.4094
            z      -0.3644     -0.3703     -1.4483
-------------------------------------------------------------------------------
   45 O3    x      -2.0277      0.8886      0.6145
            y       0.8611     -2.3038     -0.6880
            z       0.5374     -0.6064     -1.6206
-------------------------------------------------------------------------------
   46 O2    x      -1.7381      0.6954     -0.3306
            y       0.6914     -1.9134      0.3506
            z      -0.3357      0.3379     -1.2553
-------------------------------------------------------------------------------
   47 O1    x      -2.3417     -0.0511     -0.8609
            y      -0.0527     -1.4306      0.0083
            z      -0.5327      0.0220     -2.1923
-------------------------------------------------------------------------------
   48 O2    x      -1.7245      0.0005      0.5491
            y      -0.0028     -1.2579     -0.0376
            z       0.2833     -0.0443     -1.7015
-------------------------------------------------------------------------------
   49 O2    x      -1.1853      0.0982      0.0372
            y       0.1787     -2.5927      0.0035
            z       0.0607      0.0189     -1.0705
-------------------------------------------------------------------------------
   50 O3    x      -1.3456      0.0130     -0.0650
            y       0.0818     -3.2287     -0.0912
            z      -0.0936     -0.1122     -1.1876
-------------------------------------------------------------------------------
   51 O2    x      -1.1480     -0.0559      0.0668
            y      -0.1081     -2.5411      0.0311
            z       0.0741      0.0042     -1.0765
-------------------------------------------------------------------------------
   52 O2    x      -1.1723     -0.0649     -0.0637
            y      -0.1065     -2.5615      0.0221
            z      -0.0714      0.0198     -1.0486
-------------------------------------------------------------------------------
   53 O2    x      -2.4481     -0.0829      0.0510
            y      -0.0419     -1.2478      0.0686
            z       0.0035      0.0315     -1.0965
-------------------------------------------------------------------------------
   54 O3    x      -2.9939     -0.2056     -0.0838
            y      -0.1331     -1.3995     -0.1095
            z      -0.0872     -0.0627     -1.2491
-------------------------------------------------------------------------------
   55 O2    x      -2.3854      0.1129      0.0359
            y       0.0570     -1.2554     -0.0707
            z      -0.0004     -0.0482     -1.0591
-------------------------------------------------------------------------------
   56 O2    x      -2.3871      0.1219      0.0295
            y       0.0569     -1.2470      0.0660
            z       0.0357      0.0370     -1.0570
-------------------------------------------------------------------------------
   57 O3    x      -1.3191     -0.1545     -0.0681
            y      -0.0834     -1.4750     -0.0556
            z      -0.0201     -0.0646     -2.6123
-------------------------------------------------------------------------------
   58 O3    x      -1.3354     -0.1449     -0.0416
            y      -0.0747     -1.4989     -0.1173
            z      -0.0551     -0.0441     -2.5388
-------------------------------------------------------------------------------
   59 O2    x      -1.1601      0.1269     -0.0521
            y       0.0866     -1.2899     -0.0356
            z      -0.0242     -0.0176     -2.0776
-------------------------------------------------------------------------------
   60 O2    x      -1.1857      0.1328     -0.0427
            y       0.0899     -1.3109      0.0083
            z      -0.0531     -0.0093     -2.0419
-------------------------------------------------------------------------------
   61 O2    x      -1.1975     -0.1295     -0.0649
            y      -0.1333     -1.2661     -0.0096
            z      -0.0818      0.0024     -2.0635
-------------------------------------------------------------------------------
   62 O2    x      -1.2236     -0.1309      0.0013
            y      -0.1291     -1.2890     -0.0335
            z       0.0133     -0.0504     -2.0440
-------------------------------------------------------------------------------
   63 O2    x      -1.2057      0.1214     -0.0216
            y       0.1103     -1.2859      0.0208
            z      -0.0354      0.0192     -2.0953
-------------------------------------------------------------------------------
   64 O2    x      -1.2388      0.1200      0.0410
            y       0.1002     -1.3138      0.0753
            z       0.0667      0.0977     -2.0657
-------------------------------------------------------------------------------
   65 O2    x      -1.2533     -0.0807      0.1006
            y      -0.1492     -2.4315      0.0170
            z       0.1082      0.0183     -1.0515
-------------------------------------------------------------------------------
   66 O2    x      -1.2216     -0.0822     -0.0874
            y      -0.1727     -2.4987      0.0417
            z      -0.1007      0.0114     -1.0226
-------------------------------------------------------------------------------
   67 O2    x      -1.3199      0.1243      0.0618
            y       0.2050     -2.3933      0.0143
            z       0.1028      0.0060     -1.0295
-------------------------------------------------------------------------------
   68 O3    x      -1.4247      0.0194     -0.0941
            y       0.1229     -3.1104     -0.1141
            z      -0.1292     -0.0771     -1.1257
-------------------------------------------------------------------------------
   69 O2    x      -2.3903      0.1354      0.0192
            y       0.0950     -1.2526      0.0697
            z       0.0215      0.0366     -1.0555
-------------------------------------------------------------------------------
   70 O2    x      -2.3700      0.1026      0.0061
            y       0.0632     -1.2504     -0.0653
            z       0.0221     -0.0466     -1.0422
-------------------------------------------------------------------------------
   71 O3    x      -3.0053     -0.2635     -0.1059
            y      -0.1953     -1.4045     -0.0957
            z      -0.0994     -0.0390     -1.2270
-------------------------------------------------------------------------------
   72 O2    x      -2.4073     -0.1147      0.0220
            y      -0.0574     -1.2497      0.0569
            z       0.0288      0.0197     -1.0698
-------------------------------------------------------------------------------




  Elastic Constant Matrix: (Units=GPa)

-------------------------------------------------------------------------------
  Indices      1         2         3         4         5         6    
-------------------------------------------------------------------------------
       1     47.7758   23.7593   28.0735    0.5536    3.1734   -1.6877
       2     23.7593   71.6465   23.2742    0.7107    3.9621   -0.2859
       3     28.0735   23.2742   36.1791    0.8247    1.3089    0.2422
       4      0.5536    0.7107    0.8247   11.7157   -0.4536    0.5852
       5      3.1734    3.9621    1.3089   -0.4536   24.4720   -0.6031
       6     -1.6877   -0.2859    0.2422    0.5852   -0.6031   26.2347
-------------------------------------------------------------------------------


  Elastic Compliance Matrix: (Units=1/GPa)

-------------------------------------------------------------------------------
  Indices      1         2         3         4         5         6    
-------------------------------------------------------------------------------
       1    0.039751 -0.003814 -0.028305  0.000096 -0.002955  0.002707
       2   -0.003814  0.018139 -0.008628 -0.000389 -0.001988 -0.000005
       3   -0.028305 -0.008628  0.055138 -0.001825  0.002027 -0.002337
       4    0.000096 -0.000389 -0.001825  0.085661  0.001690 -0.001853
       5   -0.002955 -0.001988  0.002027  0.001690  0.041508  0.000686
       6    0.002707 -0.000005 -0.002337 -0.001853  0.000686  0.038370
-------------------------------------------------------------------------------

  Mechanical properties :

-------------------------------------------------------------------------------
  Convention :                    Reuss         Voigt         Hill
-------------------------------------------------------------------------------
  Bulk  Modulus (GPa)     =      31.71244      33.97948      32.84596
  Shear Modulus (GPa)     =      13.49263      17.85077      15.67170
-------------------------------------------------------------------------------
  Velocity S-wave (km/s)  =       2.59354       2.98314       2.79514
  Velocity P-wave (km/s)  =       4.97777       5.36705       5.17607
-------------------------------------------------------------------------------
  Compressibility (1/GPa) =    0.03153336
-------------------------------------------------------------------------------
  Stress axis :                     x             y             z
-------------------------------------------------------------------------------
  Youngs Moduli (GPa)     =      25.15670      55.13001      18.13624
-------------------------------------------------------------------------------
  Poissons Ratio (x)      =                     0.21027       0.51334
  Poissons Ratio (y)      =       0.09595                     0.15649
  Poissons Ratio (z)      =       0.71205       0.47569
-------------------------------------------------------------------------------


  Piezoelectric Strain Matrix: (Units=C/m**2)

-------------------------------------------------------------------------------
  Indices      1         2         3         4         5         6    
-------------------------------------------------------------------------------
       x     0.21656   0.04407   0.27896   0.48685  -0.07558   0.28022
       y     0.05727   0.19882   0.47256   0.05864   0.63260   0.08511
       z    -0.47074  -0.65306   0.97744   0.20904   0.06012   0.36364
-------------------------------------------------------------------------------


  Piezoelectric Stress Matrix: (Units=10**-11 C/N)

-------------------------------------------------------------------------------
  Indices      1         2         3         4         5         6    
-------------------------------------------------------------------------------
       x     0.15727  -0.24744   0.71752   4.05509  -0.22839   0.97323
       y    -1.34910  -0.19703   2.36962   0.50006   2.68089   0.26408
       z    -4.30610  -1.86868   7.17439   1.57597   0.77685   1.00519
-------------------------------------------------------------------------------


  Static dielectric constant tensor : 

-------------------------------------------------------------------------------
              x         y         z
-------------------------------------------------------------------------------
       x     4.14809   0.05713  -0.08295
       y     0.05713   4.24239   0.06188
       z    -0.08295   0.06188   3.33572
--------------------------------------------------------------------------------

  High frequency dielectric constant tensor : 

-------------------------------------------------------------------------------
              x         y         z
-------------------------------------------------------------------------------
       x     1.67054  -0.00037   0.00090
       y    -0.00037   1.67863   0.00045
       z     0.00090   0.00045   1.61351
-------------------------------------------------------------------------------

  Static refractive indices : 

-------------------------------------------------------------------------------
    1 =    1.82274      2 =    2.03322      3 =    2.06635
-------------------------------------------------------------------------------

  High frequency refractive indices : 

-------------------------------------------------------------------------------
    1 =    1.27024      2 =    1.29249      3 =    1.29563
-------------------------------------------------------------------------------


  Time to end of optimisation =       9.7619 seconds


  Peak dynamic memory used =       5.01 MB 


  Timing analysis for GULP :

--------------------------------------------------------------------------------
  Task / Subroutine                                          Time (Seconds)
--------------------------------------------------------------------------------
  Calculation of reciprocal space energy and derivatives          0.6015
  Calculation of real space energy and derivatives                6.3748
  Calculation of three-body energy and derivatives                0.5335
  Calculation and manipulation of Hessian matrix                  2.5624
  Calculation of matrix inversion                                 0.0360
  Global summation overhead                                       0.0001
--------------------------------------------------------------------------------
  Total CPU time                                                  9.7619
--------------------------------------------------------------------------------


  Dump file written as c00838.vasp.grs
  CIF file written as c00838.vasp.cif


  Job Finished at 14:12.45 31st October    2025                               

