********************************************************************************
*                       GENERAL UTILITY LATTICE PROGRAM                        *
*                                 Julian Gale                                  *
*                       Curtin Institute for Computation                       *
*                    School of Molecular and Life Sciences                     *
*                    Curtin University, Western Australia                      *
********************************************************************************
* Version = 6.1.2 * Last modified =   3rd November 2022                        *
********************************************************************************
*  optimise     - perform optimisation run                                     *
*  conp         - constant pressure calculation                                *
*  property     - calculate properties for final geometry                      *
********************************************************************************

  Job Started  at 14:22.05 31st October    2025                               

  Number of CPUs =     1


  Total number of configurations input =      1

********************************************************************************
*  Input for Configuration =   1 : c00898.vasp                                 *
********************************************************************************

  Formula = Ge4Si20O48                                                  

  Number of irreducible atoms/shells =     120


  Total number atoms/shells =     120

  Dimensionality = 3               :  Bulk   



  Cartesian lattice vectors (Angstroms) :

       17.182800    0.000000    0.000000
        0.000000    7.513760    0.000000
        0.000000    0.000000   10.447700

  Cell parameters (Angstroms/Degrees):

  a =      17.1828    alpha =  90.0000
  b =       7.5138    beta  =  90.0000
  c =      10.4477    gamma =  90.0000

  Initial cell volume =        1348.875752 Angs**3

  Temperature of configuration =   0.00     K 

  Pressure of configuration =         0.000 GPa 

  Fractional coordinates of asymmetric unit :

--------------------------------------------------------------------------------
   No.  Atomic       x           y          z         Charge      Occupancy
        Label      (Frac)      (Frac)     (Frac)        (e)         (Frac)  
--------------------------------------------------------------------------------
      1 Ge    c    0.556730    0.000000    0.122130     4.00000    1.000000    
      2 Ge    c    0.160190 *  0.293910 *  0.273440 *   4.00000    1.000000    
      3 Ge    c    0.339810 *  0.706090 *  0.273440 *   4.00000    1.000000    
      4 Ge    c    0.160660 *  0.294090 *  0.982560 *   4.00000    1.000000    
      5 Si    c    0.052090 *  0.000000 *  0.372270 *   4.00000    1.000000    
      6 Si    c    0.447910 *  0.000000 *  0.372270 *   4.00000    1.000000    
      7 Si    c    0.947910 *  0.000000 *  0.627730 *   4.00000    1.000000    
      8 Si    c    0.552090 *  0.000000 *  0.627730 *   4.00000    1.000000    
      9 Si    c    0.943270 *  0.000000 *  0.122130 *   4.00000    1.000000    
     10 Si    c    0.443270 *  0.000000 *  0.877870 *   4.00000    1.000000    
     11 Si    c    0.056730 *  0.000000 *  0.877870 *   4.00000    1.000000    
     12 Si    c    0.839810 *  0.293910 *  0.726560 *   4.00000    1.000000    
     13 Si    c    0.660190 *  0.706090 *  0.726560 *   4.00000    1.000000    
     14 Si    c    0.839810 *  0.706090 *  0.726560 *   4.00000    1.000000    
     15 Si    c    0.660190 *  0.293910 *  0.726560 *   4.00000    1.000000    
     16 Si    c    0.160190 *  0.706090 *  0.273440 *   4.00000    1.000000    
     17 Si    c    0.339810 *  0.293910 *  0.273440 *   4.00000    1.000000    
     18 Si    c    0.660660 *  0.294090 *  0.017440 *   4.00000    1.000000    
     19 Si    c    0.839340 *  0.705910 *  0.017440 *   4.00000    1.000000    
     20 Si    c    0.339340 *  0.294090 *  0.982560 *   4.00000    1.000000    
     21 Si    c    0.160660 *  0.705910 *  0.982560 *   4.00000    1.000000    
     22 Si    c    0.339340 *  0.705910 *  0.982560 *   4.00000    1.000000    
     23 Si    c    0.660660 *  0.705910 *  0.017440 *   4.00000    1.000000    
     24 Si    c    0.839340 *  0.294090 *  0.017440 *   4.00000    1.000000    
     25 O3    c    0.106570 *  0.174340 *  0.366200 *   1.33043    1.000000    
     26 O3    c    0.393430 *  0.825660 *  0.366200 *   1.33043    1.000000    
     27 O2    c    0.893430 *  0.174340 *  0.633800 *   0.87073    1.000000    
     28 O2    c    0.606570 *  0.825660 *  0.633800 *   0.87073    1.000000    
     29 O2    c    0.893430 *  0.825660 *  0.633800 *   0.87073    1.000000    
     30 O2    c    0.606570 *  0.174340 *  0.633800 *   0.87073    1.000000    
     31 O2    c    0.106570 *  0.825660 *  0.366200 *   0.87073    1.000000    
     32 O2    c    0.393430 *  0.174340 *  0.366200 *   0.87073    1.000000    
     33 O2    c    0.000000 *  0.000000 *  0.500000 *   0.87073    1.000000    
     34 O2    c    0.500000 *  0.000000 *  0.500000 *   0.87073    1.000000    
     35 O2    c    0.994520 *  0.000000 *  0.250840 *   0.87073    1.000000    
     36 O3    c    0.505480 *  0.000000 *  0.250840 *   1.33043    1.000000    
     37 O2    c    0.005480 *  0.000000 *  0.749160 *   0.87073    1.000000    
     38 O2    c    0.494520 *  0.000000 *  0.749160 *   0.87073    1.000000    
     39 O3    c    0.610230 *  0.175520 *  0.115390 *   1.33043    1.000000    
     40 O2    c    0.889770 *  0.824480 *  0.115390 *   0.87073    1.000000    
     41 O2    c    0.389770 *  0.175520 *  0.884610 *   0.87073    1.000000    
     42 O2    c    0.110230 *  0.824480 *  0.884610 *   0.87073    1.000000    
     43 O2    c    0.389770 *  0.824480 *  0.884610 *   0.87073    1.000000    
     44 O3    c    0.110230 *  0.175520 *  0.884610 *   1.33043    1.000000    
     45 O3    c    0.610230 *  0.824480 *  0.115390 *   1.33043    1.000000    
     46 O2    c    0.889770 *  0.175520 *  0.115390 *   0.87073    1.000000    
     47 O3    c    0.500000 *  0.000000 *  0.000000 *   1.33043    1.000000    
     48 O2    c    0.000000 *  0.000000 *  0.000000 *   0.87073    1.000000    
     49 O3    c    0.151750 *  0.500000 *  0.313330 *   1.33043    1.000000    
     50 O3    c    0.348250 *  0.500000 *  0.313330 *   1.33043    1.000000    
     51 O2    c    0.848250 *  0.500000 *  0.686670 *   0.87073    1.000000    
     52 O2    c    0.651750 *  0.500000 *  0.686670 *   0.87073    1.000000    
     53 O3    c    0.250000 *  0.234950 *  0.285720 *   1.33043    1.000000    
     54 O3    c    0.250000 *  0.765050 *  0.285720 *   1.33043    1.000000    
     55 O2    c    0.750000 *  0.234950 *  0.714280 *   0.87073    1.000000    
     56 O2    c    0.750000 *  0.765050 *  0.714280 *   0.87073    1.000000    
     57 O1    c    0.131410 *  0.268650 *  0.127790 *   1.73396    1.000000    
     58 O3    c    0.368590 *  0.731350 *  0.127790 *   1.33043    1.000000    
     59 O2    c    0.868590 *  0.268650 *  0.872210 *   0.87073    1.000000    
     60 O2    c    0.631410 *  0.731350 *  0.872210 *   0.87073    1.000000    
     61 O2    c    0.868590 *  0.731350 *  0.872210 *   0.87073    1.000000    
     62 O2    c    0.631410 *  0.268650 *  0.872210 *   0.87073    1.000000    
     63 O2    c    0.131410 *  0.731350 *  0.127790 *   0.87073    1.000000    
     64 O2    c    0.368590 *  0.268650 *  0.127790 *   0.87073    1.000000    
     65 O2    c    0.653920 *  0.500000 *  0.058200 *   0.87073    1.000000    
     66 O2    c    0.846080 *  0.500000 *  0.058200 *   0.87073    1.000000    
     67 O2    c    0.346080 *  0.500000 *  0.941800 *   0.87073    1.000000    
     68 O3    c    0.153920 *  0.500000 *  0.941800 *   1.33043    1.000000    
     69 O2    c    0.750000 *  0.231060 *  0.027050 *   0.87073    1.000000    
     70 O2    c    0.750000 *  0.768940 *  0.027050 *   0.87073    1.000000    
     71 O3    c    0.250000 *  0.231060 *  0.972950 *   1.33043    1.000000    
     72 O2    c    0.250000 *  0.768940 *  0.972950 *   0.87073    1.000000    
     73 O3    s    0.106570 *  0.174340 *  0.366200 *  -3.33043    1.000000    
     74 O3    s    0.393430 *  0.825660 *  0.366200 *  -3.33043    1.000000    
     75 O2    s    0.893430 *  0.174340 *  0.633800 *  -2.87073    1.000000    
     76 O2    s    0.606570 *  0.825660 *  0.633800 *  -2.87073    1.000000    
     77 O2    s    0.893430 *  0.825660 *  0.633800 *  -2.87073    1.000000    
     78 O2    s    0.606570 *  0.174340 *  0.633800 *  -2.87073    1.000000    
     79 O2    s    0.106570 *  0.825660 *  0.366200 *  -2.87073    1.000000    
     80 O2    s    0.393430 *  0.174340 *  0.366200 *  -2.87073    1.000000    
     81 O2    s    0.000000 *  0.000000 *  0.500000 *  -2.87073    1.000000    
     82 O2    s    0.500000 *  0.000000 *  0.500000 *  -2.87073    1.000000    
     83 O2    s    0.994520 *  0.000000 *  0.250840 *  -2.87073    1.000000    
     84 O3    s    0.505480 *  0.000000 *  0.250840 *  -3.33043    1.000000    
     85 O2    s    0.005480 *  0.000000 *  0.749160 *  -2.87073    1.000000    
     86 O2    s    0.494520 *  0.000000 *  0.749160 *  -2.87073    1.000000    
     87 O3    s    0.610230 *  0.175520 *  0.115390 *  -3.33043    1.000000    
     88 O2    s    0.889770 *  0.824480 *  0.115390 *  -2.87073    1.000000    
     89 O2    s    0.389770 *  0.175520 *  0.884610 *  -2.87073    1.000000    
     90 O2    s    0.110230 *  0.824480 *  0.884610 *  -2.87073    1.000000    
     91 O2    s    0.389770 *  0.824480 *  0.884610 *  -2.87073    1.000000    
     92 O3    s    0.110230 *  0.175520 *  0.884610 *  -3.33043    1.000000    
     93 O3    s    0.610230 *  0.824480 *  0.115390 *  -3.33043    1.000000    
     94 O2    s    0.889770 *  0.175520 *  0.115390 *  -2.87073    1.000000    
     95 O3    s    0.500000 *  0.000000 *  0.000000 *  -3.33043    1.000000    
     96 O2    s    0.000000 *  0.000000 *  0.000000 *  -2.87073    1.000000    
     97 O3    s    0.151750 *  0.500000 *  0.313330 *  -3.33043    1.000000    
     98 O3    s    0.348250 *  0.500000 *  0.313330 *  -3.33043    1.000000    
     99 O2    s    0.848250 *  0.500000 *  0.686670 *  -2.87073    1.000000    
    100 O2    s    0.651750 *  0.500000 *  0.686670 *  -2.87073    1.000000    
    101 O3    s    0.250000 *  0.234950 *  0.285720 *  -3.33043    1.000000    
    102 O3    s    0.250000 *  0.765050 *  0.285720 *  -3.33043    1.000000    
    103 O2    s    0.750000 *  0.234950 *  0.714280 *  -2.87073    1.000000    
    104 O2    s    0.750000 *  0.765050 *  0.714280 *  -2.87073    1.000000    
    105 O1    s    0.131410 *  0.268650 *  0.127790 *  -3.73396    1.000000    
    106 O3    s    0.368590 *  0.731350 *  0.127790 *  -3.33043    1.000000    
    107 O2    s    0.868590 *  0.268650 *  0.872210 *  -2.87073    1.000000    
    108 O2    s    0.631410 *  0.731350 *  0.872210 *  -2.87073    1.000000    
    109 O2    s    0.868590 *  0.731350 *  0.872210 *  -2.87073    1.000000    
    110 O2    s    0.631410 *  0.268650 *  0.872210 *  -2.87073    1.000000    
    111 O2    s    0.131410 *  0.731350 *  0.127790 *  -2.87073    1.000000    
    112 O2    s    0.368590 *  0.268650 *  0.127790 *  -2.87073    1.000000    
    113 O2    s    0.653920 *  0.500000 *  0.058200 *  -2.87073    1.000000    
    114 O2    s    0.846080 *  0.500000 *  0.058200 *  -2.87073    1.000000    
    115 O2    s    0.346080 *  0.500000 *  0.941800 *  -2.87073    1.000000    
    116 O3    s    0.153920 *  0.500000 *  0.941800 *  -3.33043    1.000000    
    117 O2    s    0.750000 *  0.231060 *  0.027050 *  -2.87073    1.000000    
    118 O2    s    0.750000 *  0.768940 *  0.027050 *  -2.87073    1.000000    
    119 O3    s    0.250000 *  0.231060 *  0.972950 *  -3.33043    1.000000    
    120 O2    s    0.250000 *  0.768940 *  0.972950 *  -2.87073    1.000000    
--------------------------------------------------------------------------------



********************************************************************************
*  General input information                                                   *
********************************************************************************

  Species output for all configurations : 

--------------------------------------------------------------------------------
  Species    Type    Atomic    Atomic    Charge       Radii (Angs)     Library
                     Number     Mass       (e)     Cova   Ionic  VDW   Symbol
--------------------------------------------------------------------------------
    Ge       Core       32      72.61   4.000000   1.170  0.000  1.750 Ge       
    Si       Core       14      28.09   4.000000   1.200  0.000  2.100 Si       
    O1       Core        8      16.00   1.733957   0.730  0.000  1.360 O1       
    O2       Core        8      16.00   0.870733   0.730  0.000  1.360 O2       
    O3       Core        8      16.00   1.330431   0.730  0.000  1.360 O3       
    O1       Shell       8       0.00  -3.733957   0.730  0.000  0.000 O1       
    O2       Shell       8       0.00  -2.870733   0.730  0.000  0.000 O2       
    O3       Shell       8       0.00  -3.330431   0.730  0.000  0.000 O3       
--------------------------------------------------------------------------------


  Lattice summation method               =    Ewald          (3-D)
                                         =    Parry          (2-D)
                                         =    Saunders et al (1-D)
  Accuracy factor for lattice sums       =   12.000


  Analytic derivatives to be used

  Time limit = Infinity

  Maximum range for interatomic potentials =    100000.000000 Angstroms

  General interatomic potentials :

--------------------------------------------------------------------------------
Atom  Types   Potential      Parameter       Value         Units   Cutoffs(Ang)
  1     2                                                            Min /  Max 
--------------------------------------------------------------------------------
Si   c O1   s Buckingham    Buckingham A     1315.2478    eV        0.000 16.000
                            Buckingham rho  0.31775900    Ang       
                            Buckingham C     10.141118    eV*Ang^6  
--------------------------------------------------------------------------------
Si   c O2   s Buckingham    Buckingham A     1315.2478    eV        0.000 16.000
                            Buckingham rho  0.31775900    Ang       
                            Buckingham C     10.141118    eV*Ang^6  
--------------------------------------------------------------------------------
Si   c O3   s Buckingham    Buckingham A     1315.2478    eV        0.000 16.000
                            Buckingham rho  0.31775900    Ang       
                            Buckingham C     10.141118    eV*Ang^6  
--------------------------------------------------------------------------------
Ge   c O1   s Buckingham    Buckingham A     1497.3996    eV        0.000 16.000
                            Buckingham rho  0.32564600    Ang       
                            Buckingham C     16.808599    eV*Ang^6  
--------------------------------------------------------------------------------
Ge   c O2   s Buckingham    Buckingham A     1497.3996    eV        0.000 16.000
                            Buckingham rho  0.32564600    Ang       
                            Buckingham C     16.808599    eV*Ang^6  
--------------------------------------------------------------------------------
Ge   c O3   s Buckingham    Buckingham A     1497.3996    eV        0.000 16.000
                            Buckingham rho  0.32564600    Ang       
                            Buckingham C     16.808599    eV*Ang^6  
--------------------------------------------------------------------------------
O1   s O1   s Buckingham    Buckingham A     22764.000    eV        0.000 16.000
                            Buckingham rho  0.14900000    Ang       
                            Buckingham C     10.937044    eV*Ang^6  
--------------------------------------------------------------------------------
O1   s O2   s Buckingham    Buckingham A     22764.000    eV        0.000 16.000
                            Buckingham rho  0.14900000    Ang       
                            Buckingham C     10.937044    eV*Ang^6  
--------------------------------------------------------------------------------
O1   s O3   s Buckingham    Buckingham A     22764.000    eV        0.000 16.000
                            Buckingham rho  0.14900000    Ang       
                            Buckingham C     10.937044    eV*Ang^6  
--------------------------------------------------------------------------------
O2   s O2   s Buckingham    Buckingham A     22764.000    eV        0.000 16.000
                            Buckingham rho  0.14900000    Ang       
                            Buckingham C     10.937044    eV*Ang^6  
--------------------------------------------------------------------------------
O2   s O3   s Buckingham    Buckingham A     22764.000    eV        0.000 16.000
                            Buckingham rho  0.14900000    Ang       
                            Buckingham C     10.937044    eV*Ang^6  
--------------------------------------------------------------------------------
O3   s O3   s Buckingham    Buckingham A     22764.000    eV        0.000 16.000
                            Buckingham rho  0.14900000    Ang       
                            Buckingham C     10.937044    eV*Ang^6  
--------------------------------------------------------------------------------
O1   c O1   s Spring (c-s)  Spring k 2       180.31577    eV*Ang^-2 0.000  0.800
                            Spring k 4       0.0000000    eV*Ang^-4 
--------------------------------------------------------------------------------
O2   c O2   s Spring (c-s)  Spring k 2       75.969800    eV*Ang^-2 0.000  0.800
                            Spring k 4       0.0000000    eV*Ang^-4 
--------------------------------------------------------------------------------
O3   c O3   s Spring (c-s)  Spring k 2       128.14270    eV*Ang^-2 0.000  0.800
                            Spring k 4       0.0000000    eV*Ang^-4 
--------------------------------------------------------------------------------

  General Three-body potentials :

--------------------------------------------------------------------------------
  Atoms       Potential      Parameter       Value         Units   Cutoffs(Ang)
  1 / 2 / 3                                                          Min /  Max 
--------------------------------------------------------------------------------
Si    core    Harmonic      Three-body cnst  1.2614000    eV*rad^-2 0.000  1.900
O1    shel                  Three-body angl  109.47000    degrees   0.000  1.900
O1    shel                  Three-body k4    0.0000000    eV*rad^-4 0.000  3.500
                            Three-body k3    0.0000000    eV*rad^-3 
--------------------------------------------------------------------------------
Si    core    Harmonic      Three-body cnst  1.2614000    eV*rad^-2 0.000  1.900
O1    shel                  Three-body angl  109.47000    degrees   0.000  1.900
õ(1   shel                  Three-body k4    0.0000000    eV*rad^-4 0.000  3.500
                            Three-body k3    0.0000000    eV*rad^-3 
--------------------------------------------------------------------------------
Si    core    Harmonic      Three-body cnst  1.2614000    eV*rad^-2 0.000  1.900
õ(1   shel                  Three-body angl  109.47000    degrees   0.000  1.900
õ(1   shel                  Three-body k4    0.0000000    eV*rad^-4 0.000  3.500
                            Three-body k3    0.0000000    eV*rad^-3 
--------------------------------------------------------------------------------
Si    core    Harmonic      Three-body cnst  1.2614000    eV*rad^-2 0.000  1.900
O1    shel                  Three-body angl  109.47000    degrees   0.000  1.900
O2    shel                  Three-body k4    0.0000000    eV*rad^-4 0.000  3.500
                            Three-body k3    0.0000000    eV*rad^-3 
--------------------------------------------------------------------------------
Si    core    Harmonic      Three-body cnst  1.2614000    eV*rad^-2 0.000  1.900
O1    shel                  Three-body angl  109.47000    degrees   0.000  1.900
õ(2   shel                  Three-body k4    0.0000000    eV*rad^-4 0.000  3.500
                            Three-body k3    0.0000000    eV*rad^-3 
--------------------------------------------------------------------------------
Si    core    Harmonic      Three-body cnst  1.2614000    eV*rad^-2 0.000  1.900
O2    shel                  Three-body angl  109.47000    degrees   0.000  1.900
õ(1   shel                  Three-body k4    0.0000000    eV*rad^-4 0.000  3.500
                            Three-body k3    0.0000000    eV*rad^-3 
--------------------------------------------------------------------------------
Si    core    Harmonic      Three-body cnst  1.2614000    eV*rad^-2 0.000  1.900
õ(1   shel                  Three-body angl  109.47000    degrees   0.000  1.900
õ(2   shel                  Three-body k4    0.0000000    eV*rad^-4 0.000  3.500
                            Three-body k3    0.0000000    eV*rad^-3 
--------------------------------------------------------------------------------
Si    core    Harmonic      Three-body cnst  1.2614000    eV*rad^-2 0.000  1.900
O2    shel                  Three-body angl  109.47000    degrees   0.000  1.900
O2    shel                  Three-body k4    0.0000000    eV*rad^-4 0.000  3.500
                            Three-body k3    0.0000000    eV*rad^-3 
--------------------------------------------------------------------------------
Si    core    Harmonic      Three-body cnst  1.2614000    eV*rad^-2 0.000  1.900
O2    shel                  Three-body angl  109.47000    degrees   0.000  1.900
õ(2   shel                  Three-body k4    0.0000000    eV*rad^-4 0.000  3.500
                            Three-body k3    0.0000000    eV*rad^-3 
--------------------------------------------------------------------------------
Si    core    Harmonic      Three-body cnst  1.2614000    eV*rad^-2 0.000  1.900
õ(2   shel                  Three-body angl  109.47000    degrees   0.000  1.900
õ(2   shel                  Three-body k4    0.0000000    eV*rad^-4 0.000  3.500
                            Three-body k3    0.0000000    eV*rad^-3 
--------------------------------------------------------------------------------

********************************************************************************
*  Output for configuration   1 : c00898.vasp                                  *
********************************************************************************


  Components of energy : 

--------------------------------------------------------------------------------
  Interatomic potentials     =         768.34319372 eV    
  Three-body potentials      =           0.01170929 eV    
  Monopole - monopole (real) =       -2676.00317478 eV    
  Monopole - monopole (recip)=       -1115.35404472 eV    
  Monopole - monopole (total)=       -3791.35721950 eV    
--------------------------------------------------------------------------------
  Total lattice energy       =       -3023.00231650 eV    
--------------------------------------------------------------------------------
  Total lattice energy       =         -291673.5127 kJ/(mole unit cells)
--------------------------------------------------------------------------------


  Number of variables =      363

  Maximum number of calculations  =          1000
  Maximum Hessian update interval =            10
  Maximum step size               =   0.100000000
  Maximum parameter tolerance     =   0.000010000
  Maximum function  tolerance     =   0.000010000
  Maximum gradient  tolerance     =   0.001000000
  Maximum gradient  component     =   0.010000000

  Symmetry not applied to optimisation

  Cell parameters to be optimised using strains

  Newton-Raphson optimiser to be used

  BFGS hessian update to be used

  Lower half triangular hessian to be used

  Minimiser to switch to RFO
  When gradient norm is less than     0.050000

  Dumpfile to be written after every cycle

  Start of bulk optimisation :

  Cycle:      0 Energy:     -3023.002316  Gnorm:      4.535635  CPU:    0.108
  ** Hessian calculated **
  Cycle:      1 Energy:     -3054.233661  Gnorm:      1.021785  CPU:    0.245
  ** Hessian calculated **
  Cycle:      2 Energy:     -3060.082080  Gnorm:      0.316505  CPU:    0.498
  ** Hessian calculated **
  Cycle:      3 Energy:     -3060.709212  Gnorm:      0.186291  CPU:    0.692
  ** Hessian calculated **
  Cycle:      4 Energy:     -3060.799527  Gnorm:      0.114456  CPU:    0.928
  Cycle:      5 Energy:     -3060.837667  Gnorm:      0.080001  CPU:    1.036
  Cycle:      6 Energy:     -3060.874988  Gnorm:      0.061954  CPU:    1.172
  Cycle:      7 Energy:     -3060.909522  Gnorm:      0.050690  CPU:    1.322
  Cycle:      8 Energy:     -3060.931486  Gnorm:      0.041149  CPU:    1.449
  ** Hessian has required structure
  Cycle:      9 Energy:     -3060.936512  Gnorm:      0.053402  CPU:    1.611
  ** Hessian has required structure
  Cycle:     10 Energy:     -3060.940295  Gnorm:      0.055852  CPU:    1.775
  ** Hessian has required structure
  Cycle:     11 Energy:     -3060.944369  Gnorm:      0.058628  CPU:    1.937
  ** Hessian has required structure
  Cycle:     12 Energy:     -3060.948642  Gnorm:      0.046402  CPU:    2.100
  ** Hessian has required structure
  Cycle:     13 Energy:     -3060.952642  Gnorm:      0.050453  CPU:    2.262
  ** Hessian has wrong structure
  ** Imaginary eigenvectors =   3
  Cycle:     14 Energy:     -3060.968368  Gnorm:      0.050758  CPU:    2.796
  ** Hessian has wrong structure
  ** Imaginary eigenvectors =   2
  Cycle:     15 Energy:     -3061.028211  Gnorm:      0.059167  CPU:    3.305
  ** Hessian has required structure
  Cycle:     16 Energy:     -3061.132654  Gnorm:      0.051731  CPU:    3.604
  ** Hessian has required structure
  Cycle:     17 Energy:     -3061.239913  Gnorm:      0.032119  CPU:    3.789
  ** Hessian has required structure
  Cycle:     18 Energy:     -3061.279291  Gnorm:      0.048962  CPU:    3.976
  ** Hessian has required structure
  Cycle:     19 Energy:     -3061.308000  Gnorm:      0.032159  CPU:    4.162
  ** Hessian has required structure
  Cycle:     20 Energy:     -3061.328279  Gnorm:      0.025661  CPU:    4.348
  ** Hessian has required structure
  Cycle:     21 Energy:     -3061.338491  Gnorm:      0.017998  CPU:    4.508
  ** Hessian has required structure
  Cycle:     22 Energy:     -3061.348760  Gnorm:      0.016173  CPU:    4.692
  ** Hessian has required structure
  Cycle:     23 Energy:     -3061.353501  Gnorm:      0.011962  CPU:    4.876
  ** Hessian has required structure
  Cycle:     24 Energy:     -3061.356419  Gnorm:      0.008963  CPU:    5.061
  ** Hessian has required structure
  Cycle:     25 Energy:     -3061.357897  Gnorm:      0.007265  CPU:    5.243
  ** Hessian has required structure
  Cycle:     26 Energy:     -3061.360059  Gnorm:      0.003660  CPU:    5.539
  ** Hessian has required structure
  Cycle:     27 Energy:     -3061.360592  Gnorm:      0.001845  CPU:    5.744
  ** Hessian has required structure
  Cycle:     28 Energy:     -3061.360727  Gnorm:      0.000929  CPU:    5.950
  ** Hessian has required structure
  Cycle:     29 Energy:     -3061.360760  Gnorm:      0.000443  CPU:    6.155
  ** Hessian has required structure
  Cycle:     30 Energy:     -3061.360767  Gnorm:      0.000246  CPU:    6.338
  ** Hessian has required structure
  Cycle:     31 Energy:     -3061.360768  Gnorm:      0.000191  CPU:    6.497
  ** Hessian has required structure
  Cycle:     32 Energy:     -3061.360768  Gnorm:      0.000178  CPU:    6.657
  ** Hessian has required structure
  Cycle:     33 Energy:     -3061.360768  Gnorm:      0.000175  CPU:    6.816
  ** Hessian has required structure
  Cycle:     34 Energy:     -3061.360768  Gnorm:      0.000173  CPU:    6.974
  ** Hessian has required structure
  Cycle:     35 Energy:     -3061.360769  Gnorm:      0.000172  CPU:    7.134
  ** Hessian has required structure
  Cycle:     36 Energy:     -3061.360769  Gnorm:      0.000171  CPU:    7.522
  ** Hessian has required structure
  Cycle:     37 Energy:     -3061.360769  Gnorm:      0.000170  CPU:    7.680
  ** Hessian has required structure
  Cycle:     38 Energy:     -3061.360769  Gnorm:      0.000170  CPU:    7.840
  ** Hessian has required structure
  Cycle:     39 Energy:     -3061.360769  Gnorm:      0.000170  CPU:    7.999
  ** Hessian has required structure
  Cycle:     40 Energy:     -3061.360769  Gnorm:      0.000170  CPU:    8.156
  ** Hessian has required structure
  Cycle:     41 Energy:     -3061.360769  Gnorm:      0.000170  CPU:    8.315
  ** Hessian has required structure
  Cycle:     42 Energy:     -3061.360769  Gnorm:      0.000170  CPU:    8.474
  ** Hessian has required structure
  Cycle:     43 Energy:     -3061.360769  Gnorm:      0.000170  CPU:    8.632
  ** Hessian has required structure
  Cycle:     44 Energy:     -3061.360769  Gnorm:      0.000170  CPU:    8.790
  ** Hessian has required structure
  Cycle:     45 Energy:     -3061.360768  Gnorm:      0.000171  CPU:    9.063
  ** Hessian has required structure
  Cycle:     46 Energy:     -3061.360768  Gnorm:      0.000120  CPU:    9.310
  ** Hessian has required structure


  **** Optimisation achieved ****


  Final energy =   -3061.36076878 eV      
  Final Gnorm  =       0.00008375

  Components of energy : 

--------------------------------------------------------------------------------
  Interatomic potentials     =         815.07122099 eV    
  Three-body potentials      =           0.18242751 eV    
  Monopole - monopole (real) =       -2166.91232311 eV    
  Monopole - monopole (recip)=       -1709.70209417 eV    
  Monopole - monopole (total)=       -3876.61441728 eV    
--------------------------------------------------------------------------------
  Total lattice energy       =       -3061.36076878 eV    
--------------------------------------------------------------------------------
  Total lattice energy       =         -295374.5170 kJ/(mole unit cells)
--------------------------------------------------------------------------------

  Final fractional coordinates of atoms :

--------------------------------------------------------------------------------
   No.  Atomic        x           y          z          Radius
        Label       (Frac)      (Frac)     (Frac)       (Angs) 
--------------------------------------------------------------------------------
     1  Ge    c     0.556730    0.000000    0.122130    0.000000
     2  Ge    c     0.165504    0.259251    0.293237    0.000000
     3  Ge    c     0.331318    0.722156    0.296771    0.000000
     4  Ge    c     0.169380    0.261845    0.974719    0.000000
     5  Si    c     0.045405    0.978732    0.373855    0.000000
     6  Si    c     0.451101    0.004118    0.380015    0.000000
     7  Si    c     0.944467    0.973359    0.628771    0.000000
     8  Si    c     0.548849    0.998735    0.637462    0.000000
     9  Si    c     0.949487    0.997955    0.112655    0.000000
    10  Si    c     0.444423    0.996781    0.881069    0.000000
    11  Si    c     0.057684    0.979951    0.871043    0.000000
    12  Si    c     0.832639    0.271694    0.728668    0.000000
    13  Si    c     0.662607    0.705809    0.736120    0.000000
    14  Si    c     0.841314    0.674520    0.721852    0.000000
    15  Si    c     0.653907    0.299303    0.739206    0.000000
    16  Si    c     0.150112    0.671201    0.290944    0.000000
    17  Si    c     0.347223    0.310246    0.298493    0.000000
    18  Si    c     0.656226    0.316028    0.042830    0.000000
    19  Si    c     0.852812    0.680445    0.026440    0.000000
    20  Si    c     0.351981    0.313977    0.990419    0.000000
    21  Si    c     0.152794    0.667399    0.982734    0.000000
    22  Si    c     0.332974    0.716072    0.986537    0.000000
    23  Si    c     0.673610    0.715855    0.039462    0.000000
    24  Si    c     0.835667    0.283792    0.034144    0.000000
    25  O3    c     0.111094    0.125119    0.391834    0.000000
    26  O3    c     0.384758    0.858584    0.396394    0.000000
    27  O2    c     0.885529    0.136835    0.647340    0.000000
    28  O2    c     0.606911    0.833092    0.653597    0.000000
    29  O2    c     0.896592    0.792189    0.632815    0.000000
    30  O2    c     0.594804    0.180762    0.656696    0.000000
    31  O2    c     0.085373    0.786676    0.366219    0.000000
    32  O2    c     0.411420    0.197320    0.376972    0.000000
    33  O2    c     0.982669    0.986798    0.487933    0.000000
    34  O2    c     0.516444    0.995737    0.491161    0.000000
    35  O2    c     0.001387    0.020345    0.239495    0.000000
    36  O3    c     0.492269    0.963173    0.243438    0.000000
    37  O2    c     0.013376    0.972367    0.734246    0.000000
    38  O2    c     0.474778    0.989874    0.732821    0.000000
    39  O3    c     0.597566    0.207570    0.129783    0.000000
    40  O2    c     0.913215    0.802571    0.104427    0.000000
    41  O2    c     0.416456    0.195309    0.916963    0.000000
    42  O2    c     0.093245    0.789074    0.903692    0.000000
    43  O2    c     0.374934    0.855455    0.893391    0.000000
    44  O3    c     0.125650    0.121188    0.865057    0.000000
    45  O3    c     0.633398    0.852063    0.133895    0.000000
    46  O2    c     0.881099    0.143080    0.120997    0.000000
    47  O3    c     0.513969    0.945651    0.975599    0.000000
    48  O2    c     0.000227    0.042874    0.986183    0.000000
    49  O3    c     0.150115    0.474984    0.342531    0.000000
    50  O3    c     0.346794    0.508591    0.348042    0.000000
    51  O2    c     0.858645    0.469429    0.693535    0.000000
    52  O2    c     0.635575    0.504552    0.714207    0.000000
    53  O3    c     0.263955    0.219080    0.314286    0.000000
    54  O3    c     0.232993    0.764230    0.311696    0.000000
    55  O2    c     0.741504    0.250218    0.693703    0.000000
    56  O2    c     0.751842    0.722048    0.688572    0.000000
    57  O1    c     0.142874    0.222454    0.132433    0.000000
    58  O3    c     0.357151    0.751955    0.135287    0.000000
    59  O2    c     0.843664    0.233644    0.881712    0.000000
    60  O2    c     0.658910    0.763049    0.887398    0.000000
    61  O2    c     0.860922    0.719040    0.872533    0.000000
    62  O2    c     0.642505    0.257000    0.891925    0.000000
    63  O2    c     0.131112    0.664214    0.135818    0.000000
    64  O2    c     0.369524    0.308145    0.144813    0.000000
    65  O2    c     0.639190    0.521744    0.063785    0.000000
    66  O2    c     0.872301    0.477162    0.057447    0.000000
    67  O2    c     0.356878    0.516760    0.944407    0.000000
    68  O3    c     0.146545    0.473410    0.926798    0.000000
    69  O2    c     0.746225    0.277885    0.078638    0.000000
    70  O2    c     0.765342    0.721310    0.071051    0.000000
    71  O3    c     0.268583    0.234162    0.960590    0.000000
    72  O2    c     0.240351    0.742019    0.969601    0.000000
    73  O3    s     0.109013    0.121538    0.382003    0.000000
    74  O3    s     0.386852    0.861576    0.386552    0.000000
    75  O2    s     0.885948    0.134300    0.654568    0.000000
    76  O2    s     0.606875    0.836759    0.661105    0.000000
    77  O2    s     0.895582    0.798658    0.642367    0.000000
    78  O2    s     0.596495    0.174302    0.663967    0.000000
    79  O2    s     0.088100    0.794641    0.358941    0.000000
    80  O2    s     0.408722    0.189202    0.368953    0.000000
    81  O2    s     0.985495    0.984331    0.491171    0.000000
    82  O2    s     0.512734    0.997003    0.495215    0.000000
    83  O2    s     0.000171    0.013038    0.239421    0.000000
    84  O3    s     0.493899    0.970699    0.246400    0.000000
    85  O2    s     0.010740    0.973376    0.738128    0.000000
    86  O2    s     0.479477    0.991611    0.738647    0.000000
    87  O3    s     0.600382    0.202317    0.120200    0.000000
    88  O2    s     0.910406    0.809760    0.096669    0.000000
    89  O2    s     0.412415    0.187620    0.921226    0.000000
    90  O2    s     0.096047    0.796092    0.909030    0.000000
    91  O2    s     0.377690    0.855243    0.902264    0.000000
    92  O3    s     0.122351    0.118448    0.874694    0.000000
    93  O3    s     0.631637    0.849045    0.122713    0.000000
    94  O2    s     0.883346    0.143286    0.110237    0.000000
    95  O3    s     0.510242    0.955501    0.977917    0.000000
    96  O2    s     0.000868    0.031271    0.987636    0.000000
    97  O3    s     0.151335    0.478124    0.333294    0.000000
    98  O3    s     0.345601    0.505232    0.338839    0.000000
    99  O2    s     0.853998    0.470463    0.700316    0.000000
   100  O2    s     0.640418    0.503960    0.719205    0.000000
   101  O3    s     0.264298    0.231130    0.311073    0.000000
   102  O3    s     0.232907    0.751911    0.308478    0.000000
   103  O2    s     0.742017    0.257704    0.702210    0.000000
   104  O2    s     0.751913    0.715203    0.697166    0.000000
   105  O1    s     0.146699    0.228296    0.132532    0.000000
   106  O3    s     0.352690    0.746073    0.133409    0.000000
   107  O2    s     0.841594    0.243135    0.881443    0.000000
   108  O2    s     0.660846    0.752044    0.886869    0.000000
   109  O2    s     0.857987    0.710285    0.872901    0.000000
   110  O2    s     0.645106    0.267389    0.891192    0.000000
   111  O2    s     0.135393    0.665273    0.135592    0.000000
   112  O2    s     0.365382    0.308985    0.144151    0.000000
   113  O2    s     0.644675    0.519695    0.058926    0.000000
   114  O2    s     0.866416    0.478522    0.051712    0.000000
   115  O2    s     0.353909    0.516032    0.953507    0.000000
   116  O3    s     0.149021    0.476714    0.936482    0.000000
   117  O2    s     0.746410    0.282641    0.069934    0.000000
   118  O2    s     0.765160    0.716084    0.062617    0.000000
   119  O3    s     0.269082    0.244726    0.964847    0.000000
   120  O2    s     0.241035    0.731427    0.972843    0.000000
--------------------------------------------------------------------------------

  Final Cartesian lattice vectors (Angstroms) :

       17.173045    0.043839   -0.023957
        0.018788    7.606724   -0.028613
       -0.014954   -0.038747   10.234765


  Final cell parameters and derivatives :

--------------------------------------------------------------------------------
       a           17.173117 Angstrom     dE/de1(xx)     0.001017 eV/strain
       b            7.606801 Angstrom     dE/de2(yy)    -0.000218 eV/strain
       c           10.234849 Angstrom     dE/de3(zz)     0.002825 eV/strain
       alpha       90.432638 Degrees      dE/de4(yz)     0.000199 eV/strain
       beta        90.164198 Degrees      dE/de5(xz)    -0.000420 eV/strain
       gamma       89.711919 Degrees      dE/de6(xy)     0.000408 eV/strain
--------------------------------------------------------------------------------

  Primitive cell volume =          1336.943409 Angs**3

  Density of cell =      2.012437 g/cm**3

  Non-primitive cell volume =          1336.943409 Angs**3


  Final internal derivatives :

--------------------------------------------------------------------------------
   No.  Atomic          a             b             c           Radius
        Label          (eV)          (eV)          (eV)        (eV/Angs)
--------------------------------------------------------------------------------
      1 Ge    c       0.000000      0.000000      0.000000      0.000000
      2 Ge    c       0.000915      0.000144      0.000554      0.000000
      3 Ge    c      -0.000795     -0.000379      0.000756      0.000000
      4 Ge    c       0.001116      0.000484     -0.000345      0.000000
      5 Si    c       0.003018     -0.000856      0.000434      0.000000
      6 Si    c      -0.001993      0.000084     -0.000060      0.000000
      7 Si    c      -0.001502     -0.000068      0.000443      0.000000
      8 Si    c       0.002242     -0.000243     -0.001339      0.000000
      9 Si    c      -0.003958      0.000645      0.001498      0.000000
     10 Si    c      -0.003303      0.001100      0.001648      0.000000
     11 Si    c       0.004051     -0.000685      0.000340      0.000000
     12 Si    c      -0.000245     -0.000650     -0.001342      0.000000
     13 Si    c       0.000910      0.000639     -0.000485      0.000000
     14 Si    c      -0.000826      0.000580     -0.000438      0.000000
     15 Si    c       0.000283      0.000130     -0.000229      0.000000
     16 Si    c       0.002147      0.000269      0.000735      0.000000
     17 Si    c      -0.002341     -0.000330      0.001263      0.000000
     18 Si    c      -0.004092     -0.002240      0.002104      0.000000
     19 Si    c       0.002604      0.001273      0.000723      0.000000
     20 Si    c      -0.000341     -0.000452     -0.001574      0.000000
     21 Si    c       0.000868      0.000181     -0.000540      0.000000
     22 Si    c      -0.000913     -0.000562     -0.001193      0.000000
     23 Si    c      -0.005532      0.002131      0.000488      0.000000
     24 Si    c       0.004921     -0.002359      0.001201      0.000000
     25 O3    c      -0.001989     -0.001025     -0.000214      0.000000
     26 O3    c       0.006400      0.002826     -0.000961      0.000000
     27 O2    c      -0.000809      0.000130      0.000237      0.000000
     28 O2    c       0.000044      0.000362      0.000257      0.000000
     29 O2    c       0.000175     -0.000049      0.000109      0.000000
     30 O2    c      -0.000498     -0.000346      0.000147      0.000000
     31 O2    c      -0.000981      0.001364     -0.000247      0.000000
     32 O2    c       0.001267     -0.002291     -0.000421      0.000000
     33 O2    c      -0.002136      0.000422     -0.000926      0.000000
     34 O2    c      -0.001820      0.000011     -0.001035      0.000000
     35 O2    c       0.001681      0.000792     -0.000719      0.000000
     36 O3    c      -0.006091      0.000296      0.005329      0.000000
     37 O2    c       0.000358      0.000120     -0.000816      0.000000
     38 O2    c       0.000471     -0.000131     -0.000322      0.000000
     39 O3    c       0.003162      0.001916     -0.004151      0.000000
     40 O2    c      -0.001986     -0.000907     -0.001418      0.000000
     41 O2    c       0.000768     -0.003138     -0.000145      0.000000
     42 O2    c      -0.001377      0.001240      0.000151      0.000000
     43 O2    c       0.002741      0.000865      0.000534      0.000000
     44 O3    c      -0.003007     -0.001495     -0.000140      0.000000
     45 O3    c      -0.002109      0.002926     -0.000384      0.000000
     46 O2    c       0.000071     -0.000645     -0.000714      0.000000
     47 O3    c      -0.004416      0.001035     -0.002083      0.000000
     48 O2    c      -0.000213      0.001626     -0.001745      0.000000
     49 O3    c       0.001419      0.000939     -0.000225      0.000000
     50 O3    c      -0.001966     -0.000026     -0.000512      0.000000
     51 O2    c       0.000565      0.000293     -0.001080      0.000000
     52 O2    c      -0.000446     -0.001268     -0.000490      0.000000
     53 O3    c       0.003852      0.001192     -0.000557      0.000000
     54 O3    c      -0.003962     -0.001129     -0.000310      0.000000
     55 O2    c      -0.002394     -0.000336     -0.000367      0.000000
     56 O2    c       0.000164      0.000002     -0.000373      0.000000
     57 O1    c      -0.000338     -0.000300     -0.000119      0.000000
     58 O3    c       0.000616      0.000010      0.000647      0.000000
     59 O2    c       0.002997     -0.000469     -0.000905      0.000000
     60 O2    c      -0.000992      0.000300      0.000466      0.000000
     61 O2    c       0.001068      0.000203      0.000294      0.000000
     62 O2    c      -0.001580     -0.000356     -0.000946      0.000000
     63 O2    c      -0.000627     -0.000099      0.000248      0.000000
     64 O2    c       0.000284      0.000209     -0.000119      0.000000
     65 O2    c      -0.003102     -0.001118      0.001910      0.000000
     66 O2    c       0.002849      0.002554      0.001952      0.000000
     67 O2    c      -0.001252      0.000670      0.000626      0.000000
     68 O3    c       0.001542     -0.000763      0.000274      0.000000
     69 O2    c      -0.007074     -0.001260      0.001461      0.000000
     70 O2    c       0.006951      0.001342      0.001116      0.000000
     71 O3    c       0.001224      0.000481      0.000673      0.000000
     72 O2    c       0.001365     -0.000226      0.000203      0.000000
     73 O3    s       0.001228      0.000453     -0.000360      0.000000
     74 O3    s      -0.001255     -0.000354     -0.000152      0.000000
     75 O2    s       0.001114     -0.000234     -0.000221      0.000000
     76 O2    s      -0.001167      0.000256     -0.000382      0.000000
     77 O2    s      -0.000172     -0.000058     -0.000779      0.000000
     78 O2    s      -0.000359      0.000234     -0.000304      0.000000
     79 O2    s       0.000821     -0.000764     -0.000143      0.000000
     80 O2    s       0.000662     -0.000481     -0.000790      0.000000
     81 O2    s       0.001099     -0.000162     -0.000290      0.000000
     82 O2    s      -0.001946     -0.000243     -0.000788      0.000000
     83 O2    s       0.001342     -0.000185      0.000217      0.000000
     84 O3    s       0.000992      0.000459     -0.001096      0.000000
     85 O2    s       0.002339     -0.000097      0.000630      0.000000
     86 O2    s      -0.001443      0.000280      0.001176      0.000000
     87 O3    s      -0.001870     -0.001609      0.002814      0.000000
     88 O2    s       0.000690      0.000484      0.000122      0.000000
     89 O2    s       0.002751     -0.000517      0.001890      0.000000
     90 O2    s      -0.000492     -0.000225     -0.000019      0.000000
     91 O2    s       0.000226      0.000735      0.000822      0.000000
     92 O3    s       0.001135      0.000969      0.001031      0.000000
     93 O3    s      -0.002260     -0.000551      0.000759      0.000000
     94 O2    s       0.001446     -0.001024      0.001225      0.000000
     95 O3    s      -0.003369      0.000377      0.000369      0.000000
     96 O2    s       0.002117     -0.001233      0.000084      0.000000
     97 O3    s      -0.001300     -0.000210     -0.000028      0.000000
     98 O3    s       0.002048     -0.000104      0.000470      0.000000
     99 O2    s       0.002782      0.000371     -0.001556      0.000000
    100 O2    s      -0.002770     -0.000170     -0.000886      0.000000
    101 O3    s      -0.001651     -0.000280     -0.000261      0.000000
    102 O3    s       0.002337      0.000467     -0.000030      0.000000
    103 O2    s      -0.001455     -0.001225     -0.001227      0.000000
    104 O2    s       0.000779      0.001323     -0.001362      0.000000
    105 O1    s       0.000600      0.000084     -0.000326      0.000000
    106 O3    s      -0.000846      0.000194     -0.000819      0.000000
    107 O2    s       0.003795     -0.001469     -0.001331      0.000000
    108 O2    s      -0.004125      0.001711     -0.001451      0.000000
    109 O2    s       0.001607      0.001002      0.000398      0.000000
    110 O2    s      -0.000516     -0.001040     -0.000861      0.000000
    111 O2    s       0.000418      0.000136      0.000459      0.000000
    112 O2    s      -0.000421     -0.000870     -0.000135      0.000000
    113 O2    s      -0.002935     -0.000840      0.001354      0.000000
    114 O2    s       0.003754      0.000716      0.001646      0.000000
    115 O2    s       0.001358      0.000042     -0.000269      0.000000
    116 O3    s      -0.001805     -0.000170     -0.000072      0.000000
    117 O2    s      -0.000881     -0.001486      0.002525      0.000000
    118 O2    s       0.001342      0.001561      0.001665      0.000000
    119 O3    s      -0.000591     -0.000268     -0.000049      0.000000
    120 O2    s       0.000866      0.000380     -0.000287      0.000000
--------------------------------------------------------------------------------
  Maximum abs         0.007074      0.003138      0.005329      0.000000
--------------------------------------------------------------------------------


  Born effective charge tensors : 

-------------------------------------------------------------------------------
  Atom             x           y             z
-------------------------------------------------------------------------------
    1 Ge    x       4.3059      0.2759     -0.0722
            y      -0.1811      3.8997     -0.0289
            z      -0.7758     -0.0928      3.7059
-------------------------------------------------------------------------------
    2 Ge    x       4.0228      0.2942     -0.2149
            y       0.3428      4.1979     -0.0882
            z      -0.0328     -0.1008      3.5205
-------------------------------------------------------------------------------
    3 Ge    x       3.9738      0.2579      0.2986
            y       0.3004      4.1628      0.1287
            z       0.0695      0.1217      3.4888
-------------------------------------------------------------------------------
    4 Ge    x       4.0659      0.3278      0.2834
            y       0.2433      4.2075      0.1094
            z       0.0565      0.1075      3.4148
-------------------------------------------------------------------------------
    5 Si    x       3.6249      0.0154     -0.0440
            y       0.3019      3.3448      0.0751
            z      -0.6215     -0.0243      3.7932
-------------------------------------------------------------------------------
    6 Si    x       3.7472     -0.0167     -0.1083
            y       0.2729      3.3882     -0.0563
            z       0.5404      0.0606      4.0704
-------------------------------------------------------------------------------
    7 Si    x       3.4392      0.0433     -0.2792
            y      -0.0840      3.2489      0.0256
            z      -0.3572     -0.0775      3.7558
-------------------------------------------------------------------------------
    8 Si    x       3.4393      0.0397      0.3438
            y      -0.0758      3.2667     -0.0081
            z       0.2706      0.0000      3.7355
-------------------------------------------------------------------------------
    9 Si    x       3.4424      0.1671      0.1325
            y      -0.1907      3.2410      0.0434
            z       0.5472      0.0444      3.0612
-------------------------------------------------------------------------------
   10 Si    x       3.7524     -0.2113     -0.2234
            y       0.1511      3.2931      0.0017
            z      -0.2432     -0.0349      3.2728
-------------------------------------------------------------------------------
   11 Si    x       3.7297      0.0317      0.2527
            y       0.3459      3.3841     -0.1065
            z       0.4460      0.0445      3.1697
-------------------------------------------------------------------------------
   12 Si    x       3.1871     -0.3026     -0.1158
            y      -0.2200      3.4748      0.1429
            z      -0.1435      0.0895      2.8120
-------------------------------------------------------------------------------
   13 Si    x       3.2225     -0.3006      0.1030
            y      -0.2251      3.4828     -0.1801
            z       0.1469     -0.0616      2.7741
-------------------------------------------------------------------------------
   14 Si    x       3.1681      0.2264     -0.0870
            y       0.2587      3.4281     -0.1842
            z      -0.0953     -0.0837      2.8103
-------------------------------------------------------------------------------
   15 Si    x       3.2073      0.2236      0.0627
            y       0.2654      3.4486      0.1933
            z       0.1169      0.0720      2.7812
-------------------------------------------------------------------------------
   16 Si    x       3.5631      0.0477     -0.1230
            y      -0.2431      3.8288     -0.0364
            z      -0.0759      0.0737      2.9777
-------------------------------------------------------------------------------
   17 Si    x       3.5493      0.0526      0.1047
            y      -0.2256      3.8403     -0.0006
            z       0.0694     -0.0907      2.9778
-------------------------------------------------------------------------------
   18 Si    x       3.4937      0.4022     -0.2876
            y       0.4226      3.5009     -0.3203
            z      -0.3117     -0.1366      2.8766
-------------------------------------------------------------------------------
   19 Si    x       3.2149      0.2737      0.1209
            y       0.2981      3.4045      0.1415
            z       0.1731      0.0578      2.7158
-------------------------------------------------------------------------------
   20 Si    x       3.6110     -0.0148     -0.0658
            y      -0.2351      3.5345      0.1076
            z      -0.0775      0.1771      2.7795
-------------------------------------------------------------------------------
   21 Si    x       3.3938     -0.1120      0.2260
            y      -0.2790      3.7046      0.0681
            z       0.1473     -0.0589      2.8288
-------------------------------------------------------------------------------
   22 Si    x       3.3509      0.2663     -0.1813
            y       0.1694      3.5280     -0.0638
            z       0.0224     -0.0813      3.0558
-------------------------------------------------------------------------------
   23 Si    x       3.3507     -0.4727     -0.2807
            y      -0.2239      3.6188      0.3677
            z      -0.2032      0.2062      2.9056
-------------------------------------------------------------------------------
   24 Si    x       3.1733     -0.3228      0.1410
            y      -0.1174      3.4464     -0.1645
            z       0.1177     -0.0667      2.7135
-------------------------------------------------------------------------------
   25 O3    x      -2.1971     -0.9422      0.2990
            y      -1.0155     -2.2601      0.2976
            z       0.3528      0.2946     -1.5362
-------------------------------------------------------------------------------
   26 O3    x      -2.1710     -0.9322     -0.3330
            y      -1.0030     -2.2651     -0.3238
            z      -0.3963     -0.3247     -1.5559
-------------------------------------------------------------------------------
   27 O2    x      -1.7191      0.7346      0.3632
            y       0.7648     -2.0087     -0.3888
            z       0.3908     -0.3698     -1.3522
-------------------------------------------------------------------------------
   28 O2    x      -1.7536      0.7432     -0.3812
            y       0.7647     -1.9870      0.3823
            z      -0.3820      0.3570     -1.3472
-------------------------------------------------------------------------------
   29 O2    x      -1.6390     -0.6913      0.3394
            y      -0.6693     -1.9677      0.3386
            z       0.3566      0.3418     -1.3682
-------------------------------------------------------------------------------
   30 O2    x      -1.6863     -0.7175     -0.3700
            y      -0.6907     -1.9907     -0.3770
            z      -0.3582     -0.3489     -1.3461
-------------------------------------------------------------------------------
   31 O2    x      -1.6938      0.6660      0.3052
            y       0.6383     -1.9216     -0.2954
            z       0.3487     -0.2915     -1.3548
-------------------------------------------------------------------------------
   32 O2    x      -1.6706      0.6329     -0.3117
            y       0.6133     -1.9228      0.3179
            z      -0.3676      0.3143     -1.3806
-------------------------------------------------------------------------------
   33 O2    x      -1.6487      0.0161      0.7972
            y      -0.0063     -1.0808     -0.0041
            z       1.0212      0.0143     -2.6730
-------------------------------------------------------------------------------
   34 O2    x      -1.6589      0.0433     -0.7802
            y       0.0158     -1.0911      0.0364
            z      -0.9560      0.0573     -2.6454
-------------------------------------------------------------------------------
   35 O2    x      -1.6298      0.0176     -0.6977
            y       0.0289     -1.1457      0.0493
            z      -0.6583      0.0614     -2.2740
-------------------------------------------------------------------------------
   36 O3    x      -2.0034      0.0022      0.9305
            y       0.0239     -1.2764     -0.0601
            z       0.9315     -0.0432     -2.7822
-------------------------------------------------------------------------------
   37 O2    x      -1.7761      0.0152     -0.7102
            y      -0.0146     -1.0983      0.0139
            z      -0.6992      0.0131     -2.1572
-------------------------------------------------------------------------------
   38 O2    x      -1.7641      0.0148      0.6751
            y      -0.0338     -1.1053      0.0078
            z       0.6500     -0.0066     -2.1441
-------------------------------------------------------------------------------
   39 O3    x      -2.0410     -0.9319      0.4735
            y      -0.8553     -2.3635      0.4621
            z       0.5594      0.4665     -1.4853
-------------------------------------------------------------------------------
   40 O2    x      -1.6681     -0.7001     -0.3064
            y      -0.6219     -2.0345     -0.3297
            z      -0.3609     -0.3242     -1.2032
-------------------------------------------------------------------------------
   41 O2    x      -1.6686      0.6580      0.3864
            y       0.5267     -2.0454     -0.4231
            z       0.3371     -0.4024     -1.2637
-------------------------------------------------------------------------------
   42 O2    x      -1.7247      0.6576     -0.4033
            y       0.6093     -1.9435      0.4177
            z      -0.3748      0.3730     -1.2728
-------------------------------------------------------------------------------
   43 O2    x      -1.7840     -0.7060      0.4077
            y      -0.6734     -1.9179      0.3769
            z       0.3441      0.3748     -1.2811
-------------------------------------------------------------------------------
   44 O3    x      -2.2049     -0.9402     -0.4030
            y      -0.9477     -2.2570     -0.3916
            z      -0.3448     -0.3606     -1.4378
-------------------------------------------------------------------------------
   45 O3    x      -2.0873      0.9217      0.4065
            y       0.9274     -2.2883     -0.5126
            z       0.4667     -0.4793     -1.5177
-------------------------------------------------------------------------------
   46 O2    x      -1.7471      0.7015     -0.2674
            y       0.7093     -1.9109      0.2936
            z      -0.3254      0.2983     -1.2271
-------------------------------------------------------------------------------
   47 O3    x      -2.2428      0.1004     -0.8310
            y       0.1054     -1.3420      0.0473
            z      -0.4922      0.0041     -2.0272
-------------------------------------------------------------------------------
   48 O2    x      -1.7537      0.0415      0.5811
            y       0.0352     -1.2197     -0.0301
            z       0.3215     -0.0457     -1.7324
-------------------------------------------------------------------------------
   49 O3    x      -1.2731      0.1018      0.0804
            y       0.1675     -3.1795      0.1371
            z       0.0473      0.1676     -1.2840
-------------------------------------------------------------------------------
   50 O3    x      -1.2645      0.1184     -0.0824
            y       0.1762     -3.1750     -0.0838
            z      -0.0495     -0.1013     -1.2958
-------------------------------------------------------------------------------
   51 O2    x      -1.1487     -0.0432      0.0641
            y      -0.0706     -2.5532      0.0394
            z       0.0780      0.0112     -1.0750
-------------------------------------------------------------------------------
   52 O2    x      -1.1698     -0.0502     -0.0488
            y      -0.0731     -2.5951      0.0170
            z      -0.0692      0.0275     -1.0460
-------------------------------------------------------------------------------
   53 O3    x      -3.0173     -0.2740      0.0155
            y      -0.1883     -1.4989      0.0603
            z       0.0159      0.0842     -1.1642
-------------------------------------------------------------------------------
   54 O3    x      -3.0018     -0.2672     -0.0612
            y      -0.1672     -1.4870     -0.0635
            z      -0.0274     -0.0855     -1.1777
-------------------------------------------------------------------------------
   55 O2    x      -2.3830      0.0877      0.0488
            y       0.0344     -1.2523     -0.0725
            z       0.0176     -0.0498     -1.0706
-------------------------------------------------------------------------------
   56 O2    x      -2.3794      0.0998      0.0601
            y       0.0471     -1.2458      0.0695
            z       0.0493      0.0407     -1.0740
-------------------------------------------------------------------------------
   57 O1    x      -1.4854     -0.1593      0.0087
            y      -0.1621     -1.5078      0.0297
            z       0.0056      0.0107     -2.7449
-------------------------------------------------------------------------------
   58 O3    x      -1.3800     -0.1374     -0.0444
            y      -0.1352     -1.4120     -0.0887
            z      -0.0330     -0.0517     -2.6301
-------------------------------------------------------------------------------
   59 O2    x      -1.1630      0.1248     -0.0582
            y       0.0882     -1.2871     -0.0416
            z      -0.0345     -0.0221     -2.0622
-------------------------------------------------------------------------------
   60 O2    x      -1.1981      0.1383     -0.0392
            y       0.0952     -1.3105      0.0055
            z      -0.0586     -0.0165     -2.0212
-------------------------------------------------------------------------------
   61 O2    x      -1.1911     -0.1278     -0.0728
            y      -0.1273     -1.2694     -0.0117
            z      -0.0937     -0.0032     -2.0663
-------------------------------------------------------------------------------
   62 O2    x      -1.2143     -0.1399     -0.0057
            y      -0.1291     -1.2968     -0.0242
            z       0.0068     -0.0411     -2.0312
-------------------------------------------------------------------------------
   63 O2    x      -1.2559      0.0528      0.0237
            y       0.1064     -1.2503     -0.0010
            z       0.0156      0.0028     -2.1220
-------------------------------------------------------------------------------
   64 O2    x      -1.2288      0.0683      0.0439
            y       0.1188     -1.2647      0.0411
            z       0.0560      0.0444     -2.1336
-------------------------------------------------------------------------------
   65 O2    x      -1.2456     -0.0586      0.0881
            y      -0.1334     -2.4136      0.0177
            z       0.1093      0.0206     -1.0415
-------------------------------------------------------------------------------
   66 O2    x      -1.2205     -0.0670     -0.0784
            y      -0.1504     -2.4909      0.0450
            z      -0.1030      0.0194     -1.0197
-------------------------------------------------------------------------------
   67 O2    x      -1.2207      0.1127      0.0827
            y       0.1956     -2.5432      0.0606
            z       0.0587      0.0381     -1.0768
-------------------------------------------------------------------------------
   68 O3    x      -1.3386      0.0485     -0.1238
            y       0.1348     -3.1470     -0.1636
            z      -0.0798     -0.1630     -1.2267
-------------------------------------------------------------------------------
   69 O2    x      -2.3731      0.1039      0.0256
            y       0.0826     -1.2438      0.0665
            z       0.0255      0.0333     -1.0642
-------------------------------------------------------------------------------
   70 O2    x      -2.3573      0.0704      0.0283
            y       0.0481     -1.2431     -0.0653
            z       0.0297     -0.0405     -1.0548
-------------------------------------------------------------------------------
   71 O3    x      -3.0820     -0.2813     -0.1300
            y      -0.2027     -1.4864     -0.0797
            z      -0.1101     -0.0951     -1.1278
-------------------------------------------------------------------------------
   72 O2    x      -2.5040     -0.1184      0.0192
            y      -0.0588     -1.2786      0.0338
            z      -0.0076      0.0505     -1.0219
-------------------------------------------------------------------------------




  Elastic Constant Matrix: (Units=GPa)

-------------------------------------------------------------------------------
  Indices      1         2         3         4         5         6    
-------------------------------------------------------------------------------
       1     54.5252   28.2952   21.0485   -3.1605    1.1586   -3.1523
       2     28.2952   65.8068   16.3191   -4.0808    2.3089    0.7594
       3     21.0485   16.3191   25.5528   -1.9932    0.6574   -0.5985
       4     -3.1605   -4.0808   -1.9932   11.3815    0.1604    0.1200
       5      1.1586    2.3089    0.6574    0.1604   24.3343   -1.5423
       6     -3.1523    0.7594   -0.5985    0.1200   -1.5423   25.0391
-------------------------------------------------------------------------------


  Elastic Compliance Matrix: (Units=1/GPa)

-------------------------------------------------------------------------------
  Indices      1         2         3         4         5         6    
-------------------------------------------------------------------------------
       1    0.030487 -0.008148 -0.019666  0.002061  0.000068  0.003610
       2   -0.008148  0.020539 -0.006093  0.004077 -0.001544 -0.001909
       3   -0.019666 -0.006093  0.059424  0.002773 -0.000166 -0.000894
       4    0.002061  0.004077  0.002773  0.090401 -0.001175 -0.000304
       5    0.000068 -0.001544 -0.000166 -0.001175  0.041415  0.002608
       6    0.003610 -0.001909 -0.000894 -0.000304  0.002608  0.040591
-------------------------------------------------------------------------------

  Mechanical properties :

-------------------------------------------------------------------------------
  Convention :                    Reuss         Voigt         Hill
-------------------------------------------------------------------------------
  Bulk  Modulus (GPa)     =      23.45311      30.80115      27.12713
  Shear Modulus (GPa)     =      13.70305      17.49910      15.60108
-------------------------------------------------------------------------------
  Velocity S-wave (km/s)  =       2.60944       2.94881       2.78430
  Velocity P-wave (km/s)  =       4.55335       5.18646       4.88018
-------------------------------------------------------------------------------
  Compressibility (1/GPa) =    0.04263826
-------------------------------------------------------------------------------
  Stress axis :                     x             y             z
-------------------------------------------------------------------------------
  Youngs Moduli (GPa)     =      32.80112      48.68720      16.82810
-------------------------------------------------------------------------------
  Poissons Ratio (x)      =                     0.39670       0.33093
  Poissons Ratio (y)      =       0.26726                     0.10253
  Poissons Ratio (z)      =       0.64505       0.29663
-------------------------------------------------------------------------------


  Piezoelectric Strain Matrix: (Units=C/m**2)

-------------------------------------------------------------------------------
  Indices      1         2         3         4         5         6    
-------------------------------------------------------------------------------
       x     0.28172   0.14301  -0.17193   0.37904   0.26636   0.10928
       y    -0.75995  -0.87134  -0.29231  -0.52259   1.22531   0.12651
       z    -0.34724  -0.24752  -1.61195   0.10832   0.00148   0.07237
-------------------------------------------------------------------------------


  Piezoelectric Stress Matrix: (Units=10**-11 C/N)

-------------------------------------------------------------------------------
  Indices      1         2         3         4         5         6    
-------------------------------------------------------------------------------
       x     1.19985   0.26146  -1.57191   3.46062   1.06977   0.59127
       y    -1.08573  -1.41878   0.11173  -5.46498   5.30327   0.76711
       z     2.36151   0.78674  -8.72172   0.35732   0.07489   0.35693
-------------------------------------------------------------------------------


  Static dielectric constant tensor : 

-------------------------------------------------------------------------------
              x         y         z
-------------------------------------------------------------------------------
       x     4.09746   0.08868  -0.05114
       y     0.08868   4.53968  -0.03002
       z    -0.05114  -0.03002   3.21992
--------------------------------------------------------------------------------

  High frequency dielectric constant tensor : 

-------------------------------------------------------------------------------
              x         y         z
-------------------------------------------------------------------------------
       x     1.67519  -0.00027   0.00039
       y    -0.00027   1.68015  -0.00071
       z     0.00039  -0.00071   1.61508
-------------------------------------------------------------------------------

  Static refractive indices : 

-------------------------------------------------------------------------------
    1 =    1.79346      2 =    2.02055      3 =    2.13494
-------------------------------------------------------------------------------

  High frequency refractive indices : 

-------------------------------------------------------------------------------
    1 =    1.27085      2 =    1.29429      3 =    1.29621
-------------------------------------------------------------------------------


  Time to end of optimisation =       9.6591 seconds


  Peak dynamic memory used =       5.01 MB 


  Timing analysis for GULP :

--------------------------------------------------------------------------------
  Task / Subroutine                                          Time (Seconds)
--------------------------------------------------------------------------------
  Calculation of reciprocal space energy and derivatives          0.4933
  Calculation of real space energy and derivatives                6.3558
  Calculation of three-body energy and derivatives                0.4232
  Calculation and manipulation of Hessian matrix                  2.6644
  Calculation of matrix inversion                                 0.0263
--------------------------------------------------------------------------------
  Total CPU time                                                  9.6592
--------------------------------------------------------------------------------


  Dump file written as c00898.vasp.grs
  CIF file written as c00898.vasp.cif


  Job Finished at 14:22.14 31st October    2025                               

