********************************************************************************
*                       GENERAL UTILITY LATTICE PROGRAM                        *
*                                 Julian Gale                                  *
*                       Curtin Institute for Computation                       *
*                    School of Molecular and Life Sciences                     *
*                    Curtin University, Western Australia                      *
********************************************************************************
* Version = 6.1.2 * Last modified =   3rd November 2022                        *
********************************************************************************
*  optimise     - perform optimisation run                                     *
*  conp         - constant pressure calculation                                *
*  property     - calculate properties for final geometry                      *
********************************************************************************

  Job Started  at 14:23.05 31st October    2025                               

  Number of CPUs =     1


  Total number of configurations input =      1

********************************************************************************
*  Input for Configuration =   1 : c00905.vasp                                 *
********************************************************************************

  Formula = Ge4Si20O48                                                  

  Number of irreducible atoms/shells =     120


  Total number atoms/shells =     120

  Dimensionality = 3               :  Bulk   



  Cartesian lattice vectors (Angstroms) :

       17.182800    0.000000    0.000000
        0.000000    7.513760    0.000000
        0.000000    0.000000   10.447700

  Cell parameters (Angstroms/Degrees):

  a =      17.1828    alpha =  90.0000
  b =       7.5138    beta  =  90.0000
  c =      10.4477    gamma =  90.0000

  Initial cell volume =        1348.875752 Angs**3

  Temperature of configuration =   0.00     K 

  Pressure of configuration =         0.000 GPa 

  Fractional coordinates of asymmetric unit :

--------------------------------------------------------------------------------
   No.  Atomic       x           y          z         Charge      Occupancy
        Label      (Frac)      (Frac)     (Frac)        (e)         (Frac)  
--------------------------------------------------------------------------------
      1 Ge    c    0.556730    0.000000    0.122130     4.00000    1.000000    
      2 Ge    c    0.160190 *  0.293910 *  0.273440 *   4.00000    1.000000    
      3 Ge    c    0.839810 *  0.293910 *  0.726560 *   4.00000    1.000000    
      4 Ge    c    0.339810 *  0.293910 *  0.273440 *   4.00000    1.000000    
      5 Si    c    0.052090 *  0.000000 *  0.372270 *   4.00000    1.000000    
      6 Si    c    0.447910 *  0.000000 *  0.372270 *   4.00000    1.000000    
      7 Si    c    0.947910 *  0.000000 *  0.627730 *   4.00000    1.000000    
      8 Si    c    0.552090 *  0.000000 *  0.627730 *   4.00000    1.000000    
      9 Si    c    0.943270 *  0.000000 *  0.122130 *   4.00000    1.000000    
     10 Si    c    0.443270 *  0.000000 *  0.877870 *   4.00000    1.000000    
     11 Si    c    0.056730 *  0.000000 *  0.877870 *   4.00000    1.000000    
     12 Si    c    0.339810 *  0.706090 *  0.273440 *   4.00000    1.000000    
     13 Si    c    0.660190 *  0.706090 *  0.726560 *   4.00000    1.000000    
     14 Si    c    0.839810 *  0.706090 *  0.726560 *   4.00000    1.000000    
     15 Si    c    0.660190 *  0.293910 *  0.726560 *   4.00000    1.000000    
     16 Si    c    0.160190 *  0.706090 *  0.273440 *   4.00000    1.000000    
     17 Si    c    0.660660 *  0.294090 *  0.017440 *   4.00000    1.000000    
     18 Si    c    0.839340 *  0.705910 *  0.017440 *   4.00000    1.000000    
     19 Si    c    0.339340 *  0.294090 *  0.982560 *   4.00000    1.000000    
     20 Si    c    0.160660 *  0.705910 *  0.982560 *   4.00000    1.000000    
     21 Si    c    0.339340 *  0.705910 *  0.982560 *   4.00000    1.000000    
     22 Si    c    0.160660 *  0.294090 *  0.982560 *   4.00000    1.000000    
     23 Si    c    0.660660 *  0.705910 *  0.017440 *   4.00000    1.000000    
     24 Si    c    0.839340 *  0.294090 *  0.017440 *   4.00000    1.000000    
     25 O3    c    0.106570 *  0.174340 *  0.366200 *   1.33043    1.000000    
     26 O2    c    0.393430 *  0.825660 *  0.366200 *   0.87073    1.000000    
     27 O3    c    0.893430 *  0.174340 *  0.633800 *   1.33043    1.000000    
     28 O2    c    0.606570 *  0.825660 *  0.633800 *   0.87073    1.000000    
     29 O2    c    0.893430 *  0.825660 *  0.633800 *   0.87073    1.000000    
     30 O2    c    0.606570 *  0.174340 *  0.633800 *   0.87073    1.000000    
     31 O2    c    0.106570 *  0.825660 *  0.366200 *   0.87073    1.000000    
     32 O3    c    0.393430 *  0.174340 *  0.366200 *   1.33043    1.000000    
     33 O2    c    0.000000 *  0.000000 *  0.500000 *   0.87073    1.000000    
     34 O2    c    0.500000 *  0.000000 *  0.500000 *   0.87073    1.000000    
     35 O2    c    0.994520 *  0.000000 *  0.250840 *   0.87073    1.000000    
     36 O3    c    0.505480 *  0.000000 *  0.250840 *   1.33043    1.000000    
     37 O2    c    0.005480 *  0.000000 *  0.749160 *   0.87073    1.000000    
     38 O2    c    0.494520 *  0.000000 *  0.749160 *   0.87073    1.000000    
     39 O3    c    0.610230 *  0.175520 *  0.115390 *   1.33043    1.000000    
     40 O2    c    0.889770 *  0.824480 *  0.115390 *   0.87073    1.000000    
     41 O2    c    0.389770 *  0.175520 *  0.884610 *   0.87073    1.000000    
     42 O2    c    0.110230 *  0.824480 *  0.884610 *   0.87073    1.000000    
     43 O2    c    0.389770 *  0.824480 *  0.884610 *   0.87073    1.000000    
     44 O2    c    0.110230 *  0.175520 *  0.884610 *   0.87073    1.000000    
     45 O3    c    0.610230 *  0.824480 *  0.115390 *   1.33043    1.000000    
     46 O2    c    0.889770 *  0.175520 *  0.115390 *   0.87073    1.000000    
     47 O3    c    0.500000 *  0.000000 *  0.000000 *   1.33043    1.000000    
     48 O2    c    0.000000 *  0.000000 *  0.000000 *   0.87073    1.000000    
     49 O3    c    0.151750 *  0.500000 *  0.313330 *   1.33043    1.000000    
     50 O3    c    0.348250 *  0.500000 *  0.313330 *   1.33043    1.000000    
     51 O3    c    0.848250 *  0.500000 *  0.686670 *   1.33043    1.000000    
     52 O2    c    0.651750 *  0.500000 *  0.686670 *   0.87073    1.000000    
     53 O1    c    0.250000 *  0.234950 *  0.285720 *   1.73396    1.000000    
     54 O2    c    0.250000 *  0.765050 *  0.285720 *   0.87073    1.000000    
     55 O3    c    0.750000 *  0.234950 *  0.714280 *   1.33043    1.000000    
     56 O2    c    0.750000 *  0.765050 *  0.714280 *   0.87073    1.000000    
     57 O3    c    0.131410 *  0.268650 *  0.127790 *   1.33043    1.000000    
     58 O2    c    0.368590 *  0.731350 *  0.127790 *   0.87073    1.000000    
     59 O3    c    0.868590 *  0.268650 *  0.872210 *   1.33043    1.000000    
     60 O2    c    0.631410 *  0.731350 *  0.872210 *   0.87073    1.000000    
     61 O2    c    0.868590 *  0.731350 *  0.872210 *   0.87073    1.000000    
     62 O2    c    0.631410 *  0.268650 *  0.872210 *   0.87073    1.000000    
     63 O2    c    0.131410 *  0.731350 *  0.127790 *   0.87073    1.000000    
     64 O3    c    0.368590 *  0.268650 *  0.127790 *   1.33043    1.000000    
     65 O2    c    0.653920 *  0.500000 *  0.058200 *   0.87073    1.000000    
     66 O2    c    0.846080 *  0.500000 *  0.058200 *   0.87073    1.000000    
     67 O2    c    0.346080 *  0.500000 *  0.941800 *   0.87073    1.000000    
     68 O2    c    0.153920 *  0.500000 *  0.941800 *   0.87073    1.000000    
     69 O2    c    0.750000 *  0.231060 *  0.027050 *   0.87073    1.000000    
     70 O2    c    0.750000 *  0.768940 *  0.027050 *   0.87073    1.000000    
     71 O2    c    0.250000 *  0.231060 *  0.972950 *   0.87073    1.000000    
     72 O2    c    0.250000 *  0.768940 *  0.972950 *   0.87073    1.000000    
     73 O3    s    0.106570 *  0.174340 *  0.366200 *  -3.33043    1.000000    
     74 O2    s    0.393430 *  0.825660 *  0.366200 *  -2.87073    1.000000    
     75 O3    s    0.893430 *  0.174340 *  0.633800 *  -3.33043    1.000000    
     76 O2    s    0.606570 *  0.825660 *  0.633800 *  -2.87073    1.000000    
     77 O2    s    0.893430 *  0.825660 *  0.633800 *  -2.87073    1.000000    
     78 O2    s    0.606570 *  0.174340 *  0.633800 *  -2.87073    1.000000    
     79 O2    s    0.106570 *  0.825660 *  0.366200 *  -2.87073    1.000000    
     80 O3    s    0.393430 *  0.174340 *  0.366200 *  -3.33043    1.000000    
     81 O2    s    0.000000 *  0.000000 *  0.500000 *  -2.87073    1.000000    
     82 O2    s    0.500000 *  0.000000 *  0.500000 *  -2.87073    1.000000    
     83 O2    s    0.994520 *  0.000000 *  0.250840 *  -2.87073    1.000000    
     84 O3    s    0.505480 *  0.000000 *  0.250840 *  -3.33043    1.000000    
     85 O2    s    0.005480 *  0.000000 *  0.749160 *  -2.87073    1.000000    
     86 O2    s    0.494520 *  0.000000 *  0.749160 *  -2.87073    1.000000    
     87 O3    s    0.610230 *  0.175520 *  0.115390 *  -3.33043    1.000000    
     88 O2    s    0.889770 *  0.824480 *  0.115390 *  -2.87073    1.000000    
     89 O2    s    0.389770 *  0.175520 *  0.884610 *  -2.87073    1.000000    
     90 O2    s    0.110230 *  0.824480 *  0.884610 *  -2.87073    1.000000    
     91 O2    s    0.389770 *  0.824480 *  0.884610 *  -2.87073    1.000000    
     92 O2    s    0.110230 *  0.175520 *  0.884610 *  -2.87073    1.000000    
     93 O3    s    0.610230 *  0.824480 *  0.115390 *  -3.33043    1.000000    
     94 O2    s    0.889770 *  0.175520 *  0.115390 *  -2.87073    1.000000    
     95 O3    s    0.500000 *  0.000000 *  0.000000 *  -3.33043    1.000000    
     96 O2    s    0.000000 *  0.000000 *  0.000000 *  -2.87073    1.000000    
     97 O3    s    0.151750 *  0.500000 *  0.313330 *  -3.33043    1.000000    
     98 O3    s    0.348250 *  0.500000 *  0.313330 *  -3.33043    1.000000    
     99 O3    s    0.848250 *  0.500000 *  0.686670 *  -3.33043    1.000000    
    100 O2    s    0.651750 *  0.500000 *  0.686670 *  -2.87073    1.000000    
    101 O1    s    0.250000 *  0.234950 *  0.285720 *  -3.73396    1.000000    
    102 O2    s    0.250000 *  0.765050 *  0.285720 *  -2.87073    1.000000    
    103 O3    s    0.750000 *  0.234950 *  0.714280 *  -3.33043    1.000000    
    104 O2    s    0.750000 *  0.765050 *  0.714280 *  -2.87073    1.000000    
    105 O3    s    0.131410 *  0.268650 *  0.127790 *  -3.33043    1.000000    
    106 O2    s    0.368590 *  0.731350 *  0.127790 *  -2.87073    1.000000    
    107 O3    s    0.868590 *  0.268650 *  0.872210 *  -3.33043    1.000000    
    108 O2    s    0.631410 *  0.731350 *  0.872210 *  -2.87073    1.000000    
    109 O2    s    0.868590 *  0.731350 *  0.872210 *  -2.87073    1.000000    
    110 O2    s    0.631410 *  0.268650 *  0.872210 *  -2.87073    1.000000    
    111 O2    s    0.131410 *  0.731350 *  0.127790 *  -2.87073    1.000000    
    112 O3    s    0.368590 *  0.268650 *  0.127790 *  -3.33043    1.000000    
    113 O2    s    0.653920 *  0.500000 *  0.058200 *  -2.87073    1.000000    
    114 O2    s    0.846080 *  0.500000 *  0.058200 *  -2.87073    1.000000    
    115 O2    s    0.346080 *  0.500000 *  0.941800 *  -2.87073    1.000000    
    116 O2    s    0.153920 *  0.500000 *  0.941800 *  -2.87073    1.000000    
    117 O2    s    0.750000 *  0.231060 *  0.027050 *  -2.87073    1.000000    
    118 O2    s    0.750000 *  0.768940 *  0.027050 *  -2.87073    1.000000    
    119 O2    s    0.250000 *  0.231060 *  0.972950 *  -2.87073    1.000000    
    120 O2    s    0.250000 *  0.768940 *  0.972950 *  -2.87073    1.000000    
--------------------------------------------------------------------------------



********************************************************************************
*  General input information                                                   *
********************************************************************************

  Species output for all configurations : 

--------------------------------------------------------------------------------
  Species    Type    Atomic    Atomic    Charge       Radii (Angs)     Library
                     Number     Mass       (e)     Cova   Ionic  VDW   Symbol
--------------------------------------------------------------------------------
    Ge       Core       32      72.61   4.000000   1.170  0.000  1.750 Ge       
    Si       Core       14      28.09   4.000000   1.200  0.000  2.100 Si       
    O1       Core        8      16.00   1.733957   0.730  0.000  1.360 O1       
    O2       Core        8      16.00   0.870733   0.730  0.000  1.360 O2       
    O3       Core        8      16.00   1.330431   0.730  0.000  1.360 O3       
    O1       Shell       8       0.00  -3.733957   0.730  0.000  0.000 O1       
    O2       Shell       8       0.00  -2.870733   0.730  0.000  0.000 O2       
    O3       Shell       8       0.00  -3.330431   0.730  0.000  0.000 O3       
--------------------------------------------------------------------------------


  Lattice summation method               =    Ewald          (3-D)
                                         =    Parry          (2-D)
                                         =    Saunders et al (1-D)
  Accuracy factor for lattice sums       =   12.000


  Analytic derivatives to be used

  Time limit = Infinity

  Maximum range for interatomic potentials =    100000.000000 Angstroms

  General interatomic potentials :

--------------------------------------------------------------------------------
Atom  Types   Potential      Parameter       Value         Units   Cutoffs(Ang)
  1     2                                                            Min /  Max 
--------------------------------------------------------------------------------
Si   c O1   s Buckingham    Buckingham A     1315.2478    eV        0.000 16.000
                            Buckingham rho  0.31775900    Ang       
                            Buckingham C     10.141118    eV*Ang^6  
--------------------------------------------------------------------------------
Si   c O2   s Buckingham    Buckingham A     1315.2478    eV        0.000 16.000
                            Buckingham rho  0.31775900    Ang       
                            Buckingham C     10.141118    eV*Ang^6  
--------------------------------------------------------------------------------
Si   c O3   s Buckingham    Buckingham A     1315.2478    eV        0.000 16.000
                            Buckingham rho  0.31775900    Ang       
                            Buckingham C     10.141118    eV*Ang^6  
--------------------------------------------------------------------------------
Ge   c O1   s Buckingham    Buckingham A     1497.3996    eV        0.000 16.000
                            Buckingham rho  0.32564600    Ang       
                            Buckingham C     16.808599    eV*Ang^6  
--------------------------------------------------------------------------------
Ge   c O2   s Buckingham    Buckingham A     1497.3996    eV        0.000 16.000
                            Buckingham rho  0.32564600    Ang       
                            Buckingham C     16.808599    eV*Ang^6  
--------------------------------------------------------------------------------
Ge   c O3   s Buckingham    Buckingham A     1497.3996    eV        0.000 16.000
                            Buckingham rho  0.32564600    Ang       
                            Buckingham C     16.808599    eV*Ang^6  
--------------------------------------------------------------------------------
O1   s O1   s Buckingham    Buckingham A     22764.000    eV        0.000 16.000
                            Buckingham rho  0.14900000    Ang       
                            Buckingham C     10.937044    eV*Ang^6  
--------------------------------------------------------------------------------
O1   s O2   s Buckingham    Buckingham A     22764.000    eV        0.000 16.000
                            Buckingham rho  0.14900000    Ang       
                            Buckingham C     10.937044    eV*Ang^6  
--------------------------------------------------------------------------------
O1   s O3   s Buckingham    Buckingham A     22764.000    eV        0.000 16.000
                            Buckingham rho  0.14900000    Ang       
                            Buckingham C     10.937044    eV*Ang^6  
--------------------------------------------------------------------------------
O2   s O2   s Buckingham    Buckingham A     22764.000    eV        0.000 16.000
                            Buckingham rho  0.14900000    Ang       
                            Buckingham C     10.937044    eV*Ang^6  
--------------------------------------------------------------------------------
O2   s O3   s Buckingham    Buckingham A     22764.000    eV        0.000 16.000
                            Buckingham rho  0.14900000    Ang       
                            Buckingham C     10.937044    eV*Ang^6  
--------------------------------------------------------------------------------
O3   s O3   s Buckingham    Buckingham A     22764.000    eV        0.000 16.000
                            Buckingham rho  0.14900000    Ang       
                            Buckingham C     10.937044    eV*Ang^6  
--------------------------------------------------------------------------------
O1   c O1   s Spring (c-s)  Spring k 2       180.31577    eV*Ang^-2 0.000  0.800
                            Spring k 4       0.0000000    eV*Ang^-4 
--------------------------------------------------------------------------------
O2   c O2   s Spring (c-s)  Spring k 2       75.969800    eV*Ang^-2 0.000  0.800
                            Spring k 4       0.0000000    eV*Ang^-4 
--------------------------------------------------------------------------------
O3   c O3   s Spring (c-s)  Spring k 2       128.14270    eV*Ang^-2 0.000  0.800
                            Spring k 4       0.0000000    eV*Ang^-4 
--------------------------------------------------------------------------------

  General Three-body potentials :

--------------------------------------------------------------------------------
  Atoms       Potential      Parameter       Value         Units   Cutoffs(Ang)
  1 / 2 / 3                                                          Min /  Max 
--------------------------------------------------------------------------------
Si    core    Harmonic      Three-body cnst  1.2614000    eV*rad^-2 0.000  1.900
O1    shel                  Three-body angl  109.47000    degrees   0.000  1.900
O1    shel                  Three-body k4    0.0000000    eV*rad^-4 0.000  3.500
                            Three-body k3    0.0000000    eV*rad^-3 
--------------------------------------------------------------------------------
Si    core    Harmonic      Three-body cnst  1.2614000    eV*rad^-2 0.000  1.900
O1    shel                  Three-body angl  109.47000    degrees   0.000  1.900
õ(1   shel                  Three-body k4    0.0000000    eV*rad^-4 0.000  3.500
                            Three-body k3    0.0000000    eV*rad^-3 
--------------------------------------------------------------------------------
Si    core    Harmonic      Three-body cnst  1.2614000    eV*rad^-2 0.000  1.900
õ(1   shel                  Three-body angl  109.47000    degrees   0.000  1.900
õ(1   shel                  Three-body k4    0.0000000    eV*rad^-4 0.000  3.500
                            Three-body k3    0.0000000    eV*rad^-3 
--------------------------------------------------------------------------------
Si    core    Harmonic      Three-body cnst  1.2614000    eV*rad^-2 0.000  1.900
O1    shel                  Three-body angl  109.47000    degrees   0.000  1.900
O2    shel                  Three-body k4    0.0000000    eV*rad^-4 0.000  3.500
                            Three-body k3    0.0000000    eV*rad^-3 
--------------------------------------------------------------------------------
Si    core    Harmonic      Three-body cnst  1.2614000    eV*rad^-2 0.000  1.900
O1    shel                  Three-body angl  109.47000    degrees   0.000  1.900
õ(2   shel                  Three-body k4    0.0000000    eV*rad^-4 0.000  3.500
                            Three-body k3    0.0000000    eV*rad^-3 
--------------------------------------------------------------------------------
Si    core    Harmonic      Three-body cnst  1.2614000    eV*rad^-2 0.000  1.900
O2    shel                  Three-body angl  109.47000    degrees   0.000  1.900
õ(1   shel                  Three-body k4    0.0000000    eV*rad^-4 0.000  3.500
                            Three-body k3    0.0000000    eV*rad^-3 
--------------------------------------------------------------------------------
Si    core    Harmonic      Three-body cnst  1.2614000    eV*rad^-2 0.000  1.900
õ(1   shel                  Three-body angl  109.47000    degrees   0.000  1.900
õ(2   shel                  Three-body k4    0.0000000    eV*rad^-4 0.000  3.500
                            Three-body k3    0.0000000    eV*rad^-3 
--------------------------------------------------------------------------------
Si    core    Harmonic      Three-body cnst  1.2614000    eV*rad^-2 0.000  1.900
O2    shel                  Three-body angl  109.47000    degrees   0.000  1.900
O2    shel                  Three-body k4    0.0000000    eV*rad^-4 0.000  3.500
                            Three-body k3    0.0000000    eV*rad^-3 
--------------------------------------------------------------------------------
Si    core    Harmonic      Three-body cnst  1.2614000    eV*rad^-2 0.000  1.900
O2    shel                  Three-body angl  109.47000    degrees   0.000  1.900
õ(2   shel                  Three-body k4    0.0000000    eV*rad^-4 0.000  3.500
                            Three-body k3    0.0000000    eV*rad^-3 
--------------------------------------------------------------------------------
Si    core    Harmonic      Three-body cnst  1.2614000    eV*rad^-2 0.000  1.900
õ(2   shel                  Three-body angl  109.47000    degrees   0.000  1.900
õ(2   shel                  Three-body k4    0.0000000    eV*rad^-4 0.000  3.500
                            Three-body k3    0.0000000    eV*rad^-3 
--------------------------------------------------------------------------------

********************************************************************************
*  Output for configuration   1 : c00905.vasp                                  *
********************************************************************************


  Components of energy : 

--------------------------------------------------------------------------------
  Interatomic potentials     =         768.31648896 eV    
  Three-body potentials      =           0.01176532 eV    
  Monopole - monopole (real) =       -2676.00317478 eV    
  Monopole - monopole (recip)=       -1115.35404472 eV    
  Monopole - monopole (total)=       -3791.35721950 eV    
--------------------------------------------------------------------------------
  Total lattice energy       =       -3023.02896522 eV    
--------------------------------------------------------------------------------
  Total lattice energy       =         -291676.0839 kJ/(mole unit cells)
--------------------------------------------------------------------------------


  Number of variables =      363

  Maximum number of calculations  =          1000
  Maximum Hessian update interval =            10
  Maximum step size               =   0.100000000
  Maximum parameter tolerance     =   0.000010000
  Maximum function  tolerance     =   0.000010000
  Maximum gradient  tolerance     =   0.001000000
  Maximum gradient  component     =   0.010000000

  Symmetry not applied to optimisation

  Cell parameters to be optimised using strains

  Newton-Raphson optimiser to be used

  BFGS hessian update to be used

  Lower half triangular hessian to be used

  Minimiser to switch to RFO
  When gradient norm is less than     0.050000

  Dumpfile to be written after every cycle

  Start of bulk optimisation :

  Cycle:      0 Energy:     -3023.028965  Gnorm:      4.523962  CPU:    0.096
  ** Hessian calculated **
  Cycle:      1 Energy:     -3054.262081  Gnorm:      1.006828  CPU:    0.210
  ** Hessian calculated **
  Cycle:      2 Energy:     -3056.947038  Gnorm:      0.576686  CPU:    0.382
  Cycle:      3 Energy:     -3057.916382  Gnorm:      0.371918  CPU:    0.472
  Cycle:      4 Energy:     -3058.780656  Gnorm:      0.284002  CPU:    0.577
  Cycle:      5 Energy:     -3059.551275  Gnorm:      0.224607  CPU:    0.682
  Cycle:      6 Energy:     -3060.024859  Gnorm:      0.183634  CPU:    0.773
  Cycle:      7 Energy:     -3060.299693  Gnorm:      0.133193  CPU:    0.861
  Cycle:      8 Energy:     -3060.435306  Gnorm:      0.100747  CPU:    0.952
  Cycle:      9 Energy:     -3060.492147  Gnorm:      0.067023  CPU:    1.040
  Cycle:     10 Energy:     -3060.532032  Gnorm:      0.057535  CPU:    1.145
  Cycle:     11 Energy:     -3060.569362  Gnorm:      0.056314  CPU:    1.252
  ** Hessian calculated **
  Cycle:     12 Energy:     -3060.597264  Gnorm:      0.055124  CPU:    1.443
  Cycle:     13 Energy:     -3060.642868  Gnorm:      0.053072  CPU:    1.566
  Cycle:     14 Energy:     -3060.694387  Gnorm:      0.050567  CPU:    1.687
  ** Hessian calculated **
  Cycle:     15 Energy:     -3060.765384  Gnorm:      0.047099  CPU:    1.878
  ** Hessian has wrong structure
  ** Imaginary eigenvectors =   3
  Cycle:     16 Energy:     -3060.789819  Gnorm:      0.062858  CPU:    2.137
  ** Hessian has wrong structure
  ** Imaginary eigenvectors =   2
  ** Hessian has wrong structure
  ** Imaginary eigenvectors =   1
  Cycle:     17 Energy:     -3060.816960  Gnorm:      0.065909  CPU:    2.635
  ** Hessian has wrong structure
  ** Imaginary eigenvectors =   1
  ** Hessian has required structure
  Cycle:     18 Energy:     -3061.090591  Gnorm:      0.043327  CPU:    3.090
  ** Hessian has required structure
  Cycle:     19 Energy:     -3061.239022  Gnorm:      0.029068  CPU:    3.254
  ** Hessian has required structure
  Cycle:     20 Energy:     -3061.273275  Gnorm:      0.040003  CPU:    3.402
  ** Hessian has required structure
  Cycle:     21 Energy:     -3061.322274  Gnorm:      0.023656  CPU:    3.549
  ** Hessian has required structure
  Cycle:     22 Energy:     -3061.335785  Gnorm:      0.027438  CPU:    3.730
  ** Hessian has required structure
  Cycle:     23 Energy:     -3061.347556  Gnorm:      0.019079  CPU:    3.886
  ** Hessian has required structure
  Cycle:     24 Energy:     -3061.359290  Gnorm:      0.014751  CPU:    4.043
  ** Hessian has required structure
  Cycle:     25 Energy:     -3061.366237  Gnorm:      0.013108  CPU:    4.192
  ** Hessian has required structure
  Cycle:     26 Energy:     -3061.371892  Gnorm:      0.007852  CPU:    4.341
  ** Hessian has required structure
  Cycle:     27 Energy:     -3061.375385  Gnorm:      0.009039  CPU:    4.488
  ** Hessian has required structure
  Cycle:     28 Energy:     -3061.381714  Gnorm:      0.007715  CPU:    4.717
  ** Hessian has required structure
  Cycle:     29 Energy:     -3061.384799  Gnorm:      0.006411  CPU:    4.884
  ** Hessian has required structure
  Cycle:     30 Energy:     -3061.386067  Gnorm:      0.003323  CPU:    5.032
  ** Hessian has required structure
  Cycle:     31 Energy:     -3061.386715  Gnorm:      0.002805  CPU:    5.182
  ** Hessian has required structure
  Cycle:     32 Energy:     -3061.387084  Gnorm:      0.001999  CPU:    5.349
  ** Hessian has required structure
  Cycle:     33 Energy:     -3061.387325  Gnorm:      0.001607  CPU:    5.513
  ** Hessian has required structure
  Cycle:     34 Energy:     -3061.387547  Gnorm:      0.003167  CPU:    5.680
  ** Hessian has required structure
  Cycle:     35 Energy:     -3061.387864  Gnorm:      0.006128  CPU:    5.846
  ** Hessian has required structure
  Cycle:     36 Energy:     -3061.388209  Gnorm:      0.008511  CPU:    5.997
  ** Hessian has required structure
  Cycle:     37 Energy:     -3061.388905  Gnorm:      0.009822  CPU:    6.165
  ** Hessian has wrong structure
  ** Imaginary eigenvectors =   1
  Cycle:     38 Energy:     -3061.394162  Gnorm:      0.016498  CPU:    6.523
  ** Hessian has required structure
  Cycle:     39 Energy:     -3061.404102  Gnorm:      0.014107  CPU:    6.760
  ** Hessian has required structure
  Cycle:     40 Energy:     -3061.411418  Gnorm:      0.011472  CPU:    6.923
  ** Hessian has required structure
  Cycle:     41 Energy:     -3061.415192  Gnorm:      0.005041  CPU:    7.081
  ** Hessian has required structure
  Cycle:     42 Energy:     -3061.417134  Gnorm:      0.007497  CPU:    7.257
  ** Hessian has required structure
  Cycle:     43 Energy:     -3061.418443  Gnorm:      0.003925  CPU:    7.436
  ** Hessian has required structure
  Cycle:     44 Energy:     -3061.418872  Gnorm:      0.002163  CPU:    7.611
  ** Hessian has required structure
  Cycle:     45 Energy:     -3061.419038  Gnorm:      0.001176  CPU:    7.793
  ** Hessian has required structure
  Cycle:     46 Energy:     -3061.419094  Gnorm:      0.000603  CPU:    7.962
  ** Hessian has required structure
  Cycle:     47 Energy:     -3061.419112  Gnorm:      0.000322  CPU:    8.122
  ** Hessian has required structure
  Cycle:     48 Energy:     -3061.419115  Gnorm:      0.000221  CPU:    8.253
  ** Hessian has required structure
  Cycle:     49 Energy:     -3061.419117  Gnorm:      0.000133  CPU:    8.473
  ** Hessian has required structure
  Cycle:     50 Energy:     -3061.419118  Gnorm:      0.000093  CPU:    8.599
  ** Hessian has required structure
  Cycle:     51 Energy:     -3061.419120  Gnorm:      0.000065  CPU:    8.728
  ** Hessian has required structure


  **** Optimisation achieved ****


  Final energy =   -3061.41911978 eV      
  Final Gnorm  =       0.00004590

  Components of energy : 

--------------------------------------------------------------------------------
  Interatomic potentials     =         813.87967345 eV    
  Three-body potentials      =           0.17371172 eV    
  Monopole - monopole (real) =       -2169.75627104 eV    
  Monopole - monopole (recip)=       -1705.71623391 eV    
  Monopole - monopole (total)=       -3875.47250495 eV    
--------------------------------------------------------------------------------
  Total lattice energy       =       -3061.41911978 eV    
--------------------------------------------------------------------------------
  Total lattice energy       =         -295380.1470 kJ/(mole unit cells)
--------------------------------------------------------------------------------

  Final fractional coordinates of atoms :

--------------------------------------------------------------------------------
   No.  Atomic        x           y          z          Radius
        Label       (Frac)      (Frac)     (Frac)       (Angs) 
--------------------------------------------------------------------------------
     1  Ge    c     0.556730    0.000000    0.122130    0.000000
     2  Ge    c     0.147405    0.327529    0.299763    0.000000
     3  Ge    c     0.849633    0.322481    0.722042    0.000000
     4  Ge    c     0.337546    0.290542    0.302007    0.000000
     5  Si    c     0.045760    0.017518    0.382733    0.000000
     6  Si    c     0.454100    0.008179    0.383319    0.000000
     7  Si    c     0.953556    0.011332    0.642214    0.000000
     8  Si    c     0.549303    0.993511    0.640761    0.000000
     9  Si    c     0.945051    0.013722    0.129438    0.000000
    10  Si    c     0.442031    0.997990    0.881627    0.000000
    11  Si    c     0.060064    0.000768    0.891979    0.000000
    12  Si    c     0.347531    0.703421    0.291452    0.000000
    13  Si    c     0.653344    0.692597    0.740656    0.000000
    14  Si    c     0.833522    0.731227    0.733608    0.000000
    15  Si    c     0.666489    0.286930    0.731361    0.000000
    16  Si    c     0.166787    0.737491    0.286944    0.000000
    17  Si    c     0.674537    0.283250    0.033670    0.000000
    18  Si    c     0.833813    0.723268    0.036849    0.000000
    19  Si    c     0.336916    0.282674    0.997842    0.000000
    20  Si    c     0.169171    0.711744    0.982492    0.000000
    21  Si    c     0.350009    0.682824    0.988217    0.000000
    22  Si    c     0.151828    0.315710    0.995621    0.000000
    23  Si    c     0.653277    0.679393    0.041057    0.000000
    24  Si    c     0.854703    0.327996    0.030568    0.000000
    25  O3    c     0.080392    0.212082    0.391017    0.000000
    26  O2    c     0.406325    0.826116    0.371183    0.000000
    27  O3    c     0.917357    0.203529    0.634333    0.000000
    28  O2    c     0.594306    0.810666    0.659678    0.000000
    29  O2    c     0.879751    0.880092    0.656385    0.000000
    30  O2    c     0.608013    0.157866    0.655446    0.000000
    31  O2    c     0.119500    0.889272    0.359915    0.000000
    32  O3    c     0.392815    0.164118    0.403442    0.000000
    33  O2    c     0.001605    0.964876    0.513314    0.000000
    34  O2    c     0.516745    0.993815    0.496505    0.000000
    35  O2    c     0.984461    0.995377    0.267240    0.000000
    36  O3    c     0.500269    0.048010    0.252328    0.000000
    37  O2    c     0.012664    0.988957    0.760577    0.000000
    38  O2    c     0.475251    0.008403    0.736709    0.000000
    39  O3    c     0.635618    0.142877    0.123524    0.000000
    40  O2    c     0.875669    0.870224    0.123822    0.000000
    41  O2    c     0.372930    0.141154    0.898234    0.000000
    42  O2    c     0.124205    0.846153    0.891719    0.000000
    43  O2    c     0.408984    0.801549    0.905648    0.000000
    44  O2    c     0.103756    0.188712    0.899176    0.000000
    45  O3    c     0.593863    0.789180    0.127772    0.000000
    46  O2    c     0.911573    0.210283    0.117263    0.000000
    47  O3    c     0.509669    0.045715    0.980429    0.000000
    48  O2    c     0.004952    0.969717    0.014666    0.000000
    49  O3    c     0.141397    0.548327    0.336527    0.000000
    50  O3    c     0.357489    0.507924    0.337127    0.000000
    51  O3    c     0.866225    0.542193    0.695651    0.000000
    52  O2    c     0.637339    0.487115    0.712891    0.000000
    53  O1    c     0.240192    0.255231    0.326843    0.000000
    54  O2    c     0.258675    0.768164    0.315040    0.000000
    55  O3    c     0.754510    0.270902    0.679417    0.000000
    56  O2    c     0.741705    0.740122    0.697944    0.000000
    57  O3    c     0.120785    0.291217    0.139825    0.000000
    58  O2    c     0.367932    0.720963    0.138894    0.000000
    59  O3    c     0.868136    0.276390    0.882028    0.000000
    60  O2    c     0.640090    0.736787    0.892056    0.000000
    61  O2    c     0.842433    0.769940    0.886329    0.000000
    62  O2    c     0.666688    0.234195    0.881820    0.000000
    63  O2    c     0.152151    0.749966    0.133243    0.000000
    64  O3    c     0.363251    0.243597    0.142612    0.000000
    65  O2    c     0.635404    0.473979    0.058183    0.000000
    66  O2    c     0.873589    0.533293    0.058252    0.000000
    67  O2    c     0.364810    0.478073    0.956676    0.000000
    68  O2    c     0.140539    0.514824    0.947675    0.000000
    69  O2    c     0.765519    0.291651    0.070247    0.000000
    70  O2    c     0.743179    0.719810    0.078708    0.000000
    71  O2    c     0.243318    0.268921    0.995272    0.000000
    72  O2    c     0.261273    0.732661    0.954116    0.000000
    73  O3    s     0.082342    0.202057    0.382908    0.000000
    74  O2    s     0.404821    0.831778    0.363479    0.000000
    75  O3    s     0.915432    0.194068    0.642234    0.000000
    76  O2    s     0.596033    0.817313    0.666716    0.000000
    77  O2    s     0.882447    0.877464    0.663567    0.000000
    78  O2    s     0.608177    0.154329    0.662337    0.000000
    79  O2    s     0.116973    0.885786    0.354007    0.000000
    80  O3    s     0.394383    0.159019    0.393196    0.000000
    81  O2    s     0.001184    0.976054    0.513090    0.000000
    82  O2    s     0.513306    0.995447    0.500111    0.000000
    83  O2    s     0.986774    0.000023    0.264075    0.000000
    84  O3    s     0.500678    0.039526    0.253862    0.000000
    85  O2    s     0.011593    0.992848    0.762799    0.000000
    86  O2    s     0.479599    0.005615    0.742344    0.000000
    87  O3    s     0.633503    0.146705    0.113570    0.000000
    88  O2    s     0.878428    0.869149    0.114567    0.000000
    89  O2    s     0.376214    0.141566    0.907387    0.000000
    90  O2    s     0.122377    0.847653    0.901926    0.000000
    91  O2    s     0.405914    0.808898    0.912322    0.000000
    92  O2    s     0.104336    0.182580    0.908897    0.000000
    93  O3    s     0.597023    0.794540    0.118416    0.000000
    94  O2    s     0.909001    0.202143    0.109149    0.000000
    95  O3    s     0.506518    0.036873    0.982013    0.000000
    96  O2    s     0.004435    0.978149    0.013709    0.000000
    97  O3    s     0.144434    0.549480    0.328570    0.000000
    98  O3    s     0.354798    0.510978    0.329408    0.000000
    99  O3    s     0.861546    0.543439    0.701624    0.000000
   100  O2    s     0.642085    0.488312    0.717793    0.000000
   101  O1    s     0.240628    0.263760    0.322746    0.000000
   102  O2    s     0.258311    0.758143    0.309509    0.000000
   103  O3    s     0.753406    0.276600    0.687952    0.000000
   104  O2    s     0.741998    0.734093    0.706287    0.000000
   105  O3    s     0.125981    0.296406    0.137786    0.000000
   106  O2    s     0.363950    0.715217    0.138621    0.000000
   107  O3    s     0.865300    0.285214    0.883989    0.000000
   108  O2    s     0.642819    0.726407    0.891280    0.000000
   109  O2    s     0.840528    0.760760    0.886309    0.000000
   110  O2    s     0.667480    0.244926    0.881767    0.000000
   111  O2    s     0.155576    0.744521    0.133235    0.000000
   112  O3    s     0.358633    0.251026    0.140578    0.000000
   113  O2    s     0.641360    0.476466    0.053802    0.000000
   114  O2    s     0.867518    0.531599    0.053159    0.000000
   115  O2    s     0.360348    0.479846    0.964263    0.000000
   116  O2    s     0.144778    0.514632    0.956412    0.000000
   117  O2    s     0.765402    0.294870    0.061801    0.000000
   118  O2    s     0.743483    0.715842    0.070143    0.000000
   119  O2    s     0.243627    0.275724    0.995619    0.000000
   120  O2    s     0.260937    0.724889    0.960949    0.000000
--------------------------------------------------------------------------------

  Final Cartesian lattice vectors (Angstroms) :

       17.086367   -0.036118    0.036678
       -0.015659    7.625626   -0.045206
        0.022254   -0.061984   10.333690


  Final cell parameters and derivatives :

--------------------------------------------------------------------------------
       a           17.086444 Angstrom     dE/de1(xx)     0.002199 eV/strain
       b            7.625776 Angstrom     dE/de2(yy)     0.001192 eV/strain
       c           10.333899 Angstrom     dE/de3(zz)     0.003218 eV/strain
       alpha       90.683577 Degrees      dE/de4(yz)     0.000391 eV/strain
       beta        89.752898 Degrees      dE/de5(xz)    -0.000903 eV/strain
       gamma       90.239495 Degrees      dE/de6(xy)     0.000451 eV/strain
--------------------------------------------------------------------------------

  Primitive cell volume =          1346.360310 Angs**3

  Density of cell =      1.998361 g/cm**3

  Non-primitive cell volume =          1346.360310 Angs**3


  Final internal derivatives :

--------------------------------------------------------------------------------
   No.  Atomic          a             b             c           Radius
        Label          (eV)          (eV)          (eV)        (eV/Angs)
--------------------------------------------------------------------------------
      1 Ge    c       0.000000      0.000000      0.000000      0.000000
      2 Ge    c       0.000071     -0.000035      0.000045      0.000000
      3 Ge    c       0.000137     -0.000040     -0.000079      0.000000
      4 Ge    c       0.000951     -0.000016      0.000539      0.000000
      5 Si    c       0.000345      0.000014      0.000261      0.000000
      6 Si    c      -0.008068     -0.000722      0.003251      0.000000
      7 Si    c      -0.000087      0.000180      0.000608      0.000000
      8 Si    c      -0.001333     -0.000285     -0.000524      0.000000
      9 Si    c      -0.000262      0.000074      0.000613      0.000000
     10 Si    c      -0.001161     -0.000082     -0.001452      0.000000
     11 Si    c       0.000446     -0.000159      0.000553      0.000000
     12 Si    c       0.000791     -0.000422      0.000207      0.000000
     13 Si    c      -0.000074      0.000029     -0.000027      0.000000
     14 Si    c       0.000033      0.000059      0.000044      0.000000
     15 Si    c      -0.000343      0.000043      0.000161      0.000000
     16 Si    c       0.000261     -0.000173      0.000209      0.000000
     17 Si    c      -0.000661      0.000320     -0.000811      0.000000
     18 Si    c       0.000157      0.000095     -0.000072      0.000000
     19 Si    c       0.000339      0.000441      0.000202      0.000000
     20 Si    c      -0.000503      0.000050     -0.000231      0.000000
     21 Si    c       0.000003     -0.000030     -0.000262      0.000000
     22 Si    c       0.000137      0.000097      0.000098      0.000000
     23 Si    c      -0.000338     -0.000017      0.000252      0.000000
     24 Si    c       0.000146     -0.000066      0.000045      0.000000
     25 O3    c      -0.000055     -0.000028     -0.000019      0.000000
     26 O2    c      -0.000137     -0.000700      0.000101      0.000000
     27 O3    c      -0.000104      0.000155     -0.000050      0.000000
     28 O2    c      -0.000033      0.000038      0.000001      0.000000
     29 O2    c      -0.000704     -0.000246      0.000071      0.000000
     30 O2    c       0.000528      0.000274      0.000152      0.000000
     31 O2    c      -0.000369      0.000128      0.000043      0.000000
     32 O3    c       0.000768     -0.000253     -0.000646      0.000000
     33 O2    c       0.000779     -0.000144     -0.001190      0.000000
     34 O2    c       0.005050      0.000034      0.001569      0.000000
     35 O2    c      -0.000676     -0.000030     -0.000714      0.000000
     36 O3    c       0.000583      0.004191      0.005667      0.000000
     37 O2    c      -0.000814     -0.000023     -0.001105      0.000000
     38 O2    c      -0.001689     -0.000225      0.000360      0.000000
     39 O3    c       0.001915      0.000310      0.000868      0.000000
     40 O2    c      -0.000260     -0.000055      0.000061      0.000000
     41 O2    c      -0.000171     -0.000059     -0.000292      0.000000
     42 O2    c      -0.000325      0.000129      0.000046      0.000000
     43 O2    c       0.000075     -0.000081      0.000018      0.000000
     44 O2    c      -0.000125     -0.000027     -0.000050      0.000000
     45 O3    c       0.000550     -0.000900      0.000423      0.000000
     46 O2    c      -0.000035      0.000048     -0.000044      0.000000
     47 O3    c       0.004328      0.001021      0.001107      0.000000
     48 O2    c       0.000849     -0.000210     -0.000945      0.000000
     49 O3    c       0.000202      0.000445     -0.000117      0.000000
     50 O3    c       0.000002      0.000201     -0.000409      0.000000
     51 O3    c       0.000220     -0.000007     -0.000092      0.000000
     52 O2    c      -0.000109     -0.000049     -0.000019      0.000000
     53 O1    c       0.000848      0.000025     -0.000040      0.000000
     54 O2    c      -0.000727      0.000005      0.000017      0.000000
     55 O3    c       0.000387     -0.000036     -0.000117      0.000000
     56 O2    c      -0.000036      0.000006     -0.000027      0.000000
     57 O3    c       0.000135     -0.000006     -0.000160      0.000000
     58 O2    c      -0.000336     -0.000188      0.000651      0.000000
     59 O3    c       0.000372     -0.000044     -0.000057      0.000000
     60 O2    c       0.000010     -0.000042      0.000101      0.000000
     61 O2    c       0.000003     -0.000029      0.000108      0.000000
     62 O2    c      -0.000316     -0.000062      0.000168      0.000000
     63 O2    c      -0.000091      0.000071      0.000329      0.000000
     64 O3    c      -0.000510      0.000339     -0.000630      0.000000
     65 O2    c      -0.000363      0.000093      0.000122      0.000000
     66 O2    c       0.000252     -0.000057      0.000090      0.000000
     67 O2    c      -0.000136     -0.000501      0.000088      0.000000
     68 O2    c      -0.000086     -0.000231     -0.000038      0.000000
     69 O2    c       0.000433     -0.000041      0.000216      0.000000
     70 O2    c      -0.000482     -0.000032      0.000142      0.000000
     71 O2    c      -0.000475      0.000045     -0.000125      0.000000
     72 O2    c       0.000627     -0.000001     -0.000074      0.000000
     73 O3    s       0.000052     -0.000049      0.000012      0.000000
     74 O2    s      -0.003216     -0.000386     -0.000219      0.000000
     75 O3    s      -0.000083      0.000088      0.000090      0.000000
     76 O2    s      -0.000063      0.000038      0.000057      0.000000
     77 O2    s      -0.000075      0.000022     -0.000003      0.000000
     78 O2    s      -0.000271     -0.000144     -0.000112      0.000000
     79 O2    s       0.000091     -0.000119     -0.000062      0.000000
     80 O3    s      -0.002088      0.000312      0.000517      0.000000
     81 O2    s      -0.000049     -0.000012      0.000210      0.000000
     82 O2    s       0.000045      0.000296      0.001026      0.000000
     83 O2    s       0.000689      0.000050      0.000344      0.000000
     84 O3    s       0.001160     -0.000384     -0.001741      0.000000
     85 O2    s       0.000839      0.000010      0.000396      0.000000
     86 O2    s       0.000231     -0.000153     -0.000293      0.000000
     87 O3    s       0.001880      0.000135      0.000006      0.000000
     88 O2    s      -0.000144      0.000054      0.000058      0.000000
     89 O2    s      -0.000512      0.000160      0.000535      0.000000
     90 O2    s       0.000190      0.000080      0.000071      0.000000
     91 O2    s      -0.000416     -0.000161      0.000069      0.000000
     92 O2    s       0.000355     -0.000002      0.000174      0.000000
     93 O3    s       0.000470     -0.000529     -0.000999      0.000000
     94 O2    s       0.000085      0.000068      0.000230      0.000000
     95 O3    s      -0.003551     -0.000398     -0.002045      0.000000
     96 O2    s      -0.000089      0.000025      0.000390      0.000000
     97 O3    s      -0.000028     -0.000071     -0.000055      0.000000
     98 O3    s      -0.000410      0.000008     -0.000059      0.000000
     99 O3    s      -0.000058     -0.000018     -0.000067      0.000000
    100 O2    s      -0.000008      0.000018     -0.000141      0.000000
    101 O1    s      -0.000457      0.000059      0.000019      0.000000
    102 O2    s       0.000107     -0.000138     -0.000199      0.000000
    103 O3    s      -0.000097     -0.000058      0.000008      0.000000
    104 O2    s      -0.000006      0.000072     -0.000060      0.000000
    105 O3    s      -0.000012      0.000003     -0.000019      0.000000
    106 O2    s       0.000607      0.000426     -0.000107      0.000000
    107 O3    s      -0.000117     -0.000045     -0.000147      0.000000
    108 O2    s      -0.000108      0.000161     -0.000073      0.000000
    109 O2    s       0.000167      0.000119     -0.000049      0.000000
    110 O2    s       0.000448     -0.000024     -0.000648      0.000000
    111 O2    s       0.000031     -0.000010      0.000188      0.000000
    112 O3    s       0.000031     -0.000531     -0.000215      0.000000
    113 O2    s      -0.000020      0.000332     -0.000076      0.000000
    114 O2    s       0.000279      0.000044      0.000051      0.000000
    115 O2    s      -0.000218      0.000076      0.000244      0.000000
    116 O2    s       0.000055     -0.000088      0.000061      0.000000
    117 O2    s       0.000450     -0.000090      0.000037      0.000000
    118 O2    s       0.000176      0.000099     -0.000130      0.000000
    119 O2    s       0.000337      0.000017      0.000142      0.000000
    120 O2    s      -0.000010      0.000099     -0.000076      0.000000
--------------------------------------------------------------------------------
  Maximum abs         0.008068      0.004191      0.005667      0.000000
--------------------------------------------------------------------------------


  Born effective charge tensors : 

-------------------------------------------------------------------------------
  Atom             x           y             z
-------------------------------------------------------------------------------
    1 Ge    x       4.2772     -0.3089     -0.1169
            y       0.2062      3.9156      0.0069
            z      -0.7060      0.1443      3.7597
-------------------------------------------------------------------------------
    2 Ge    x       3.9792      0.1608     -0.1392
            y       0.3910      4.2363     -0.2077
            z      -0.0345     -0.1520      3.4684
-------------------------------------------------------------------------------
    3 Ge    x       3.9424     -0.2815     -0.0687
            y      -0.3920      4.2019      0.2259
            z      -0.1428      0.0772      3.4324
-------------------------------------------------------------------------------
    4 Ge    x       4.0240     -0.2527      0.2503
            y      -0.2335      4.1988     -0.2246
            z       0.0479     -0.1258      3.4833
-------------------------------------------------------------------------------
    5 Si    x       3.5018      0.3283     -0.1905
            y      -0.0614      3.4477      0.0748
            z      -0.3978     -0.1973      3.8564
-------------------------------------------------------------------------------
    6 Si    x       3.7280     -0.0285     -0.0746
            y      -0.2194      3.4302      0.0538
            z       0.5038     -0.1651      4.0968
-------------------------------------------------------------------------------
    7 Si    x       3.5448     -0.3532     -0.1275
            y       0.0381      3.4614     -0.0967
            z      -0.4500      0.1374      3.8419
-------------------------------------------------------------------------------
    8 Si    x       3.4215     -0.0680      0.3206
            y       0.0808      3.2584     -0.0404
            z       0.2563     -0.0242      3.7526
-------------------------------------------------------------------------------
    9 Si    x       3.4530     -0.1449      0.2036
            y       0.1933      3.2544     -0.0240
            z       0.4315     -0.0381      3.1256
-------------------------------------------------------------------------------
   10 Si    x       3.7341      0.2448     -0.1963
            y      -0.1222      3.3158      0.0394
            z      -0.2772      0.0082      3.2873
-------------------------------------------------------------------------------
   11 Si    x       3.4881      0.0806      0.1653
            y      -0.1289      3.2482      0.0149
            z       0.5059     -0.0065      3.1008
-------------------------------------------------------------------------------
   12 Si    x       3.2691      0.1005      0.1531
            y       0.2059      3.7125     -0.0243
            z       0.1256      0.0136      2.9533
-------------------------------------------------------------------------------
   13 Si    x       3.2037     -0.2201      0.0759
            y      -0.2631      3.4362     -0.2011
            z       0.1190     -0.0753      2.7976
-------------------------------------------------------------------------------
   14 Si    x       3.2838      0.2568     -0.1363
            y       0.0211      3.7497     -0.0327
            z      -0.1498     -0.0148      2.8771
-------------------------------------------------------------------------------
   15 Si    x       3.5640      0.2733     -0.0123
            y       0.1805      3.5505      0.1939
            z       0.0689      0.0773      2.8565
-------------------------------------------------------------------------------
   16 Si    x       3.2812     -0.2000     -0.1667
            y      -0.0673      3.7497     -0.0415
            z      -0.0977      0.0407      2.9296
-------------------------------------------------------------------------------
   17 Si    x       3.3252      0.5158     -0.2450
            y       0.1903      3.6508     -0.3734
            z      -0.1935     -0.2214      2.8884
-------------------------------------------------------------------------------
   18 Si    x       3.2107      0.3598      0.1572
            y       0.0935      3.4379      0.1551
            z       0.1324      0.0660      2.7063
-------------------------------------------------------------------------------
   19 Si    x       3.3078     -0.3290     -0.1980
            y      -0.1377      3.5502      0.0660
            z       0.0399      0.0453      3.0191
-------------------------------------------------------------------------------
   20 Si    x       3.2848     -0.2749      0.2002
            y      -0.1486      3.4146     -0.1404
            z       0.0925     -0.0978      2.7237
-------------------------------------------------------------------------------
   21 Si    x       3.2926      0.1958     -0.1341
            y       0.2755      3.4031     -0.1408
            z      -0.1346     -0.0916      2.7262
-------------------------------------------------------------------------------
   22 Si    x       3.3711      0.2678      0.1396
            y       0.2920      3.4928      0.0764
            z      -0.0367      0.0796      2.9716
-------------------------------------------------------------------------------
   23 Si    x       3.5207     -0.3985     -0.2651
            y      -0.4049      3.5064      0.3204
            z      -0.2923      0.1285      2.8658
-------------------------------------------------------------------------------
   24 Si    x       3.2860     -0.3040      0.0954
            y      -0.2995      3.5072     -0.1015
            z       0.1307      0.0141      2.9960
-------------------------------------------------------------------------------
   25 O3    x      -1.8577     -0.8510      0.3635
            y      -0.8207     -2.5354      0.3187
            z       0.3916      0.3418     -1.5599
-------------------------------------------------------------------------------
   26 O2    x      -1.7004     -0.6555     -0.3434
            y      -0.6596     -1.9006     -0.3569
            z      -0.4021     -0.3335     -1.3942
-------------------------------------------------------------------------------
   27 O3    x      -1.9143      0.8966      0.3354
            y       0.8685     -2.5451     -0.3025
            z       0.4271     -0.3297     -1.5331
-------------------------------------------------------------------------------
   28 O2    x      -1.6785      0.7232     -0.3736
            y       0.6811     -2.0015      0.3931
            z      -0.3613      0.3704     -1.3597
-------------------------------------------------------------------------------
   29 O2    x      -1.8255     -0.6515      0.3272
            y      -0.7306     -1.8516      0.3479
            z       0.3782      0.3074     -1.3556
-------------------------------------------------------------------------------
   30 O2    x      -1.7520     -0.7388     -0.3527
            y      -0.7578     -1.9861     -0.3481
            z      -0.3594     -0.3365     -1.3341
-------------------------------------------------------------------------------
   31 O2    x      -1.8459      0.6645      0.3601
            y       0.7342     -1.8464     -0.3453
            z       0.3721     -0.3088     -1.3544
-------------------------------------------------------------------------------
   32 O3    x      -2.0630      0.9028     -0.3370
            y       0.9708     -2.3045      0.3222
            z      -0.3882      0.3141     -1.5821
-------------------------------------------------------------------------------
   33 O2    x      -1.5323     -0.0098      0.7426
            y      -0.0035     -1.1094      0.0179
            z       0.9279      0.0373     -2.7223
-------------------------------------------------------------------------------
   34 O2    x      -1.6315      0.0194     -0.7864
            y       0.0079     -1.0895      0.0080
            z      -0.9560      0.0423     -2.6844
-------------------------------------------------------------------------------
   35 O2    x      -1.6583      0.0205     -0.7111
            y       0.0002     -1.1135      0.0122
            z      -0.6891      0.0550     -2.2788
-------------------------------------------------------------------------------
   36 O3    x      -1.9702      0.0216      0.9484
            y      -0.0309     -1.2893      0.0509
            z       0.9155      0.0207     -2.8193
-------------------------------------------------------------------------------
   37 O2    x      -1.7199      0.0126     -0.7404
            y       0.0007     -1.1126      0.0145
            z      -0.7476     -0.0003     -2.2559
-------------------------------------------------------------------------------
   38 O2    x      -1.7671     -0.0106      0.6831
            y       0.0237     -1.1083      0.0079
            z       0.6811      0.0234     -2.1449
-------------------------------------------------------------------------------
   39 O3    x      -2.1013     -0.9338      0.4331
            y      -0.9179     -2.3187      0.5506
            z       0.4747      0.5038     -1.4982
-------------------------------------------------------------------------------
   40 O2    x      -1.7568     -0.7251     -0.3243
            y      -0.6847     -1.9266     -0.3444
            z      -0.3362     -0.3392     -1.2422
-------------------------------------------------------------------------------
   41 O2    x      -1.7095      0.6724      0.4069
            y       0.6310     -1.9377     -0.4186
            z       0.3209     -0.3741     -1.2952
-------------------------------------------------------------------------------
   42 O2    x      -1.7593      0.7227     -0.3255
            y       0.6990     -1.9284      0.3439
            z      -0.3321      0.3338     -1.2544
-------------------------------------------------------------------------------
   43 O2    x      -1.6536     -0.6758      0.3962
            y      -0.5568     -2.0386      0.4206
            z       0.3702      0.4055     -1.2786
-------------------------------------------------------------------------------
   44 O2    x      -1.6275     -0.6769     -0.3249
            y      -0.5987     -2.0333     -0.3625
            z      -0.3208     -0.3530     -1.2476
-------------------------------------------------------------------------------
   45 O3    x      -2.0367      0.9370      0.4783
            y       0.8164     -2.3767     -0.4505
            z       0.5423     -0.4630     -1.4775
-------------------------------------------------------------------------------
   46 O2    x      -1.6370      0.6835     -0.3326
            y       0.5672     -2.0467      0.3571
            z      -0.3508      0.3527     -1.2328
-------------------------------------------------------------------------------
   47 O3    x      -2.2438     -0.0722     -0.8665
            y      -0.0728     -1.3371     -0.0454
            z      -0.5220     -0.0214     -2.0431
-------------------------------------------------------------------------------
   48 O2    x      -1.8224      0.0328      0.6367
            y       0.0120     -1.1836     -0.0240
            z       0.3668     -0.0147     -1.7075
-------------------------------------------------------------------------------
   49 O3    x      -1.2985     -0.2038      0.1187
            y      -0.2577     -3.1634      0.1699
            z       0.1044      0.1579     -1.2762
-------------------------------------------------------------------------------
   50 O3    x      -1.2617      0.0182     -0.1017
            y      -0.0532     -3.2162      0.1682
            z      -0.0776      0.1532     -1.2621
-------------------------------------------------------------------------------
   51 O3    x      -1.3442      0.1741      0.1009
            y       0.2411     -3.1572     -0.1214
            z       0.1243     -0.1030     -1.2196
-------------------------------------------------------------------------------
   52 O2    x      -1.1640      0.0307     -0.0504
            y       0.0825     -2.6041     -0.0274
            z      -0.0663     -0.0386     -1.0650
-------------------------------------------------------------------------------
   53 O1    x      -3.2061      0.1520     -0.0190
            y       0.0708     -1.5284      0.0908
            z      -0.0102      0.0812     -1.2569
-------------------------------------------------------------------------------
   54 O2    x      -2.4364      0.1126     -0.0259
            y       0.0623     -1.2490     -0.0434
            z      -0.0320     -0.0494     -1.0826
-------------------------------------------------------------------------------
   55 O3    x      -2.9927     -0.1059      0.1363
            y      -0.0247     -1.3856     -0.0936
            z       0.1522     -0.0519     -1.2487
-------------------------------------------------------------------------------
   56 O2    x      -2.4029     -0.1519      0.0224
            y      -0.0890     -1.2472      0.0673
            z       0.0072      0.0408     -1.0842
-------------------------------------------------------------------------------
   57 O3    x      -1.4253     -0.1545      0.1550
            y      -0.1766     -1.4056      0.0339
            z       0.0789     -0.0021     -2.5601
-------------------------------------------------------------------------------
   58 O2    x      -1.2389     -0.0956      0.0292
            y      -0.1160     -1.2479     -0.0673
            z       0.0398     -0.0719     -2.1154
-------------------------------------------------------------------------------
   59 O3    x      -1.3424      0.1584     -0.0046
            y       0.1532     -1.4391     -0.0866
            z      -0.0439     -0.0705     -2.6093
-------------------------------------------------------------------------------
   60 O2    x      -1.2208      0.1382     -0.0062
            y       0.1265     -1.2932      0.0389
            z       0.0122      0.0446     -2.0399
-------------------------------------------------------------------------------
   61 O2    x      -1.1866     -0.1273     -0.0440
            y      -0.0732     -1.2697      0.0677
            z      -0.0293      0.0459     -2.0728
-------------------------------------------------------------------------------
   62 O2    x      -1.1913     -0.1197     -0.0730
            y      -0.0659     -1.3208     -0.0175
            z      -0.0736      0.0061     -2.0391
-------------------------------------------------------------------------------
   63 O2    x      -1.2073      0.1102     -0.0091
            y       0.0853     -1.2576     -0.0837
            z      -0.0198     -0.0759     -2.1047
-------------------------------------------------------------------------------
   64 O3    x      -1.3734      0.1672     -0.1339
            y       0.1482     -1.4409      0.0853
            z      -0.0679      0.0372     -2.5830
-------------------------------------------------------------------------------
   65 O2    x      -1.2738      0.0712      0.0826
            y       0.1502     -2.4053     -0.0205
            z       0.1072     -0.0074     -1.0333
-------------------------------------------------------------------------------
   66 O2    x      -1.2578      0.0847     -0.0777
            y       0.1663     -2.4955      0.0038
            z      -0.1053      0.0233     -1.0083
-------------------------------------------------------------------------------
   67 O2    x      -1.2268     -0.0331      0.0983
            y      -0.1142     -2.5422      0.0228
            z       0.0793      0.0003     -1.0349
-------------------------------------------------------------------------------
   68 O2    x      -1.2243     -0.0855     -0.0997
            y      -0.1346     -2.5052      0.0393
            z      -0.0747      0.0029     -1.0404
-------------------------------------------------------------------------------
   69 O2    x      -2.3759     -0.1112     -0.0481
            y      -0.0566     -1.2606      0.0593
            z      -0.0346      0.0320     -1.0436
-------------------------------------------------------------------------------
   70 O2    x      -2.4116     -0.1497      0.0000
            y      -0.1031     -1.2472     -0.0619
            z       0.0016     -0.0288     -1.0594
-------------------------------------------------------------------------------
   71 O2    x      -2.5061      0.1034     -0.0057
            y       0.0577     -1.2890     -0.0281
            z      -0.0156     -0.0303     -0.9939
-------------------------------------------------------------------------------
   72 O2    x      -2.4618      0.0889     -0.0276
            y       0.0523     -1.2384      0.0582
            z      -0.0002      0.0483     -1.0276
-------------------------------------------------------------------------------




  Elastic Constant Matrix: (Units=GPa)

-------------------------------------------------------------------------------
  Indices      1         2         3         4         5         6    
-------------------------------------------------------------------------------
       1     52.2065   28.8332   28.0556   -0.6980    7.9545    0.3277
       2     28.8332   67.5055   21.1572    1.1483    8.2267   -1.5893
       3     28.0556   21.1572   43.4964   -0.7063    4.7689    1.4211
       4     -0.6980    1.1483   -0.7063   10.3840   -0.4495    1.1857
       5      7.9545    8.2267    4.7689   -0.4495   22.4183   -1.5114
       6      0.3277   -1.5893    1.4211    1.1857   -1.5114   23.6143
-------------------------------------------------------------------------------


  Elastic Compliance Matrix: (Units=1/GPa)

-------------------------------------------------------------------------------
  Indices      1         2         3         4         5         6    
-------------------------------------------------------------------------------
       1    0.033863 -0.008513 -0.017081  0.001880 -0.005250 -0.000445
       2   -0.008513  0.020255 -0.004088 -0.003433 -0.003499  0.001676
       3   -0.017081 -0.004088  0.036132  0.002017 -0.000242 -0.002329
       4    0.001880 -0.003433  0.002017  0.097612  0.001773 -0.005166
       5   -0.005250 -0.003499 -0.000242  0.001773  0.048032  0.002837
       6   -0.000445  0.001676 -0.002329 -0.005166  0.002837  0.043047
-------------------------------------------------------------------------------

  Mechanical properties :

-------------------------------------------------------------------------------
  Convention :                    Reuss         Voigt         Hill
-------------------------------------------------------------------------------
  Bulk  Modulus (GPa)     =      32.37702      35.47783      33.92742
  Shear Modulus (GPa)     =      14.34305      16.96080      15.65192
-------------------------------------------------------------------------------
  Velocity S-wave (km/s)  =       2.67907       2.91331       2.79864
  Velocity P-wave (km/s)  =       5.07658       5.39165       5.23649
-------------------------------------------------------------------------------
  Compressibility (1/GPa) =    0.03088611
-------------------------------------------------------------------------------
  Stress axis :                     x             y             z
-------------------------------------------------------------------------------
  Youngs Moduli (GPa)     =      29.53042      49.36969      27.67665
-------------------------------------------------------------------------------
  Poissons Ratio (x)      =                     0.42029       0.47273
  Poissons Ratio (y)      =       0.25140                     0.11315
  Poissons Ratio (z)      =       0.50440       0.20184
-------------------------------------------------------------------------------


  Piezoelectric Strain Matrix: (Units=C/m**2)

-------------------------------------------------------------------------------
  Indices      1         2         3         4         5         6    
-------------------------------------------------------------------------------
       x     0.22439   0.42754  -0.16797   0.08562  -0.06325  -0.57721
       y    -0.16577   0.17955  -0.58903   0.07776  -0.41349   0.23750
       z     0.19625  -0.22373  -0.44961  -0.27487   0.28672   0.02640
-------------------------------------------------------------------------------


  Piezoelectric Stress Matrix: (Units=10**-11 C/N)

-------------------------------------------------------------------------------
  Indices      1         2         3         4         5         6    
-------------------------------------------------------------------------------
       x     0.75781   0.63964  -1.01173   0.98425  -0.71570  -2.44612
       y     0.51304   0.90339  -1.94817   0.35147  -1.86644   1.03955
       z     1.41961  -0.43794  -1.93677  -2.62291   1.32203   0.39550
-------------------------------------------------------------------------------


  Static dielectric constant tensor : 

-------------------------------------------------------------------------------
              x         y         z
-------------------------------------------------------------------------------
       x     4.08794  -0.03519  -0.05944
       y    -0.03519   4.22746   0.01421
       z    -0.05944   0.01421   3.28893
--------------------------------------------------------------------------------

  High frequency dielectric constant tensor : 

-------------------------------------------------------------------------------
              x         y         z
-------------------------------------------------------------------------------
       x     1.66871   0.00003   0.00164
       y     0.00003   1.67618  -0.00134
       z     0.00164  -0.00134   1.61219
-------------------------------------------------------------------------------

  Static refractive indices : 

-------------------------------------------------------------------------------
    1 =    1.81229      2 =    2.02072      3 =    2.05831
-------------------------------------------------------------------------------

  High frequency refractive indices : 

-------------------------------------------------------------------------------
    1 =    1.26969      2 =    1.29180      3 =    1.29468
-------------------------------------------------------------------------------


  Time to end of optimisation =       9.0188 seconds


  Peak dynamic memory used =       5.01 MB 


  Timing analysis for GULP :

--------------------------------------------------------------------------------
  Task / Subroutine                                          Time (Seconds)
--------------------------------------------------------------------------------
  Calculation of reciprocal space energy and derivatives          0.5329
  Calculation of real space energy and derivatives                5.7324
  Calculation of three-body energy and derivatives                0.4751
  Calculation and manipulation of Hessian matrix                  2.6604
  Calculation of matrix inversion                                 0.0264
  Global summation overhead                                       0.0001
--------------------------------------------------------------------------------
  Total CPU time                                                  9.0189
--------------------------------------------------------------------------------


  Dump file written as c00905.vasp.grs
  CIF file written as c00905.vasp.cif


  Job Finished at 14:23.14 31st October    2025                               

