********************************************************************************
*                       GENERAL UTILITY LATTICE PROGRAM                        *
*                                 Julian Gale                                  *
*                       Curtin Institute for Computation                       *
*                    School of Molecular and Life Sciences                     *
*                    Curtin University, Western Australia                      *
********************************************************************************
* Version = 6.1.2 * Last modified =   3rd November 2022                        *
********************************************************************************
*  optimise     - perform optimisation run                                     *
*  conp         - constant pressure calculation                                *
*  property     - calculate properties for final geometry                      *
********************************************************************************

  Job Started  at 14:56.49 31st October    2025                               

  Number of CPUs =     1


  Total number of configurations input =      1

********************************************************************************
*  Input for Configuration =   1 : c01119.vasp                                 *
********************************************************************************

  Formula = Ge4Si20O48                                                  

  Number of irreducible atoms/shells =     120


  Total number atoms/shells =     120

  Dimensionality = 3               :  Bulk   



  Cartesian lattice vectors (Angstroms) :

       17.182800    0.000000    0.000000
        0.000000    7.513760    0.000000
        0.000000    0.000000   10.447700

  Cell parameters (Angstroms/Degrees):

  a =      17.1828    alpha =  90.0000
  b =       7.5138    beta  =  90.0000
  c =      10.4477    gamma =  90.0000

  Initial cell volume =        1348.875752 Angs**3

  Temperature of configuration =   0.00     K 

  Pressure of configuration =         0.000 GPa 

  Fractional coordinates of asymmetric unit :

--------------------------------------------------------------------------------
   No.  Atomic       x           y          z         Charge      Occupancy
        Label      (Frac)      (Frac)     (Frac)        (e)         (Frac)  
--------------------------------------------------------------------------------
      1 Ge    c    0.556730    0.000000    0.122130     4.00000    1.000000    
      2 Ge    c    0.660190 *  0.706090 *  0.726560 *   4.00000    1.000000    
      3 Ge    c    0.839340 *  0.705910 *  0.017440 *   4.00000    1.000000    
      4 Ge    c    0.160660 *  0.705910 *  0.982560 *   4.00000    1.000000    
      5 Si    c    0.052090 *  0.000000 *  0.372270 *   4.00000    1.000000    
      6 Si    c    0.447910 *  0.000000 *  0.372270 *   4.00000    1.000000    
      7 Si    c    0.947910 *  0.000000 *  0.627730 *   4.00000    1.000000    
      8 Si    c    0.552090 *  0.000000 *  0.627730 *   4.00000    1.000000    
      9 Si    c    0.943270 *  0.000000 *  0.122130 *   4.00000    1.000000    
     10 Si    c    0.443270 *  0.000000 *  0.877870 *   4.00000    1.000000    
     11 Si    c    0.056730 *  0.000000 *  0.877870 *   4.00000    1.000000    
     12 Si    c    0.160190 *  0.293910 *  0.273440 *   4.00000    1.000000    
     13 Si    c    0.339810 *  0.706090 *  0.273440 *   4.00000    1.000000    
     14 Si    c    0.839810 *  0.293910 *  0.726560 *   4.00000    1.000000    
     15 Si    c    0.839810 *  0.706090 *  0.726560 *   4.00000    1.000000    
     16 Si    c    0.660190 *  0.293910 *  0.726560 *   4.00000    1.000000    
     17 Si    c    0.160190 *  0.706090 *  0.273440 *   4.00000    1.000000    
     18 Si    c    0.339810 *  0.293910 *  0.273440 *   4.00000    1.000000    
     19 Si    c    0.660660 *  0.294090 *  0.017440 *   4.00000    1.000000    
     20 Si    c    0.339340 *  0.294090 *  0.982560 *   4.00000    1.000000    
     21 Si    c    0.339340 *  0.705910 *  0.982560 *   4.00000    1.000000    
     22 Si    c    0.160660 *  0.294090 *  0.982560 *   4.00000    1.000000    
     23 Si    c    0.660660 *  0.705910 *  0.017440 *   4.00000    1.000000    
     24 Si    c    0.839340 *  0.294090 *  0.017440 *   4.00000    1.000000    
     25 O2    c    0.106570 *  0.174340 *  0.366200 *   0.87073    1.000000    
     26 O2    c    0.393430 *  0.825660 *  0.366200 *   0.87073    1.000000    
     27 O2    c    0.893430 *  0.174340 *  0.633800 *   0.87073    1.000000    
     28 O3    c    0.606570 *  0.825660 *  0.633800 *   1.33043    1.000000    
     29 O2    c    0.893430 *  0.825660 *  0.633800 *   0.87073    1.000000    
     30 O2    c    0.606570 *  0.174340 *  0.633800 *   0.87073    1.000000    
     31 O2    c    0.106570 *  0.825660 *  0.366200 *   0.87073    1.000000    
     32 O2    c    0.393430 *  0.174340 *  0.366200 *   0.87073    1.000000    
     33 O2    c    0.000000 *  0.000000 *  0.500000 *   0.87073    1.000000    
     34 O2    c    0.500000 *  0.000000 *  0.500000 *   0.87073    1.000000    
     35 O2    c    0.994520 *  0.000000 *  0.250840 *   0.87073    1.000000    
     36 O3    c    0.505480 *  0.000000 *  0.250840 *   1.33043    1.000000    
     37 O2    c    0.005480 *  0.000000 *  0.749160 *   0.87073    1.000000    
     38 O2    c    0.494520 *  0.000000 *  0.749160 *   0.87073    1.000000    
     39 O3    c    0.610230 *  0.175520 *  0.115390 *   1.33043    1.000000    
     40 O3    c    0.889770 *  0.824480 *  0.115390 *   1.33043    1.000000    
     41 O2    c    0.389770 *  0.175520 *  0.884610 *   0.87073    1.000000    
     42 O3    c    0.110230 *  0.824480 *  0.884610 *   1.33043    1.000000    
     43 O2    c    0.389770 *  0.824480 *  0.884610 *   0.87073    1.000000    
     44 O2    c    0.110230 *  0.175520 *  0.884610 *   0.87073    1.000000    
     45 O3    c    0.610230 *  0.824480 *  0.115390 *   1.33043    1.000000    
     46 O2    c    0.889770 *  0.175520 *  0.115390 *   0.87073    1.000000    
     47 O3    c    0.500000 *  0.000000 *  0.000000 *   1.33043    1.000000    
     48 O2    c    0.000000 *  0.000000 *  0.000000 *   0.87073    1.000000    
     49 O2    c    0.151750 *  0.500000 *  0.313330 *   0.87073    1.000000    
     50 O2    c    0.348250 *  0.500000 *  0.313330 *   0.87073    1.000000    
     51 O2    c    0.848250 *  0.500000 *  0.686670 *   0.87073    1.000000    
     52 O3    c    0.651750 *  0.500000 *  0.686670 *   1.33043    1.000000    
     53 O2    c    0.250000 *  0.234950 *  0.285720 *   0.87073    1.000000    
     54 O2    c    0.250000 *  0.765050 *  0.285720 *   0.87073    1.000000    
     55 O2    c    0.750000 *  0.234950 *  0.714280 *   0.87073    1.000000    
     56 O3    c    0.750000 *  0.765050 *  0.714280 *   1.33043    1.000000    
     57 O2    c    0.131410 *  0.268650 *  0.127790 *   0.87073    1.000000    
     58 O2    c    0.368590 *  0.731350 *  0.127790 *   0.87073    1.000000    
     59 O2    c    0.868590 *  0.268650 *  0.872210 *   0.87073    1.000000    
     60 O3    c    0.631410 *  0.731350 *  0.872210 *   1.33043    1.000000    
     61 O3    c    0.868590 *  0.731350 *  0.872210 *   1.33043    1.000000    
     62 O2    c    0.631410 *  0.268650 *  0.872210 *   0.87073    1.000000    
     63 O3    c    0.131410 *  0.731350 *  0.127790 *   1.33043    1.000000    
     64 O2    c    0.368590 *  0.268650 *  0.127790 *   0.87073    1.000000    
     65 O2    c    0.653920 *  0.500000 *  0.058200 *   0.87073    1.000000    
     66 O3    c    0.846080 *  0.500000 *  0.058200 *   1.33043    1.000000    
     67 O2    c    0.346080 *  0.500000 *  0.941800 *   0.87073    1.000000    
     68 O3    c    0.153920 *  0.500000 *  0.941800 *   1.33043    1.000000    
     69 O2    c    0.750000 *  0.231060 *  0.027050 *   0.87073    1.000000    
     70 O3    c    0.750000 *  0.768940 *  0.027050 *   1.33043    1.000000    
     71 O2    c    0.250000 *  0.231060 *  0.972950 *   0.87073    1.000000    
     72 O3    c    0.250000 *  0.768940 *  0.972950 *   1.33043    1.000000    
     73 O2    s    0.106570 *  0.174340 *  0.366200 *  -2.87073    1.000000    
     74 O2    s    0.393430 *  0.825660 *  0.366200 *  -2.87073    1.000000    
     75 O2    s    0.893430 *  0.174340 *  0.633800 *  -2.87073    1.000000    
     76 O3    s    0.606570 *  0.825660 *  0.633800 *  -3.33043    1.000000    
     77 O2    s    0.893430 *  0.825660 *  0.633800 *  -2.87073    1.000000    
     78 O2    s    0.606570 *  0.174340 *  0.633800 *  -2.87073    1.000000    
     79 O2    s    0.106570 *  0.825660 *  0.366200 *  -2.87073    1.000000    
     80 O2    s    0.393430 *  0.174340 *  0.366200 *  -2.87073    1.000000    
     81 O2    s    0.000000 *  0.000000 *  0.500000 *  -2.87073    1.000000    
     82 O2    s    0.500000 *  0.000000 *  0.500000 *  -2.87073    1.000000    
     83 O2    s    0.994520 *  0.000000 *  0.250840 *  -2.87073    1.000000    
     84 O3    s    0.505480 *  0.000000 *  0.250840 *  -3.33043    1.000000    
     85 O2    s    0.005480 *  0.000000 *  0.749160 *  -2.87073    1.000000    
     86 O2    s    0.494520 *  0.000000 *  0.749160 *  -2.87073    1.000000    
     87 O3    s    0.610230 *  0.175520 *  0.115390 *  -3.33043    1.000000    
     88 O3    s    0.889770 *  0.824480 *  0.115390 *  -3.33043    1.000000    
     89 O2    s    0.389770 *  0.175520 *  0.884610 *  -2.87073    1.000000    
     90 O3    s    0.110230 *  0.824480 *  0.884610 *  -3.33043    1.000000    
     91 O2    s    0.389770 *  0.824480 *  0.884610 *  -2.87073    1.000000    
     92 O2    s    0.110230 *  0.175520 *  0.884610 *  -2.87073    1.000000    
     93 O3    s    0.610230 *  0.824480 *  0.115390 *  -3.33043    1.000000    
     94 O2    s    0.889770 *  0.175520 *  0.115390 *  -2.87073    1.000000    
     95 O3    s    0.500000 *  0.000000 *  0.000000 *  -3.33043    1.000000    
     96 O2    s    0.000000 *  0.000000 *  0.000000 *  -2.87073    1.000000    
     97 O2    s    0.151750 *  0.500000 *  0.313330 *  -2.87073    1.000000    
     98 O2    s    0.348250 *  0.500000 *  0.313330 *  -2.87073    1.000000    
     99 O2    s    0.848250 *  0.500000 *  0.686670 *  -2.87073    1.000000    
    100 O3    s    0.651750 *  0.500000 *  0.686670 *  -3.33043    1.000000    
    101 O2    s    0.250000 *  0.234950 *  0.285720 *  -2.87073    1.000000    
    102 O2    s    0.250000 *  0.765050 *  0.285720 *  -2.87073    1.000000    
    103 O2    s    0.750000 *  0.234950 *  0.714280 *  -2.87073    1.000000    
    104 O3    s    0.750000 *  0.765050 *  0.714280 *  -3.33043    1.000000    
    105 O2    s    0.131410 *  0.268650 *  0.127790 *  -2.87073    1.000000    
    106 O2    s    0.368590 *  0.731350 *  0.127790 *  -2.87073    1.000000    
    107 O2    s    0.868590 *  0.268650 *  0.872210 *  -2.87073    1.000000    
    108 O3    s    0.631410 *  0.731350 *  0.872210 *  -3.33043    1.000000    
    109 O3    s    0.868590 *  0.731350 *  0.872210 *  -3.33043    1.000000    
    110 O2    s    0.631410 *  0.268650 *  0.872210 *  -2.87073    1.000000    
    111 O3    s    0.131410 *  0.731350 *  0.127790 *  -3.33043    1.000000    
    112 O2    s    0.368590 *  0.268650 *  0.127790 *  -2.87073    1.000000    
    113 O2    s    0.653920 *  0.500000 *  0.058200 *  -2.87073    1.000000    
    114 O3    s    0.846080 *  0.500000 *  0.058200 *  -3.33043    1.000000    
    115 O2    s    0.346080 *  0.500000 *  0.941800 *  -2.87073    1.000000    
    116 O3    s    0.153920 *  0.500000 *  0.941800 *  -3.33043    1.000000    
    117 O2    s    0.750000 *  0.231060 *  0.027050 *  -2.87073    1.000000    
    118 O3    s    0.750000 *  0.768940 *  0.027050 *  -3.33043    1.000000    
    119 O2    s    0.250000 *  0.231060 *  0.972950 *  -2.87073    1.000000    
    120 O3    s    0.250000 *  0.768940 *  0.972950 *  -3.33043    1.000000    
--------------------------------------------------------------------------------



********************************************************************************
*  General input information                                                   *
********************************************************************************

  Species output for all configurations : 

--------------------------------------------------------------------------------
  Species    Type    Atomic    Atomic    Charge       Radii (Angs)     Library
                     Number     Mass       (e)     Cova   Ionic  VDW   Symbol
--------------------------------------------------------------------------------
    Ge       Core       32      72.61   4.000000   1.170  0.000  1.750 Ge       
    Si       Core       14      28.09   4.000000   1.200  0.000  2.100 Si       
    O1       Core        8      16.00   1.733957   0.730  0.000  0.000 O1       
    O2       Core        8      16.00   0.870733   0.730  0.000  1.360 O2       
    O3       Core        8      16.00   1.330431   0.730  0.000  1.360 O3       
    O1       Shell       8       0.00  -3.733957   0.730  0.000  0.000 O1       
    O2       Shell       8       0.00  -2.870733   0.730  0.000  0.000 O2       
    O3       Shell       8       0.00  -3.330431   0.730  0.000  0.000 O3       
--------------------------------------------------------------------------------


  Lattice summation method               =    Ewald          (3-D)
                                         =    Parry          (2-D)
                                         =    Saunders et al (1-D)
  Accuracy factor for lattice sums       =   12.000


  Analytic derivatives to be used

  Time limit = Infinity

  Maximum range for interatomic potentials =    100000.000000 Angstroms

  General interatomic potentials :

--------------------------------------------------------------------------------
Atom  Types   Potential      Parameter       Value         Units   Cutoffs(Ang)
  1     2                                                            Min /  Max 
--------------------------------------------------------------------------------
Si   c O1   s Buckingham    Buckingham A     1315.2478    eV        0.000 16.000
                            Buckingham rho  0.31775900    Ang       
                            Buckingham C     10.141118    eV*Ang^6  
--------------------------------------------------------------------------------
Si   c O2   s Buckingham    Buckingham A     1315.2478    eV        0.000 16.000
                            Buckingham rho  0.31775900    Ang       
                            Buckingham C     10.141118    eV*Ang^6  
--------------------------------------------------------------------------------
Si   c O3   s Buckingham    Buckingham A     1315.2478    eV        0.000 16.000
                            Buckingham rho  0.31775900    Ang       
                            Buckingham C     10.141118    eV*Ang^6  
--------------------------------------------------------------------------------
Ge   c O1   s Buckingham    Buckingham A     1497.3996    eV        0.000 16.000
                            Buckingham rho  0.32564600    Ang       
                            Buckingham C     16.808599    eV*Ang^6  
--------------------------------------------------------------------------------
Ge   c O2   s Buckingham    Buckingham A     1497.3996    eV        0.000 16.000
                            Buckingham rho  0.32564600    Ang       
                            Buckingham C     16.808599    eV*Ang^6  
--------------------------------------------------------------------------------
Ge   c O3   s Buckingham    Buckingham A     1497.3996    eV        0.000 16.000
                            Buckingham rho  0.32564600    Ang       
                            Buckingham C     16.808599    eV*Ang^6  
--------------------------------------------------------------------------------
O1   s O1   s Buckingham    Buckingham A     22764.000    eV        0.000 16.000
                            Buckingham rho  0.14900000    Ang       
                            Buckingham C     10.937044    eV*Ang^6  
--------------------------------------------------------------------------------
O1   s O2   s Buckingham    Buckingham A     22764.000    eV        0.000 16.000
                            Buckingham rho  0.14900000    Ang       
                            Buckingham C     10.937044    eV*Ang^6  
--------------------------------------------------------------------------------
O1   s O3   s Buckingham    Buckingham A     22764.000    eV        0.000 16.000
                            Buckingham rho  0.14900000    Ang       
                            Buckingham C     10.937044    eV*Ang^6  
--------------------------------------------------------------------------------
O2   s O2   s Buckingham    Buckingham A     22764.000    eV        0.000 16.000
                            Buckingham rho  0.14900000    Ang       
                            Buckingham C     10.937044    eV*Ang^6  
--------------------------------------------------------------------------------
O2   s O3   s Buckingham    Buckingham A     22764.000    eV        0.000 16.000
                            Buckingham rho  0.14900000    Ang       
                            Buckingham C     10.937044    eV*Ang^6  
--------------------------------------------------------------------------------
O3   s O3   s Buckingham    Buckingham A     22764.000    eV        0.000 16.000
                            Buckingham rho  0.14900000    Ang       
                            Buckingham C     10.937044    eV*Ang^6  
--------------------------------------------------------------------------------
O1   c O1   s Spring (c-s)  Spring k 2       180.31577    eV*Ang^-2 0.000  0.800
                            Spring k 4       0.0000000    eV*Ang^-4 
--------------------------------------------------------------------------------
O2   c O2   s Spring (c-s)  Spring k 2       75.969800    eV*Ang^-2 0.000  0.800
                            Spring k 4       0.0000000    eV*Ang^-4 
--------------------------------------------------------------------------------
O3   c O3   s Spring (c-s)  Spring k 2       128.14270    eV*Ang^-2 0.000  0.800
                            Spring k 4       0.0000000    eV*Ang^-4 
--------------------------------------------------------------------------------

  General Three-body potentials :

--------------------------------------------------------------------------------
  Atoms       Potential      Parameter       Value         Units   Cutoffs(Ang)
  1 / 2 / 3                                                          Min /  Max 
--------------------------------------------------------------------------------
Si    core    Harmonic      Three-body cnst  1.2614000    eV*rad^-2 0.000  1.900
O1    shel                  Three-body angl  109.47000    degrees   0.000  1.900
O1    shel                  Three-body k4    0.0000000    eV*rad^-4 0.000  3.500
                            Three-body k3    0.0000000    eV*rad^-3 
--------------------------------------------------------------------------------
Si    core    Harmonic      Three-body cnst  1.2614000    eV*rad^-2 0.000  1.900
O1    shel                  Three-body angl  109.47000    degrees   0.000  1.900
õ(1   shel                  Three-body k4    0.0000000    eV*rad^-4 0.000  3.500
                            Three-body k3    0.0000000    eV*rad^-3 
--------------------------------------------------------------------------------
Si    core    Harmonic      Three-body cnst  1.2614000    eV*rad^-2 0.000  1.900
õ(1   shel                  Three-body angl  109.47000    degrees   0.000  1.900
õ(1   shel                  Three-body k4    0.0000000    eV*rad^-4 0.000  3.500
                            Three-body k3    0.0000000    eV*rad^-3 
--------------------------------------------------------------------------------
Si    core    Harmonic      Three-body cnst  1.2614000    eV*rad^-2 0.000  1.900
O1    shel                  Three-body angl  109.47000    degrees   0.000  1.900
O2    shel                  Three-body k4    0.0000000    eV*rad^-4 0.000  3.500
                            Three-body k3    0.0000000    eV*rad^-3 
--------------------------------------------------------------------------------
Si    core    Harmonic      Three-body cnst  1.2614000    eV*rad^-2 0.000  1.900
O1    shel                  Three-body angl  109.47000    degrees   0.000  1.900
õ(2   shel                  Three-body k4    0.0000000    eV*rad^-4 0.000  3.500
                            Three-body k3    0.0000000    eV*rad^-3 
--------------------------------------------------------------------------------
Si    core    Harmonic      Three-body cnst  1.2614000    eV*rad^-2 0.000  1.900
O2    shel                  Three-body angl  109.47000    degrees   0.000  1.900
õ(1   shel                  Three-body k4    0.0000000    eV*rad^-4 0.000  3.500
                            Three-body k3    0.0000000    eV*rad^-3 
--------------------------------------------------------------------------------
Si    core    Harmonic      Three-body cnst  1.2614000    eV*rad^-2 0.000  1.900
õ(1   shel                  Three-body angl  109.47000    degrees   0.000  1.900
õ(2   shel                  Three-body k4    0.0000000    eV*rad^-4 0.000  3.500
                            Three-body k3    0.0000000    eV*rad^-3 
--------------------------------------------------------------------------------
Si    core    Harmonic      Three-body cnst  1.2614000    eV*rad^-2 0.000  1.900
O2    shel                  Three-body angl  109.47000    degrees   0.000  1.900
O2    shel                  Three-body k4    0.0000000    eV*rad^-4 0.000  3.500
                            Three-body k3    0.0000000    eV*rad^-3 
--------------------------------------------------------------------------------
Si    core    Harmonic      Three-body cnst  1.2614000    eV*rad^-2 0.000  1.900
O2    shel                  Three-body angl  109.47000    degrees   0.000  1.900
õ(2   shel                  Three-body k4    0.0000000    eV*rad^-4 0.000  3.500
                            Three-body k3    0.0000000    eV*rad^-3 
--------------------------------------------------------------------------------
Si    core    Harmonic      Three-body cnst  1.2614000    eV*rad^-2 0.000  1.900
õ(2   shel                  Three-body angl  109.47000    degrees   0.000  1.900
õ(2   shel                  Three-body k4    0.0000000    eV*rad^-4 0.000  3.500
                            Three-body k3    0.0000000    eV*rad^-3 
--------------------------------------------------------------------------------

********************************************************************************
*  Output for configuration   1 : c01119.vasp                                  *
********************************************************************************


  Components of energy : 

--------------------------------------------------------------------------------
  Interatomic potentials     =         768.36989847 eV    
  Three-body potentials      =           0.01122469 eV    
  Monopole - monopole (real) =       -2676.00317478 eV    
  Monopole - monopole (recip)=       -1115.35404472 eV    
  Monopole - monopole (total)=       -3791.35721950 eV    
--------------------------------------------------------------------------------
  Total lattice energy       =       -3022.97609634 eV    
--------------------------------------------------------------------------------
  Total lattice energy       =         -291670.9829 kJ/(mole unit cells)
--------------------------------------------------------------------------------


  Number of variables =      363

  Maximum number of calculations  =          1000
  Maximum Hessian update interval =            10
  Maximum step size               =   0.100000000
  Maximum parameter tolerance     =   0.000010000
  Maximum function  tolerance     =   0.000010000
  Maximum gradient  tolerance     =   0.001000000
  Maximum gradient  component     =   0.010000000

  Symmetry not applied to optimisation

  Cell parameters to be optimised using strains

  Newton-Raphson optimiser to be used

  BFGS hessian update to be used

  Lower half triangular hessian to be used

  Minimiser to switch to RFO
  When gradient norm is less than     0.050000

  Dumpfile to be written after every cycle

  Start of bulk optimisation :

  Cycle:      0 Energy:     -3022.976096  Gnorm:      4.535510  CPU:    0.113
  ** Hessian calculated **
  Cycle:      1 Energy:     -3054.300856  Gnorm:      1.022837  CPU:    0.223
  ** Hessian calculated **
  Cycle:      2 Energy:     -3057.022104  Gnorm:      0.605730  CPU:    0.408
  Cycle:      3 Energy:     -3058.031078  Gnorm:      0.406341  CPU:    0.497
  Cycle:      4 Energy:     -3058.939725  Gnorm:      0.304573  CPU:    0.600
  Cycle:      5 Energy:     -3059.676392  Gnorm:      0.226811  CPU:    0.703
  Cycle:      6 Energy:     -3060.090102  Gnorm:      0.173232  CPU:    0.792
  Cycle:      7 Energy:     -3060.318189  Gnorm:      0.122164  CPU:    0.879
  Cycle:      8 Energy:     -3060.429805  Gnorm:      0.089733  CPU:    0.966
  Cycle:      9 Energy:     -3060.476057  Gnorm:      0.064376  CPU:    1.053
  Cycle:     10 Energy:     -3060.512284  Gnorm:      0.059278  CPU:    1.155
  Cycle:     11 Energy:     -3060.547358  Gnorm:      0.061300  CPU:    1.259
  ** Hessian calculated **
  Cycle:     12 Energy:     -3060.581279  Gnorm:      0.059045  CPU:    1.458
  Cycle:     13 Energy:     -3060.636266  Gnorm:      0.055132  CPU:    1.577
  Cycle:     14 Energy:     -3060.702931  Gnorm:      0.049968  CPU:    1.680
  ** Hessian has wrong structure
  ** Imaginary eigenvectors =   3
  Cycle:     15 Energy:     -3060.717021  Gnorm:      0.068211  CPU:    1.930
  ** Hessian has wrong structure
  ** Imaginary eigenvectors =   3
  ** Hessian has wrong structure
  ** Imaginary eigenvectors =   2
  Cycle:     16 Energy:     -3060.747262  Gnorm:      0.070250  CPU:    2.446
  ** Hessian has wrong structure
  ** Imaginary eigenvectors =   1
  ** Hessian has wrong structure
  ** Imaginary eigenvectors =   1
  Cycle:     17 Energy:     -3060.790074  Gnorm:      0.075204  CPU:    2.870
  ** Hessian has wrong structure
  ** Imaginary eigenvectors =   1
  Cycle:     18 Energy:     -3060.794962  Gnorm:      0.076233  CPU:    3.152
  ** Hessian has wrong structure
  ** Imaginary eigenvectors =   1
  ** Hessian has required structure
  Cycle:     19 Energy:     -3061.107485  Gnorm:      0.042004  CPU:    3.647
  ** Hessian has required structure
  Cycle:     20 Energy:     -3061.204204  Gnorm:      0.028995  CPU:    3.803
  ** Hessian has required structure
  Cycle:     21 Energy:     -3061.252567  Gnorm:      0.020625  CPU:    3.957
  ** Hessian has required structure
  Cycle:     22 Energy:     -3061.277874  Gnorm:      0.026597  CPU:    4.098
  ** Hessian has required structure
  Cycle:     23 Energy:     -3061.305006  Gnorm:      0.017670  CPU:    4.238
  ** Hessian has required structure
  Cycle:     24 Energy:     -3061.327537  Gnorm:      0.026313  CPU:    4.377
  ** Hessian has required structure
  Cycle:     25 Energy:     -3061.341991  Gnorm:      0.039707  CPU:    4.520
  ** Hessian has required structure
  Cycle:     26 Energy:     -3061.364473  Gnorm:      0.032158  CPU:    4.660
  ** Hessian has required structure
  Cycle:     27 Energy:     -3061.391388  Gnorm:      0.029127  CPU:    4.815
  ** Hessian has required structure
  Cycle:     28 Energy:     -3061.409866  Gnorm:      0.019586  CPU:    4.938
  ** Hessian has required structure
  Cycle:     29 Energy:     -3061.438146  Gnorm:      0.014583  CPU:    5.185
  ** Hessian has required structure
  Cycle:     30 Energy:     -3061.451124  Gnorm:      0.009835  CPU:    5.325
  ** Hessian has required structure
  Cycle:     31 Energy:     -3061.454109  Gnorm:      0.005462  CPU:    5.464
  ** Hessian has required structure
  Cycle:     32 Energy:     -3061.455127  Gnorm:      0.003863  CPU:    5.605
  ** Hessian has required structure
  Cycle:     33 Energy:     -3061.455522  Gnorm:      0.001897  CPU:    5.745
  ** Hessian has required structure
  Cycle:     34 Energy:     -3061.455646  Gnorm:      0.001160  CPU:    5.885
  ** Hessian has required structure
  Cycle:     35 Energy:     -3061.455687  Gnorm:      0.000732  CPU:    6.026
  ** Hessian has required structure
  Cycle:     36 Energy:     -3061.455703  Gnorm:      0.000396  CPU:    6.165
  ** Hessian has required structure
  Cycle:     37 Energy:     -3061.455708  Gnorm:      0.000210  CPU:    6.305
  ** Hessian has required structure
  Cycle:     38 Energy:     -3061.455710  Gnorm:      0.000185  CPU:    6.430
  ** Hessian has required structure
  Cycle:     39 Energy:     -3061.455711  Gnorm:      0.000130  CPU:    6.646
  ** Hessian has required structure
  Cycle:     40 Energy:     -3061.455711  Gnorm:      0.000128  CPU:    6.790
  ** Hessian has required structure
  Cycle:     41 Energy:     -3061.455711  Gnorm:      0.000128  CPU:    6.949
  ** Hessian has required structure
  Cycle:     42 Energy:     -3061.455711  Gnorm:      0.000127  CPU:    7.091
  ** Hessian has required structure
  Cycle:     43 Energy:     -3061.455711  Gnorm:      0.000120  CPU:    7.225
  ** Hessian has required structure
  Cycle:     44 Energy:     -3061.455711  Gnorm:      0.000118  CPU:    7.359
  ** Hessian has required structure
  Cycle:     45 Energy:     -3061.455711  Gnorm:      0.000287  CPU:    7.589
  ** Hessian has required structure
  Cycle:     46 Energy:     -3061.455712  Gnorm:      0.000258  CPU:    7.831
  ** Hessian has required structure
  Cycle:     47 Energy:     -3061.455712  Gnorm:      0.000258  CPU:    7.972
  ** Hessian has required structure
  Cycle:     48 Energy:     -3061.455712  Gnorm:      0.000258  CPU:    8.112
  ** Hessian has required structure
  Cycle:     49 Energy:     -3061.455712  Gnorm:      0.000257  CPU:    8.252
  ** Hessian has required structure
  Cycle:     50 Energy:     -3061.455712  Gnorm:      0.000257  CPU:    8.392
  ** Hessian has required structure
  Cycle:     51 Energy:     -3061.455712  Gnorm:      0.000257  CPU:    8.530
  ** Hessian has required structure
  Cycle:     52 Energy:     -3061.455712  Gnorm:      0.000275  CPU:    8.720
  ** Hessian has required structure
  Cycle:     53 Energy:     -3061.455712  Gnorm:      0.000274  CPU:    9.081
  ** Hessian calculated **
  Cycle:     54 Energy:     -3061.455712  Gnorm:      0.000228  CPU:    9.265
  ** Hessian has required structure
  Cycle:     55 Energy:     -3061.455712  Gnorm:      0.000277  CPU:    9.402
  ** Hessian has required structure
  Cycle:     56 Energy:     -3061.455712  Gnorm:      0.000271  CPU:    9.541
  ** Hessian has required structure
  Cycle:     57 Energy:     -3061.455712  Gnorm:      0.000268  CPU:    9.678
  ** Hessian has required structure
  Cycle:     58 Energy:     -3061.455712  Gnorm:      0.000270  CPU:    9.817
  ** Hessian has required structure
  Cycle:     59 Energy:     -3061.455712  Gnorm:      0.000270  CPU:    9.955
  ** Hessian has required structure
  Cycle:     60 Energy:     -3061.455712  Gnorm:      0.000269  CPU:   10.083
  ** Hessian has required structure
  Cycle:     61 Energy:     -3061.455712  Gnorm:      0.000269  CPU:   10.202
  ** Hessian has required structure
  Cycle:     62 Energy:     -3061.455712  Gnorm:      0.000269  CPU:   10.324
  ** Hessian has required structure
  Cycle:     63 Energy:     -3061.455712  Gnorm:      0.000269  CPU:   10.446
  ** Hessian has required structure
  Cycle:     64 Energy:     -3061.455712  Gnorm:      0.000269  CPU:   10.705
  ** Hessian calculated **


  **** Optimisation achieved ****


  Final energy =   -3061.45571187 eV      
  Final Gnorm  =       0.00027512

  Components of energy : 

--------------------------------------------------------------------------------
  Interatomic potentials     =         815.72749503 eV    
  Three-body potentials      =           0.19102315 eV    
  Monopole - monopole (real) =       -2169.23548947 eV    
  Monopole - monopole (recip)=       -1708.13874058 eV    
  Monopole - monopole (total)=       -3877.37423005 eV    
--------------------------------------------------------------------------------
  Total lattice energy       =       -3061.45571187 eV    
--------------------------------------------------------------------------------
  Total lattice energy       =         -295383.6776 kJ/(mole unit cells)
--------------------------------------------------------------------------------

  Final fractional coordinates of atoms :

--------------------------------------------------------------------------------
   No.  Atomic        x           y          z          Radius
        Label       (Frac)      (Frac)     (Frac)       (Angs) 
--------------------------------------------------------------------------------
     1  Ge    c     0.556730    0.000000    0.122130    0.000000
     2  Ge    c     0.642145    0.678512    0.711482    0.000000
     3  Ge    c     0.827008    0.734079    0.010920    0.000000
     4  Ge    c     0.162077    0.728415    0.970802    0.000000
     5  Si    c     0.045799    0.018839    0.363125    0.000000
     6  Si    c     0.446559    0.012136    0.370355    0.000000
     7  Si    c     0.943580    0.017634    0.617524    0.000000
     8  Si    c     0.539278    0.990203    0.631309    0.000000
     9  Si    c     0.942353    0.018336    0.108876    0.000000
    10  Si    c     0.440485    0.012990    0.886393    0.000000
    11  Si    c     0.049513    0.008384    0.868780    0.000000
    12  Si    c     0.148784    0.324596    0.276119    0.000000
    13  Si    c     0.341898    0.701263    0.277134    0.000000
    14  Si    c     0.843533    0.323618    0.708536    0.000000
    15  Si    c     0.825571    0.727471    0.702921    0.000000
    16  Si    c     0.661628    0.269169    0.718835    0.000000
    17  Si    c     0.160836    0.731743    0.276179    0.000000
    18  Si    c     0.330588    0.298718    0.275780    0.000000
    19  Si    c     0.672039    0.279453    0.016293    0.000000
    20  Si    c     0.327534    0.294955    0.975873    0.000000
    21  Si    c     0.346614    0.691653    0.975005    0.000000
    22  Si    c     0.143724    0.323904    0.978119    0.000000
    23  Si    c     0.643674    0.674984    0.018131    0.000000
    24  Si    c     0.855134    0.336303    0.005492    0.000000
    25  O2    c     0.091707    0.206428    0.364022    0.000000
    26  O2    c     0.403438    0.822655    0.355078    0.000000
    27  O2    c     0.899271    0.204651    0.619307    0.000000
    28  O3    c     0.572083    0.794361    0.627610    0.000000
    29  O2    c     0.880010    0.858906    0.620271    0.000000
    30  O2    c     0.615939    0.119508    0.637085    0.000000
    31  O2    c     0.108617    0.860592    0.363647    0.000000
    32  O2    c     0.382194    0.165549    0.357840    0.000000
    33  O2    c     0.992943    0.003661    0.488253    0.000000
    34  O2    c     0.485327    0.028770    0.509540    0.000000
    35  O2    c     0.989729    0.002426    0.239930    0.000000
    36  O3    c     0.516492    0.033347    0.270175    0.000000
    37  O2    c     0.003140    0.003529    0.736234    0.000000
    38  O2    c     0.484774    0.028925    0.753184    0.000000
    39  O3    c     0.639530    0.135338    0.111498    0.000000
    40  O3    c     0.867584    0.890559    0.111018    0.000000
    41  O2    c     0.366680    0.146944    0.887298    0.000000
    42  O3    c     0.118421    0.867883    0.864868    0.000000
    43  O2    c     0.411000    0.810992    0.902500    0.000000
    44  O2    c     0.087045    0.201462    0.892020    0.000000
    45  O3    c     0.581980    0.782373    0.103181    0.000000
    46  O2    c     0.914105    0.218562    0.089168    0.000000
    47  O3    c     0.494990    0.073071    0.003388    0.000000
    48  O2    c     0.993940    0.950399    0.987687    0.000000
    49  O2    c     0.130956    0.530788    0.294964    0.000000
    50  O2    c     0.360869    0.497471    0.303898    0.000000
    51  O2    c     0.860056    0.529936    0.687170    0.000000
    52  O3    c     0.622916    0.456473    0.694998    0.000000
    53  O2    c     0.238922    0.283408    0.315233    0.000000
    54  O2    c     0.252665    0.745389    0.319116    0.000000
    55  O2    c     0.752758    0.278469    0.673767    0.000000
    56  O3    c     0.735857    0.726172    0.654644    0.000000
    57  O2    c     0.133318    0.271039    0.127616    0.000000
    58  O2    c     0.352184    0.740501    0.126305    0.000000
    59  O2    c     0.862918    0.276560    0.856360    0.000000
    60  O3    c     0.634964    0.737569    0.871261    0.000000
    61  O3    c     0.827047    0.789697    0.850667    0.000000
    62  O2    c     0.660075    0.214847    0.868737    0.000000
    63  O3    c     0.153530    0.791579    0.129659    0.000000
    64  O2    c     0.339060    0.248251    0.125839    0.000000
    65  O2    c     0.627395    0.465868    0.030977    0.000000
    66  O3    c     0.877283    0.537718    0.025819    0.000000
    67  O2    c     0.366569    0.486544    0.950172    0.000000
    68  O3    c     0.120151    0.521874    0.954520    0.000000
    69  O2    c     0.764369    0.309147    0.047576    0.000000
    70  O3    c     0.731885    0.716570    0.065530    0.000000
    71  O2    c     0.235247    0.298887    0.940170    0.000000
    72  O3    c     0.259704    0.728600    0.925643    0.000000
    73  O2    s     0.093128    0.199657    0.354315    0.000000
    74  O2    s     0.401119    0.829175    0.347958    0.000000
    75  O2    s     0.897886    0.197830    0.628835    0.000000
    76  O3    s     0.574503    0.804512    0.634744    0.000000
    77  O2    s     0.880942    0.861828    0.628937    0.000000
    78  O2    s     0.612971    0.122363    0.645430    0.000000
    79  O2    s     0.107660    0.863328    0.354013    0.000000
    80  O2    s     0.383266    0.164078    0.349805    0.000000
    81  O2    s     0.993408    0.007106    0.488612    0.000000
    82  O2    s     0.487111    0.022306    0.507543    0.000000
    83  O2    s     0.990564    0.006166    0.238524    0.000000
    84  O3    s     0.512689    0.028169    0.267649    0.000000
    85  O2    s     0.001836    0.005689    0.738432    0.000000
    86  O2    s     0.485710    0.022673    0.755276    0.000000
    87  O3    s     0.636419    0.139833    0.102276    0.000000
    88  O3    s     0.871903    0.890551    0.102336    0.000000
    89  O2    s     0.369989    0.149361    0.897069    0.000000
    90  O3    s     0.115086    0.870293    0.874353    0.000000
    91  O2    s     0.407061    0.818871    0.908775    0.000000
    92  O2    s     0.089326    0.194422    0.899211    0.000000
    93  O3    s     0.586037    0.789267    0.096284    0.000000
    94  O2    s     0.910730    0.210275    0.082131    0.000000
    95  O3    s     0.494503    0.060744    0.001191    0.000000
    96  O2    s     0.994384    0.963145    0.987799    0.000000
    97  O2    s     0.136032    0.529701    0.290958    0.000000
    98  O2    s     0.355628    0.498223    0.298064    0.000000
    99  O2    s     0.854740    0.527882    0.691105    0.000000
   100  O3    s     0.628363    0.455714    0.698689    0.000000
   101  O2    s     0.239173    0.289530    0.306796    0.000000
   102  O2    s     0.252556    0.739178    0.310174    0.000000
   103  O2    s     0.752858    0.282378    0.682278    0.000000
   104  O3    s     0.737344    0.722543    0.663911    0.000000
   105  O2    s     0.136011    0.282010    0.127736    0.000000
   106  O2    s     0.350531    0.731240    0.126647    0.000000
   107  O2    s     0.860095    0.287521    0.856277    0.000000
   108  O3    s     0.636352    0.726925    0.872385    0.000000
   109  O3    s     0.826909    0.779132    0.849296    0.000000
   110  O2    s     0.661474    0.227094    0.868350    0.000000
   111  O3    s     0.154941    0.780565    0.131317    0.000000
   112  O2    s     0.336932    0.258529    0.126007    0.000000
   113  O2    s     0.633630    0.468388    0.028168    0.000000
   114  O3    s     0.871090    0.532396    0.022595    0.000000
   115  O2    s     0.360444    0.487943    0.955446    0.000000
   116  O3    s     0.126019    0.517985    0.958294    0.000000
   117  O2    s     0.764134    0.308946    0.039660    0.000000
   118  O3    s     0.731036    0.713885    0.056258    0.000000
   119  O2    s     0.235582    0.301200    0.948172    0.000000
   120  O3    s     0.260711    0.724713    0.934537    0.000000
--------------------------------------------------------------------------------

  Final Cartesian lattice vectors (Angstroms) :

       16.932491   -0.091423   -0.032874
       -0.039354    7.608778   -0.028827
       -0.019958   -0.040042   10.397854


  Final cell parameters and derivatives :

--------------------------------------------------------------------------------
       a           16.932769 Angstrom     dE/de1(xx)    -0.005985 eV/strain
       b            7.608934 Angstrom     dE/de2(yy)    -0.012754 eV/strain
       c           10.397950 Angstrom     dE/de3(zz)     0.038704 eV/strain
       alpha       90.437144 Degrees      dE/de4(yz)    -0.001425 eV/strain
       beta        90.220019 Degrees      dE/de5(xz)    -0.004281 eV/strain
       gamma       90.605265 Degrees      dE/de6(xy)    -0.001072 eV/strain
--------------------------------------------------------------------------------

  Primitive cell volume =          1339.551301 Angs**3

  Density of cell =      2.008519 g/cm**3

  Non-primitive cell volume =          1339.551301 Angs**3


  Final internal derivatives :

--------------------------------------------------------------------------------
   No.  Atomic          a             b             c           Radius
        Label          (eV)          (eV)          (eV)        (eV/Angs)
--------------------------------------------------------------------------------
      1 Ge    c       0.000000      0.000000      0.000000      0.000000
      2 Ge    c       0.003233     -0.001548     -0.008367      0.000000
      3 Ge    c      -0.000138     -0.001615      0.009165      0.000000
      4 Ge    c       0.003895     -0.002960     -0.007119      0.000000
      5 Si    c       0.014621      0.000390     -0.004183      0.000000
      6 Si    c      -0.020731     -0.000698     -0.003038      0.000000
      7 Si    c      -0.014745     -0.000327      0.004590      0.000000
      8 Si    c       0.021443     -0.002580     -0.002426      0.000000
      9 Si    c      -0.016827     -0.000896     -0.001720      0.000000
     10 Si    c      -0.021527      0.000688      0.007057      0.000000
     11 Si    c       0.016918     -0.000063      0.001077      0.000000
     12 Si    c       0.008357      0.001399      0.007084      0.000000
     13 Si    c      -0.002845     -0.000335      0.009542      0.000000
     14 Si    c      -0.009074      0.001232     -0.007985      0.000000
     15 Si    c      -0.008288     -0.001246     -0.008803      0.000000
     16 Si    c       0.001536      0.001619     -0.010704      0.000000
     17 Si    c       0.007123     -0.001718      0.009906      0.000000
     18 Si    c      -0.003383      0.003025      0.007898      0.000000
     19 Si    c       0.008126      0.003299      0.007143      0.000000
     20 Si    c      -0.004981      0.002463     -0.007615      0.000000
     21 Si    c      -0.007947     -0.001753     -0.007597      0.000000
     22 Si    c       0.005552      0.001476     -0.009823      0.000000
     23 Si    c       0.011035     -0.002489      0.009596      0.000000
     24 Si    c      -0.004755      0.001562      0.008872      0.000000
     25 O2    c      -0.004008     -0.004053      0.001113      0.000000
     26 O2    c      -0.005231      0.000726     -0.001418      0.000000
     27 O2    c       0.001922     -0.003056     -0.000480      0.000000
     28 O3    c       0.002557      0.004056      0.000005      0.000000
     29 O2    c       0.005649      0.003521     -0.000781      0.000000
     30 O2    c       0.001611      0.000360      0.000629      0.000000
     31 O2    c      -0.003649      0.002830      0.000322      0.000000
     32 O2    c       0.001603     -0.001619      0.001246      0.000000
     33 O2    c      -0.000171     -0.000904     -0.000456      0.000000
     34 O2    c      -0.005366      0.002282      0.003065      0.000000
     35 O2    c       0.005473     -0.000828      0.004224      0.000000
     36 O3    c       0.014638      0.003197      0.001809      0.000000
     37 O2    c      -0.004902     -0.000341     -0.004193      0.000000
     38 O2    c       0.002316      0.003807     -0.004032      0.000000
     39 O3    c      -0.006636     -0.003451      0.005773      0.000000
     40 O3    c       0.010426      0.002492     -0.002011      0.000000
     41 O2    c       0.005609     -0.002857     -0.000446      0.000000
     42 O3    c      -0.010742      0.004951     -0.001385      0.000000
     43 O2    c      -0.005584     -0.001368     -0.000424      0.000000
     44 O2    c       0.002070     -0.001847     -0.001031      0.000000
     45 O3    c      -0.004950      0.005228      0.003979      0.000000
     46 O2    c      -0.002420     -0.001405      0.000831      0.000000
     47 O3    c      -0.006865      0.006373      0.003656      0.000000
     48 O2    c      -0.001823     -0.003015      0.000769      0.000000
     49 O2    c       0.006645     -0.000726      0.001040      0.000000
     50 O2    c      -0.005831     -0.001066      0.000110      0.000000
     51 O2    c      -0.006407     -0.001538     -0.001284      0.000000
     52 O3    c       0.009487     -0.000637     -0.002282      0.000000
     53 O2    c      -0.003705      0.000752     -0.000513      0.000000
     54 O2    c      -0.003052     -0.000451     -0.000535      0.000000
     55 O2    c       0.005251      0.000816      0.000568      0.000000
     56 O3    c       0.011739     -0.000129      0.001422      0.000000
     57 O2    c      -0.003609     -0.003583      0.003508      0.000000
     58 O2    c       0.002978      0.002866     -0.001421      0.000000
     59 O2    c       0.003741     -0.003279     -0.001604      0.000000
     60 O3    c      -0.003552      0.005393     -0.001378      0.000000
     61 O3    c      -0.000572      0.005698     -0.000251      0.000000
     62 O2    c      -0.000443     -0.003137      0.001478      0.000000
     63 O3    c      -0.003683      0.006293     -0.004824      0.000000
     64 O2    c       0.004450     -0.003271     -0.000142      0.000000
     65 O2    c       0.006864      0.001785      0.001567      0.000000
     66 O3    c      -0.010522     -0.000298      0.002669      0.000000
     67 O2    c      -0.007148      0.000375      0.000124      0.000000
     68 O3    c       0.013357      0.000394     -0.001467      0.000000
     69 O2    c      -0.004056     -0.000072     -0.000357      0.000000
     70 O3    c      -0.012051     -0.001604     -0.002315      0.000000
     71 O2    c       0.003265      0.000017      0.000073      0.000000
     72 O3    c       0.006666     -0.001233      0.001788      0.000000
     73 O2    s      -0.000275      0.002175      0.000860      0.000000
     74 O2    s       0.003318     -0.001733      0.001458      0.000000
     75 O2    s       0.001036      0.001982     -0.001028      0.000000
     76 O3    s      -0.002110     -0.003767     -0.000355      0.000000
     77 O2    s      -0.000475     -0.001682     -0.000484      0.000000
     78 O2    s       0.002434      0.001055     -0.000780      0.000000
     79 O2    s      -0.000304     -0.001699      0.001167      0.000000
     80 O2    s      -0.002567      0.001453     -0.000158      0.000000
     81 O2    s       0.000131      0.000754      0.000332      0.000000
     82 O2    s       0.000465     -0.001662     -0.000901      0.000000
     83 O2    s      -0.003325      0.001040     -0.001013      0.000000
     84 O3    s      -0.004877     -0.002744      0.000168      0.000000
     85 O2    s       0.002671      0.000631      0.000847      0.000000
     86 O2    s       0.000880     -0.000873      0.000369      0.000000
     87 O3    s       0.006671      0.001887     -0.003308      0.000000
     88 O3    s      -0.008440     -0.002213      0.002598      0.000000
     89 O2    s      -0.004506      0.002267     -0.001792      0.000000
     90 O3    s       0.006622     -0.003652     -0.000230      0.000000
     91 O2    s       0.003622     -0.002388     -0.001595      0.000000
     92 O2    s      -0.004959      0.001526     -0.000618      0.000000
     93 O3    s       0.003240     -0.003573     -0.003418      0.000000
     94 O2    s       0.004193      0.000852      0.000160      0.000000
     95 O3    s       0.008529     -0.003096     -0.001703      0.000000
     96 O2    s       0.001252      0.002772     -0.000458      0.000000
     97 O2    s      -0.006864      0.000030     -0.001799      0.000000
     98 O2    s       0.004365      0.000412     -0.001003      0.000000
     99 O2    s       0.006189     -0.000058      0.001901      0.000000
    100 O3    s      -0.008060      0.000109      0.003811      0.000000
    101 O2    s       0.000584      0.000106      0.000189      0.000000
    102 O2    s       0.000943      0.000010      0.000148      0.000000
    103 O2    s      -0.001596      0.000083      0.000641      0.000000
    104 O3    s      -0.007684      0.000330     -0.000456      0.000000
    105 O2    s       0.001306      0.002751     -0.000297      0.000000
    106 O2    s      -0.001112     -0.002134      0.000852      0.000000
    107 O2    s      -0.002251      0.002540     -0.000468      0.000000
    108 O3    s       0.001790     -0.004726      0.001636      0.000000
    109 O3    s       0.003671     -0.004858      0.001561      0.000000
    110 O2    s      -0.003255      0.001993     -0.001104      0.000000
    111 O3    s       0.001652     -0.005236      0.001716      0.000000
    112 O2    s      -0.003304      0.002300      0.000676      0.000000
    113 O2    s      -0.005423      0.000286     -0.003039      0.000000
    114 O3    s       0.008445      0.000590     -0.003595      0.000000
    115 O2    s       0.005974      0.000298      0.000340      0.000000
    116 O3    s      -0.012136      0.000315      0.002547      0.000000
    117 O2    s       0.001018     -0.000016     -0.000285      0.000000
    118 O3    s       0.006041      0.000944      0.000261      0.000000
    119 O2    s      -0.001196      0.000398     -0.000253      0.000000
    120 O3    s      -0.005294      0.000540     -0.001034      0.000000
--------------------------------------------------------------------------------
  Maximum abs         0.021527      0.006373      0.010704      0.000000
--------------------------------------------------------------------------------


  Born effective charge tensors : 

-------------------------------------------------------------------------------
  Atom             x           y             z
-------------------------------------------------------------------------------
    1 Ge    x       4.1889     -0.3038     -0.3456
            y       0.2883      3.8946      0.0033
            z      -0.5582      0.0438      3.8580
-------------------------------------------------------------------------------
    2 Ge    x       3.9445     -0.3095      0.0102
            y      -0.3762      4.2219     -0.2971
            z       0.1636     -0.0678      3.4012
-------------------------------------------------------------------------------
    3 Ge    x       3.9210      0.4725      0.1432
            y       0.0388      4.2045      0.2884
            z       0.1722      0.0929      3.3501
-------------------------------------------------------------------------------
    4 Ge    x       3.9545     -0.4029      0.2221
            y      -0.0933      4.1805     -0.3190
            z       0.1851     -0.0893      3.3725
-------------------------------------------------------------------------------
    5 Si    x       3.4169      0.1002     -0.1801
            y      -0.1032      3.2327     -0.0300
            z      -0.5360     -0.0751      3.7928
-------------------------------------------------------------------------------
    6 Si    x       3.6873      0.1223      0.1248
            y      -0.1104      3.2999     -0.0180
            z       0.1567      0.0082      3.9974
-------------------------------------------------------------------------------
    7 Si    x       3.4084     -0.1212     -0.2149
            y       0.0998      3.2133      0.0092
            z      -0.4809      0.0716      3.8178
-------------------------------------------------------------------------------
    8 Si    x       3.5505     -0.3880      0.1453
            y       0.0410      3.4878      0.0275
            z       0.5375     -0.1094      3.7897
-------------------------------------------------------------------------------
    9 Si    x       3.6848     -0.0230      0.2362
            y       0.4109      3.3568     -0.0709
            z       0.5480     -0.0385      3.1707
-------------------------------------------------------------------------------
   10 Si    x       3.5903      0.2443     -0.0571
            y      -0.1768      3.3196      0.0375
            z      -0.4077      0.0462      3.3017
-------------------------------------------------------------------------------
   11 Si    x       3.6684     -0.0656      0.2345
            y      -0.3768      3.4051      0.0704
            z       0.5398     -0.0174      3.1874
-------------------------------------------------------------------------------
   12 Si    x       3.1888      0.2446     -0.0579
            y       0.2637      3.4308     -0.2059
            z      -0.0982     -0.0511      2.8028
-------------------------------------------------------------------------------
   13 Si    x       3.1694      0.2289      0.0241
            y       0.2641      3.4283      0.1664
            z       0.1324      0.0886      2.8081
-------------------------------------------------------------------------------
   14 Si    x       3.1928     -0.2472     -0.0673
            y      -0.2468      3.4045      0.2116
            z      -0.0959      0.0526      2.8168
-------------------------------------------------------------------------------
   15 Si    x       3.5856      0.3625      0.0254
            y       0.1634      3.6396     -0.1306
            z      -0.0650      0.0117      3.1556
-------------------------------------------------------------------------------
   16 Si    x       3.3374      0.2812      0.1338
            y      -0.0352      3.7216      0.0994
            z       0.1466     -0.0070      2.8297
-------------------------------------------------------------------------------
   17 Si    x       3.2644     -0.3439     -0.0773
            y      -0.2081      3.5781      0.1021
            z      -0.1147     -0.0418      3.0839
-------------------------------------------------------------------------------
   18 Si    x       3.1769     -0.2953      0.1046
            y      -0.1688      3.4575     -0.1560
            z       0.1358     -0.0803      2.8195
-------------------------------------------------------------------------------
   19 Si    x       3.3479      0.5343     -0.2953
            y       0.1172      3.5918     -0.3942
            z      -0.1912     -0.2161      2.9191
-------------------------------------------------------------------------------
   20 Si    x       3.2075     -0.3540     -0.1722
            y      -0.0540      3.4110      0.1706
            z      -0.1185      0.0734      2.7449
-------------------------------------------------------------------------------
   21 Si    x       3.5862      0.2030      0.0276
            y       0.2157      3.4848     -0.1876
            z      -0.1204     -0.0830      2.7978
-------------------------------------------------------------------------------
   22 Si    x       3.3830      0.1928      0.1723
            y       0.1260      3.7088      0.1217
            z       0.2199     -0.0089      2.8019
-------------------------------------------------------------------------------
   23 Si    x       3.8753     -0.3804     -0.1274
            y      -0.3723      3.6603      0.2736
            z      -0.2506      0.0639      3.1818
-------------------------------------------------------------------------------
   24 Si    x       3.3585     -0.2078      0.1558
            y      -0.1619      3.7305     -0.1377
            z       0.2196      0.0147      2.7855
-------------------------------------------------------------------------------
   25 O2    x      -1.6274     -0.7006      0.3132
            y      -0.6504     -1.9836      0.3352
            z       0.3593      0.3245     -1.3709
-------------------------------------------------------------------------------
   26 O2    x      -1.6353     -0.6811     -0.3356
            y      -0.6468     -2.0207     -0.3679
            z      -0.3692     -0.3645     -1.3607
-------------------------------------------------------------------------------
   27 O2    x      -1.6201      0.7063      0.3248
            y       0.6352     -1.9819     -0.3388
            z       0.3580     -0.3361     -1.3826
-------------------------------------------------------------------------------
   28 O3    x      -1.9164      0.9026     -0.3366
            y       0.8425     -2.5781      0.3435
            z      -0.4299      0.3408     -1.5054
-------------------------------------------------------------------------------
   29 O2    x      -1.7355     -0.7156      0.2965
            y      -0.7320     -1.9672      0.3206
            z       0.3467      0.3077     -1.3476
-------------------------------------------------------------------------------
   30 O2    x      -1.8591     -0.6524     -0.3125
            y      -0.7076     -1.8257     -0.3293
            z      -0.3582     -0.2846     -1.3504
-------------------------------------------------------------------------------
   31 O2    x      -1.7455      0.7275      0.2936
            y       0.7480     -1.9567     -0.3075
            z       0.3608     -0.2998     -1.3411
-------------------------------------------------------------------------------
   32 O2    x      -1.7251      0.7119     -0.3717
            y       0.7383     -1.9635      0.3836
            z      -0.3955      0.3732     -1.3666
-------------------------------------------------------------------------------
   33 O2    x      -1.6657     -0.0007      0.8623
            y      -0.0019     -1.0850      0.0055
            z       1.1047      0.0065     -2.7394
-------------------------------------------------------------------------------
   34 O2    x      -1.5926      0.0486     -0.7878
            y       0.0250     -1.1028      0.0432
            z      -0.9806      0.0683     -2.7187
-------------------------------------------------------------------------------
   35 O2    x      -1.6637      0.0308     -0.7336
            y      -0.0094     -1.1226      0.0363
            z      -0.6822      0.0553     -2.2638
-------------------------------------------------------------------------------
   36 O3    x      -2.1439      0.0230      0.9867
            y      -0.0372     -1.2443     -0.0091
            z       0.9923     -0.0557     -2.6915
-------------------------------------------------------------------------------
   37 O2    x      -1.6804      0.0123     -0.7285
            y       0.0239     -1.1140     -0.0061
            z      -0.7021     -0.0031     -2.2593
-------------------------------------------------------------------------------
   38 O2    x      -1.6679      0.0042      0.7130
            y       0.0100     -1.1343     -0.0220
            z       0.6916     -0.0178     -2.2451
-------------------------------------------------------------------------------
   39 O3    x      -2.0733     -0.8929      0.5197
            y      -0.8271     -2.2550      0.6213
            z       0.4799      0.5760     -1.5857
-------------------------------------------------------------------------------
   40 O3    x      -2.2202     -0.9420     -0.3705
            y      -0.9216     -2.2407     -0.4144
            z      -0.3777     -0.3694     -1.4189
-------------------------------------------------------------------------------
   41 O2    x      -1.7527      0.6970      0.3311
            y       0.6535     -1.9031     -0.3581
            z       0.3369     -0.3416     -1.2596
-------------------------------------------------------------------------------
   42 O3    x      -2.1706      0.9549     -0.4088
            y       0.9461     -2.2720      0.4335
            z      -0.4003      0.3814     -1.4608
-------------------------------------------------------------------------------
   43 O2    x      -1.6241     -0.6486      0.3204
            y      -0.5233     -2.0538      0.3733
            z       0.3638      0.3675     -1.2388
-------------------------------------------------------------------------------
   44 O2    x      -1.6725     -0.6327     -0.3707
            y      -0.5830     -1.9390     -0.4103
            z      -0.3939     -0.3606     -1.2898
-------------------------------------------------------------------------------
   45 O3    x      -1.9785      0.8992      0.5338
            y       0.7021     -2.4011     -0.5315
            z       0.5238     -0.5127     -1.4876
-------------------------------------------------------------------------------
   46 O2    x      -1.6521      0.6235     -0.3585
            y       0.5410     -1.9623      0.3932
            z      -0.3837      0.3568     -1.2725
-------------------------------------------------------------------------------
   47 O3    x      -2.1513     -0.0205     -0.8465
            y      -0.0291     -1.3788     -0.0361
            z      -0.5089     -0.0183     -2.0418
-------------------------------------------------------------------------------
   48 O2    x      -1.7070      0.0156      0.5367
            y      -0.0032     -1.2757     -0.0183
            z       0.2749     -0.0155     -1.7447
-------------------------------------------------------------------------------
   49 O2    x      -1.1787     -0.0458      0.0416
            y      -0.0912     -2.5878     -0.0195
            z       0.0637     -0.0343     -1.0485
-------------------------------------------------------------------------------
   50 O2    x      -1.1682     -0.0550     -0.0527
            y      -0.0870     -2.5494     -0.0055
            z      -0.0795      0.0078     -1.0685
-------------------------------------------------------------------------------
   51 O2    x      -1.1815      0.0506      0.0403
            y       0.1188     -2.5737      0.0489
            z       0.0595      0.0724     -1.0702
-------------------------------------------------------------------------------
   52 O3    x      -1.4007      0.2200     -0.0780
            y       0.2893     -3.1464      0.0951
            z      -0.1096      0.0777     -1.1765
-------------------------------------------------------------------------------
   53 O2    x      -2.3919      0.0901      0.0016
            y       0.0319     -1.2395      0.0686
            z       0.0118      0.0390     -1.0724
-------------------------------------------------------------------------------
   54 O2    x      -2.3806      0.0981      0.0294
            y       0.0565     -1.2568     -0.0690
            z       0.0155     -0.0429     -1.0758
-------------------------------------------------------------------------------
   55 O2    x      -2.4184     -0.1995      0.0491
            y      -0.1106     -1.2443     -0.0548
            z       0.0461     -0.0156     -1.0856
-------------------------------------------------------------------------------
   56 O3    x      -2.9873     -0.1671     -0.0284
            y      -0.0680     -1.3967      0.0978
            z      -0.0653      0.0453     -1.2381
-------------------------------------------------------------------------------
   57 O2    x      -1.2204     -0.1349     -0.0536
            y      -0.1209     -1.2738     -0.0293
            z      -0.0550     -0.0175     -2.0677
-------------------------------------------------------------------------------
   58 O2    x      -1.1918     -0.1115      0.0806
            y      -0.1068     -1.2869     -0.0019
            z       0.0848     -0.0265     -2.0993
-------------------------------------------------------------------------------
   59 O2    x      -1.2232      0.1354     -0.0813
            y       0.1195     -1.2686      0.0051
            z      -0.0966     -0.0090     -2.0716
-------------------------------------------------------------------------------
   60 O3    x      -1.3362      0.1503     -0.0038
            y       0.1295     -1.4881      0.1159
            z       0.0162      0.0944     -2.5706
-------------------------------------------------------------------------------
   61 O3    x      -1.2934     -0.1297     -0.0114
            y      -0.0544     -1.4988     -0.0671
            z      -0.0041     -0.0783     -2.6172
-------------------------------------------------------------------------------
   62 O2    x      -1.2157     -0.1426     -0.0267
            y      -0.0652     -1.2997     -0.0602
            z      -0.0430     -0.0502     -2.0312
-------------------------------------------------------------------------------
   63 O3    x      -1.3090      0.1556     -0.0560
            y       0.0993     -1.4868      0.0708
            z      -0.0237      0.0700     -2.5983
-------------------------------------------------------------------------------
   64 O2    x      -1.1668      0.1263      0.0247
            y       0.0745     -1.2838      0.0093
            z       0.0020     -0.0103     -2.0847
-------------------------------------------------------------------------------
   65 O2    x      -1.3227      0.1405      0.0818
            y       0.2326     -2.4016     -0.0164
            z       0.1103     -0.0376     -1.0374
-------------------------------------------------------------------------------
   66 O3    x      -1.4412      0.0104     -0.0891
            y       0.1656     -3.1117     -0.0700
            z      -0.1287     -0.0625     -1.1198
-------------------------------------------------------------------------------
   67 O2    x      -1.2451     -0.0966      0.0833
            y      -0.1798     -2.4841     -0.0034
            z       0.1085      0.0228     -1.0336
-------------------------------------------------------------------------------
   68 O3    x      -1.4132      0.0222     -0.1042
            y      -0.0818     -3.1396      0.0991
            z      -0.1291      0.0783     -1.1300
-------------------------------------------------------------------------------
   69 O2    x      -2.4432     -0.1202      0.0274
            y      -0.0640     -1.2378      0.0534
            z       0.0276      0.0160     -1.0705
-------------------------------------------------------------------------------
   70 O3    x      -2.9944     -0.2538     -0.0208
            y      -0.1999     -1.4288     -0.0911
            z      -0.0277     -0.0385     -1.2048
-------------------------------------------------------------------------------
   71 O2    x      -2.4640      0.0690      0.0127
            y       0.0238     -1.2259     -0.0532
            z      -0.0065     -0.0191     -1.0591
-------------------------------------------------------------------------------
   72 O3    x      -3.0211      0.1740     -0.1021
            y       0.1501     -1.3922      0.1034
            z      -0.1074      0.0585     -1.2121
-------------------------------------------------------------------------------




  Elastic Constant Matrix: (Units=GPa)

-------------------------------------------------------------------------------
  Indices      1         2         3         4         5         6    
-------------------------------------------------------------------------------
       1     46.6143   23.4662   29.0910   -0.3891   -3.0869   -1.9506
       2     23.4662   71.6061   23.6170   -0.5447   -3.4769   -2.4678
       3     29.0910   23.6170   50.6414   -0.9195   -0.8199   -1.5477
       4     -0.3891   -0.5447   -0.9195   11.8330   -0.9537   -0.8162
       5     -3.0869   -3.4769   -0.8199   -0.9537   22.8951   -0.6355
       6     -1.9506   -2.4678   -1.5477   -0.8162   -0.6355   25.8857
-------------------------------------------------------------------------------


  Elastic Compliance Matrix: (Units=1/GPa)

-------------------------------------------------------------------------------
  Indices      1         2         3         4         5         6    
-------------------------------------------------------------------------------
       1    0.035636 -0.005618 -0.017763 -0.000117  0.003343  0.001166
       2   -0.005618  0.017543 -0.004886  0.000457  0.001779  0.001015
       3   -0.017763 -0.004886  0.032230  0.001550 -0.001915  0.000124
       4   -0.000117  0.000457  0.001550  0.085149  0.003737  0.002904
       5    0.003343  0.001779 -0.001915  0.003737  0.044528  0.001518
       6    0.001166  0.001015  0.000124  0.002904  0.001518  0.038952
-------------------------------------------------------------------------------

  Mechanical properties :

-------------------------------------------------------------------------------
  Convention :                    Reuss         Voigt         Hill
-------------------------------------------------------------------------------
  Bulk  Modulus (GPa)     =      34.63267      35.69001      35.16134
  Shear Modulus (GPa)     =      15.61543      18.30193      16.95868
-------------------------------------------------------------------------------
  Velocity S-wave (km/s)  =       2.78830       3.01863       2.90575
  Velocity P-wave (km/s)  =       5.25443       5.46981       5.36320
-------------------------------------------------------------------------------
  Compressibility (1/GPa) =    0.02887447
-------------------------------------------------------------------------------
  Stress axis :                     x             y             z
-------------------------------------------------------------------------------
  Youngs Moduli (GPa)     =      28.06176      57.00409      31.02668
-------------------------------------------------------------------------------
  Poissons Ratio (x)      =                     0.32025       0.55114
  Poissons Ratio (y)      =       0.15765                     0.15159
  Poissons Ratio (z)      =       0.49847       0.27851
-------------------------------------------------------------------------------


  Piezoelectric Strain Matrix: (Units=C/m**2)

-------------------------------------------------------------------------------
  Indices      1         2         3         4         5         6    
-------------------------------------------------------------------------------
       x     0.09944   0.46426  -0.64496  -0.41990  -0.36533  -0.19573
       y     0.37913  -0.97371  -0.05715  -0.17294  -0.59208   0.28155
       z    -0.13902  -0.17090   0.62848   0.15397  -0.00160  -0.24796
-------------------------------------------------------------------------------


  Piezoelectric Stress Matrix: (Units=10**-11 C/N)

-------------------------------------------------------------------------------
  Indices      1         2         3         4         5         6    
-------------------------------------------------------------------------------
       x     1.09918   0.96965  -2.47974  -3.84869  -1.57404  -0.88911
       y     1.83653  -1.97786  -0.29184  -1.66980  -2.69381   0.90126
       z    -1.54704  -0.54720   2.37714   1.32966  -0.18445  -0.94712
-------------------------------------------------------------------------------


  Static dielectric constant tensor : 

-------------------------------------------------------------------------------
              x         y         z
-------------------------------------------------------------------------------
       x     4.27922  -0.01732  -0.02388
       y    -0.01732   4.33184  -0.05004
       z    -0.02388  -0.05004   3.29789
--------------------------------------------------------------------------------

  High frequency dielectric constant tensor : 

-------------------------------------------------------------------------------
              x         y         z
-------------------------------------------------------------------------------
       x     1.67120  -0.00068  -0.00008
       y    -0.00068   1.67857  -0.00097
       z    -0.00008  -0.00097   1.61552
-------------------------------------------------------------------------------

  Static refractive indices : 

-------------------------------------------------------------------------------
    1 =    1.81517      2 =    2.06771      3 =    2.08295
-------------------------------------------------------------------------------

  High frequency refractive indices : 

-------------------------------------------------------------------------------
    1 =    1.27102      2 =    1.29273      3 =    1.29563
-------------------------------------------------------------------------------


  Time to end of optimisation =      11.0844 seconds


  Peak dynamic memory used =       5.01 MB 


  Timing analysis for GULP :

--------------------------------------------------------------------------------
  Task / Subroutine                                          Time (Seconds)
--------------------------------------------------------------------------------
  Calculation of reciprocal space energy and derivatives          0.6447
  Calculation of real space energy and derivatives                6.9264
  Calculation of three-body energy and derivatives                0.5298
  Calculation and manipulation of Hessian matrix                  3.4232
  Calculation of matrix inversion                                 0.0328
  Global summation overhead                                       0.0001
--------------------------------------------------------------------------------
  Total CPU time                                                 11.0845
--------------------------------------------------------------------------------


  Dump file written as c01119.vasp.grs
  CIF file written as c01119.vasp.cif


  Job Finished at 14:57.00 31st October    2025                               

