********************************************************************************
*                       GENERAL UTILITY LATTICE PROGRAM                        *
*                                 Julian Gale                                  *
*                       Curtin Institute for Computation                       *
*                    School of Molecular and Life Sciences                     *
*                    Curtin University, Western Australia                      *
********************************************************************************
* Version = 6.1.2 * Last modified =   3rd November 2022                        *
********************************************************************************
*  optimise     - perform optimisation run                                     *
*  conp         - constant pressure calculation                                *
*  property     - calculate properties for final geometry                      *
********************************************************************************

  Job Started  at 15:07.47 31st October    2025                               

  Number of CPUs =     1


  Total number of configurations input =      1

********************************************************************************
*  Input for Configuration =   1 : c01188.vasp                                 *
********************************************************************************

  Formula = Ge4Si20O48                                                  

  Number of irreducible atoms/shells =     120


  Total number atoms/shells =     120

  Dimensionality = 3               :  Bulk   



  Cartesian lattice vectors (Angstroms) :

       17.182800    0.000000    0.000000
        0.000000    7.513760    0.000000
        0.000000    0.000000   10.447700

  Cell parameters (Angstroms/Degrees):

  a =      17.1828    alpha =  90.0000
  b =       7.5138    beta  =  90.0000
  c =      10.4477    gamma =  90.0000

  Initial cell volume =        1348.875752 Angs**3

  Temperature of configuration =   0.00     K 

  Pressure of configuration =         0.000 GPa 

  Fractional coordinates of asymmetric unit :

--------------------------------------------------------------------------------
   No.  Atomic       x           y          z         Charge      Occupancy
        Label      (Frac)      (Frac)     (Frac)        (e)         (Frac)  
--------------------------------------------------------------------------------
      1 Ge    c    0.160190    0.293910    0.273440     4.00000    1.000000    
      2 Ge    c    0.339810 *  0.706090 *  0.273440 *   4.00000    1.000000    
      3 Ge    c    0.839810 *  0.706090 *  0.726560 *   4.00000    1.000000    
      4 Ge    c    0.160660 *  0.294090 *  0.982560 *   4.00000    1.000000    
      5 Si    c    0.052090 *  0.000000 *  0.372270 *   4.00000    1.000000    
      6 Si    c    0.447910 *  0.000000 *  0.372270 *   4.00000    1.000000    
      7 Si    c    0.947910 *  0.000000 *  0.627730 *   4.00000    1.000000    
      8 Si    c    0.552090 *  0.000000 *  0.627730 *   4.00000    1.000000    
      9 Si    c    0.556730 *  0.000000 *  0.122130 *   4.00000    1.000000    
     10 Si    c    0.943270 *  0.000000 *  0.122130 *   4.00000    1.000000    
     11 Si    c    0.443270 *  0.000000 *  0.877870 *   4.00000    1.000000    
     12 Si    c    0.056730 *  0.000000 *  0.877870 *   4.00000    1.000000    
     13 Si    c    0.839810 *  0.293910 *  0.726560 *   4.00000    1.000000    
     14 Si    c    0.660190 *  0.706090 *  0.726560 *   4.00000    1.000000    
     15 Si    c    0.660190 *  0.293910 *  0.726560 *   4.00000    1.000000    
     16 Si    c    0.160190 *  0.706090 *  0.273440 *   4.00000    1.000000    
     17 Si    c    0.339810 *  0.293910 *  0.273440 *   4.00000    1.000000    
     18 Si    c    0.660660 *  0.294090 *  0.017440 *   4.00000    1.000000    
     19 Si    c    0.839340 *  0.705910 *  0.017440 *   4.00000    1.000000    
     20 Si    c    0.339340 *  0.294090 *  0.982560 *   4.00000    1.000000    
     21 Si    c    0.160660 *  0.705910 *  0.982560 *   4.00000    1.000000    
     22 Si    c    0.339340 *  0.705910 *  0.982560 *   4.00000    1.000000    
     23 Si    c    0.660660 *  0.705910 *  0.017440 *   4.00000    1.000000    
     24 Si    c    0.839340 *  0.294090 *  0.017440 *   4.00000    1.000000    
     25 O3    c    0.106570 *  0.174340 *  0.366200 *   1.33043    1.000000    
     26 O3    c    0.393430 *  0.825660 *  0.366200 *   1.33043    1.000000    
     27 O2    c    0.893430 *  0.174340 *  0.633800 *   0.87073    1.000000    
     28 O2    c    0.606570 *  0.825660 *  0.633800 *   0.87073    1.000000    
     29 O3    c    0.893430 *  0.825660 *  0.633800 *   1.33043    1.000000    
     30 O2    c    0.606570 *  0.174340 *  0.633800 *   0.87073    1.000000    
     31 O2    c    0.106570 *  0.825660 *  0.366200 *   0.87073    1.000000    
     32 O2    c    0.393430 *  0.174340 *  0.366200 *   0.87073    1.000000    
     33 O2    c    0.000000 *  0.000000 *  0.500000 *   0.87073    1.000000    
     34 O2    c    0.500000 *  0.000000 *  0.500000 *   0.87073    1.000000    
     35 O2    c    0.994520 *  0.000000 *  0.250840 *   0.87073    1.000000    
     36 O2    c    0.505480 *  0.000000 *  0.250840 *   0.87073    1.000000    
     37 O2    c    0.005480 *  0.000000 *  0.749160 *   0.87073    1.000000    
     38 O2    c    0.494520 *  0.000000 *  0.749160 *   0.87073    1.000000    
     39 O2    c    0.610230 *  0.175520 *  0.115390 *   0.87073    1.000000    
     40 O2    c    0.889770 *  0.824480 *  0.115390 *   0.87073    1.000000    
     41 O2    c    0.389770 *  0.175520 *  0.884610 *   0.87073    1.000000    
     42 O2    c    0.110230 *  0.824480 *  0.884610 *   0.87073    1.000000    
     43 O2    c    0.389770 *  0.824480 *  0.884610 *   0.87073    1.000000    
     44 O3    c    0.110230 *  0.175520 *  0.884610 *   1.33043    1.000000    
     45 O2    c    0.610230 *  0.824480 *  0.115390 *   0.87073    1.000000    
     46 O2    c    0.889770 *  0.175520 *  0.115390 *   0.87073    1.000000    
     47 O2    c    0.500000 *  0.000000 *  0.000000 *   0.87073    1.000000    
     48 O2    c    0.000000 *  0.000000 *  0.000000 *   0.87073    1.000000    
     49 O3    c    0.151750 *  0.500000 *  0.313330 *   1.33043    1.000000    
     50 O3    c    0.348250 *  0.500000 *  0.313330 *   1.33043    1.000000    
     51 O3    c    0.848250 *  0.500000 *  0.686670 *   1.33043    1.000000    
     52 O2    c    0.651750 *  0.500000 *  0.686670 *   0.87073    1.000000    
     53 O3    c    0.250000 *  0.234950 *  0.285720 *   1.33043    1.000000    
     54 O3    c    0.250000 *  0.765050 *  0.285720 *   1.33043    1.000000    
     55 O2    c    0.750000 *  0.234950 *  0.714280 *   0.87073    1.000000    
     56 O3    c    0.750000 *  0.765050 *  0.714280 *   1.33043    1.000000    
     57 O1    c    0.131410 *  0.268650 *  0.127790 *   1.73396    1.000000    
     58 O3    c    0.368590 *  0.731350 *  0.127790 *   1.33043    1.000000    
     59 O2    c    0.868590 *  0.268650 *  0.872210 *   0.87073    1.000000    
     60 O2    c    0.631410 *  0.731350 *  0.872210 *   0.87073    1.000000    
     61 O3    c    0.868590 *  0.731350 *  0.872210 *   1.33043    1.000000    
     62 O2    c    0.631410 *  0.268650 *  0.872210 *   0.87073    1.000000    
     63 O2    c    0.131410 *  0.731350 *  0.127790 *   0.87073    1.000000    
     64 O2    c    0.368590 *  0.268650 *  0.127790 *   0.87073    1.000000    
     65 O2    c    0.653920 *  0.500000 *  0.058200 *   0.87073    1.000000    
     66 O2    c    0.846080 *  0.500000 *  0.058200 *   0.87073    1.000000    
     67 O2    c    0.346080 *  0.500000 *  0.941800 *   0.87073    1.000000    
     68 O3    c    0.153920 *  0.500000 *  0.941800 *   1.33043    1.000000    
     69 O2    c    0.750000 *  0.231060 *  0.027050 *   0.87073    1.000000    
     70 O2    c    0.750000 *  0.768940 *  0.027050 *   0.87073    1.000000    
     71 O3    c    0.250000 *  0.231060 *  0.972950 *   1.33043    1.000000    
     72 O2    c    0.250000 *  0.768940 *  0.972950 *   0.87073    1.000000    
     73 O3    s    0.106570 *  0.174340 *  0.366200 *  -3.33043    1.000000    
     74 O3    s    0.393430 *  0.825660 *  0.366200 *  -3.33043    1.000000    
     75 O2    s    0.893430 *  0.174340 *  0.633800 *  -2.87073    1.000000    
     76 O2    s    0.606570 *  0.825660 *  0.633800 *  -2.87073    1.000000    
     77 O3    s    0.893430 *  0.825660 *  0.633800 *  -3.33043    1.000000    
     78 O2    s    0.606570 *  0.174340 *  0.633800 *  -2.87073    1.000000    
     79 O2    s    0.106570 *  0.825660 *  0.366200 *  -2.87073    1.000000    
     80 O2    s    0.393430 *  0.174340 *  0.366200 *  -2.87073    1.000000    
     81 O2    s    0.000000 *  0.000000 *  0.500000 *  -2.87073    1.000000    
     82 O2    s    0.500000 *  0.000000 *  0.500000 *  -2.87073    1.000000    
     83 O2    s    0.994520 *  0.000000 *  0.250840 *  -2.87073    1.000000    
     84 O2    s    0.505480 *  0.000000 *  0.250840 *  -2.87073    1.000000    
     85 O2    s    0.005480 *  0.000000 *  0.749160 *  -2.87073    1.000000    
     86 O2    s    0.494520 *  0.000000 *  0.749160 *  -2.87073    1.000000    
     87 O2    s    0.610230 *  0.175520 *  0.115390 *  -2.87073    1.000000    
     88 O2    s    0.889770 *  0.824480 *  0.115390 *  -2.87073    1.000000    
     89 O2    s    0.389770 *  0.175520 *  0.884610 *  -2.87073    1.000000    
     90 O2    s    0.110230 *  0.824480 *  0.884610 *  -2.87073    1.000000    
     91 O2    s    0.389770 *  0.824480 *  0.884610 *  -2.87073    1.000000    
     92 O3    s    0.110230 *  0.175520 *  0.884610 *  -3.33043    1.000000    
     93 O2    s    0.610230 *  0.824480 *  0.115390 *  -2.87073    1.000000    
     94 O2    s    0.889770 *  0.175520 *  0.115390 *  -2.87073    1.000000    
     95 O2    s    0.500000 *  0.000000 *  0.000000 *  -2.87073    1.000000    
     96 O2    s    0.000000 *  0.000000 *  0.000000 *  -2.87073    1.000000    
     97 O3    s    0.151750 *  0.500000 *  0.313330 *  -3.33043    1.000000    
     98 O3    s    0.348250 *  0.500000 *  0.313330 *  -3.33043    1.000000    
     99 O3    s    0.848250 *  0.500000 *  0.686670 *  -3.33043    1.000000    
    100 O2    s    0.651750 *  0.500000 *  0.686670 *  -2.87073    1.000000    
    101 O3    s    0.250000 *  0.234950 *  0.285720 *  -3.33043    1.000000    
    102 O3    s    0.250000 *  0.765050 *  0.285720 *  -3.33043    1.000000    
    103 O2    s    0.750000 *  0.234950 *  0.714280 *  -2.87073    1.000000    
    104 O3    s    0.750000 *  0.765050 *  0.714280 *  -3.33043    1.000000    
    105 O1    s    0.131410 *  0.268650 *  0.127790 *  -3.73396    1.000000    
    106 O3    s    0.368590 *  0.731350 *  0.127790 *  -3.33043    1.000000    
    107 O2    s    0.868590 *  0.268650 *  0.872210 *  -2.87073    1.000000    
    108 O2    s    0.631410 *  0.731350 *  0.872210 *  -2.87073    1.000000    
    109 O3    s    0.868590 *  0.731350 *  0.872210 *  -3.33043    1.000000    
    110 O2    s    0.631410 *  0.268650 *  0.872210 *  -2.87073    1.000000    
    111 O2    s    0.131410 *  0.731350 *  0.127790 *  -2.87073    1.000000    
    112 O2    s    0.368590 *  0.268650 *  0.127790 *  -2.87073    1.000000    
    113 O2    s    0.653920 *  0.500000 *  0.058200 *  -2.87073    1.000000    
    114 O2    s    0.846080 *  0.500000 *  0.058200 *  -2.87073    1.000000    
    115 O2    s    0.346080 *  0.500000 *  0.941800 *  -2.87073    1.000000    
    116 O3    s    0.153920 *  0.500000 *  0.941800 *  -3.33043    1.000000    
    117 O2    s    0.750000 *  0.231060 *  0.027050 *  -2.87073    1.000000    
    118 O2    s    0.750000 *  0.768940 *  0.027050 *  -2.87073    1.000000    
    119 O3    s    0.250000 *  0.231060 *  0.972950 *  -3.33043    1.000000    
    120 O2    s    0.250000 *  0.768940 *  0.972950 *  -2.87073    1.000000    
--------------------------------------------------------------------------------



********************************************************************************
*  General input information                                                   *
********************************************************************************

  Species output for all configurations : 

--------------------------------------------------------------------------------
  Species    Type    Atomic    Atomic    Charge       Radii (Angs)     Library
                     Number     Mass       (e)     Cova   Ionic  VDW   Symbol
--------------------------------------------------------------------------------
    Ge       Core       32      72.61   4.000000   1.170  0.000  1.750 Ge       
    Si       Core       14      28.09   4.000000   1.200  0.000  2.100 Si       
    O1       Core        8      16.00   1.733957   0.730  0.000  1.360 O1       
    O2       Core        8      16.00   0.870733   0.730  0.000  1.360 O2       
    O3       Core        8      16.00   1.330431   0.730  0.000  1.360 O3       
    O1       Shell       8       0.00  -3.733957   0.730  0.000  0.000 O1       
    O2       Shell       8       0.00  -2.870733   0.730  0.000  0.000 O2       
    O3       Shell       8       0.00  -3.330431   0.730  0.000  0.000 O3       
--------------------------------------------------------------------------------


  Lattice summation method               =    Ewald          (3-D)
                                         =    Parry          (2-D)
                                         =    Saunders et al (1-D)
  Accuracy factor for lattice sums       =   12.000


  Analytic derivatives to be used

  Time limit = Infinity

  Maximum range for interatomic potentials =    100000.000000 Angstroms

  General interatomic potentials :

--------------------------------------------------------------------------------
Atom  Types   Potential      Parameter       Value         Units   Cutoffs(Ang)
  1     2                                                            Min /  Max 
--------------------------------------------------------------------------------
Si   c O1   s Buckingham    Buckingham A     1315.2478    eV        0.000 16.000
                            Buckingham rho  0.31775900    Ang       
                            Buckingham C     10.141118    eV*Ang^6  
--------------------------------------------------------------------------------
Si   c O2   s Buckingham    Buckingham A     1315.2478    eV        0.000 16.000
                            Buckingham rho  0.31775900    Ang       
                            Buckingham C     10.141118    eV*Ang^6  
--------------------------------------------------------------------------------
Si   c O3   s Buckingham    Buckingham A     1315.2478    eV        0.000 16.000
                            Buckingham rho  0.31775900    Ang       
                            Buckingham C     10.141118    eV*Ang^6  
--------------------------------------------------------------------------------
Ge   c O1   s Buckingham    Buckingham A     1497.3996    eV        0.000 16.000
                            Buckingham rho  0.32564600    Ang       
                            Buckingham C     16.808599    eV*Ang^6  
--------------------------------------------------------------------------------
Ge   c O2   s Buckingham    Buckingham A     1497.3996    eV        0.000 16.000
                            Buckingham rho  0.32564600    Ang       
                            Buckingham C     16.808599    eV*Ang^6  
--------------------------------------------------------------------------------
Ge   c O3   s Buckingham    Buckingham A     1497.3996    eV        0.000 16.000
                            Buckingham rho  0.32564600    Ang       
                            Buckingham C     16.808599    eV*Ang^6  
--------------------------------------------------------------------------------
O1   s O1   s Buckingham    Buckingham A     22764.000    eV        0.000 16.000
                            Buckingham rho  0.14900000    Ang       
                            Buckingham C     10.937044    eV*Ang^6  
--------------------------------------------------------------------------------
O1   s O2   s Buckingham    Buckingham A     22764.000    eV        0.000 16.000
                            Buckingham rho  0.14900000    Ang       
                            Buckingham C     10.937044    eV*Ang^6  
--------------------------------------------------------------------------------
O1   s O3   s Buckingham    Buckingham A     22764.000    eV        0.000 16.000
                            Buckingham rho  0.14900000    Ang       
                            Buckingham C     10.937044    eV*Ang^6  
--------------------------------------------------------------------------------
O2   s O2   s Buckingham    Buckingham A     22764.000    eV        0.000 16.000
                            Buckingham rho  0.14900000    Ang       
                            Buckingham C     10.937044    eV*Ang^6  
--------------------------------------------------------------------------------
O2   s O3   s Buckingham    Buckingham A     22764.000    eV        0.000 16.000
                            Buckingham rho  0.14900000    Ang       
                            Buckingham C     10.937044    eV*Ang^6  
--------------------------------------------------------------------------------
O3   s O3   s Buckingham    Buckingham A     22764.000    eV        0.000 16.000
                            Buckingham rho  0.14900000    Ang       
                            Buckingham C     10.937044    eV*Ang^6  
--------------------------------------------------------------------------------
O1   c O1   s Spring (c-s)  Spring k 2       180.31577    eV*Ang^-2 0.000  0.800
                            Spring k 4       0.0000000    eV*Ang^-4 
--------------------------------------------------------------------------------
O2   c O2   s Spring (c-s)  Spring k 2       75.969800    eV*Ang^-2 0.000  0.800
                            Spring k 4       0.0000000    eV*Ang^-4 
--------------------------------------------------------------------------------
O3   c O3   s Spring (c-s)  Spring k 2       128.14270    eV*Ang^-2 0.000  0.800
                            Spring k 4       0.0000000    eV*Ang^-4 
--------------------------------------------------------------------------------

  General Three-body potentials :

--------------------------------------------------------------------------------
  Atoms       Potential      Parameter       Value         Units   Cutoffs(Ang)
  1 / 2 / 3                                                          Min /  Max 
--------------------------------------------------------------------------------
Si    core    Harmonic      Three-body cnst  1.2614000    eV*rad^-2 0.000  1.900
O1    shel                  Three-body angl  109.47000    degrees   0.000  1.900
O1    shel                  Three-body k4    0.0000000    eV*rad^-4 0.000  3.500
                            Three-body k3    0.0000000    eV*rad^-3 
--------------------------------------------------------------------------------
Si    core    Harmonic      Three-body cnst  1.2614000    eV*rad^-2 0.000  1.900
O1    shel                  Three-body angl  109.47000    degrees   0.000  1.900
õ(1   shel                  Three-body k4    0.0000000    eV*rad^-4 0.000  3.500
                            Three-body k3    0.0000000    eV*rad^-3 
--------------------------------------------------------------------------------
Si    core    Harmonic      Three-body cnst  1.2614000    eV*rad^-2 0.000  1.900
õ(1   shel                  Three-body angl  109.47000    degrees   0.000  1.900
õ(1   shel                  Three-body k4    0.0000000    eV*rad^-4 0.000  3.500
                            Three-body k3    0.0000000    eV*rad^-3 
--------------------------------------------------------------------------------
Si    core    Harmonic      Three-body cnst  1.2614000    eV*rad^-2 0.000  1.900
O1    shel                  Three-body angl  109.47000    degrees   0.000  1.900
O2    shel                  Three-body k4    0.0000000    eV*rad^-4 0.000  3.500
                            Three-body k3    0.0000000    eV*rad^-3 
--------------------------------------------------------------------------------
Si    core    Harmonic      Three-body cnst  1.2614000    eV*rad^-2 0.000  1.900
O1    shel                  Three-body angl  109.47000    degrees   0.000  1.900
õ(2   shel                  Three-body k4    0.0000000    eV*rad^-4 0.000  3.500
                            Three-body k3    0.0000000    eV*rad^-3 
--------------------------------------------------------------------------------
Si    core    Harmonic      Three-body cnst  1.2614000    eV*rad^-2 0.000  1.900
O2    shel                  Three-body angl  109.47000    degrees   0.000  1.900
õ(1   shel                  Three-body k4    0.0000000    eV*rad^-4 0.000  3.500
                            Three-body k3    0.0000000    eV*rad^-3 
--------------------------------------------------------------------------------
Si    core    Harmonic      Three-body cnst  1.2614000    eV*rad^-2 0.000  1.900
õ(1   shel                  Three-body angl  109.47000    degrees   0.000  1.900
õ(2   shel                  Three-body k4    0.0000000    eV*rad^-4 0.000  3.500
                            Three-body k3    0.0000000    eV*rad^-3 
--------------------------------------------------------------------------------
Si    core    Harmonic      Three-body cnst  1.2614000    eV*rad^-2 0.000  1.900
O2    shel                  Three-body angl  109.47000    degrees   0.000  1.900
O2    shel                  Three-body k4    0.0000000    eV*rad^-4 0.000  3.500
                            Three-body k3    0.0000000    eV*rad^-3 
--------------------------------------------------------------------------------
Si    core    Harmonic      Three-body cnst  1.2614000    eV*rad^-2 0.000  1.900
O2    shel                  Three-body angl  109.47000    degrees   0.000  1.900
õ(2   shel                  Three-body k4    0.0000000    eV*rad^-4 0.000  3.500
                            Three-body k3    0.0000000    eV*rad^-3 
--------------------------------------------------------------------------------
Si    core    Harmonic      Three-body cnst  1.2614000    eV*rad^-2 0.000  1.900
õ(2   shel                  Three-body angl  109.47000    degrees   0.000  1.900
õ(2   shel                  Three-body k4    0.0000000    eV*rad^-4 0.000  3.500
                            Three-body k3    0.0000000    eV*rad^-3 
--------------------------------------------------------------------------------

********************************************************************************
*  Output for configuration   1 : c01188.vasp                                  *
********************************************************************************


  Components of energy : 

--------------------------------------------------------------------------------
  Interatomic potentials     =         768.28534928 eV    
  Three-body potentials      =           0.01431397 eV    
  Monopole - monopole (real) =       -2676.00317478 eV    
  Monopole - monopole (recip)=       -1115.35404472 eV    
  Monopole - monopole (total)=       -3791.35721950 eV    
--------------------------------------------------------------------------------
  Total lattice energy       =       -3023.05755626 eV    
--------------------------------------------------------------------------------
  Total lattice energy       =         -291678.8425 kJ/(mole unit cells)
--------------------------------------------------------------------------------


  Number of variables =      363

  Maximum number of calculations  =          1000
  Maximum Hessian update interval =            10
  Maximum step size               =   0.100000000
  Maximum parameter tolerance     =   0.000010000
  Maximum function  tolerance     =   0.000010000
  Maximum gradient  tolerance     =   0.001000000
  Maximum gradient  component     =   0.010000000

  Symmetry not applied to optimisation

  Cell parameters to be optimised using strains

  Newton-Raphson optimiser to be used

  BFGS hessian update to be used

  Lower half triangular hessian to be used

  Minimiser to switch to RFO
  When gradient norm is less than     0.050000

  Dumpfile to be written after every cycle

  Start of bulk optimisation :

  Cycle:      0 Energy:     -3023.057556  Gnorm:      4.577558  CPU:    0.102
  ** Hessian calculated **
  Cycle:      1 Energy:     -3054.430531  Gnorm:      1.018057  CPU:    0.214
  ** Hessian calculated **
  Cycle:      2 Energy:     -3057.060519  Gnorm:      0.598286  CPU:    0.388
  Cycle:      3 Energy:     -3058.027413  Gnorm:      0.407411  CPU:    0.478
  Cycle:      4 Energy:     -3058.900188  Gnorm:      0.312095  CPU:    0.583
  Cycle:      5 Energy:     -3059.653055  Gnorm:      0.245881  CPU:    0.689
  Cycle:      6 Energy:     -3060.113407  Gnorm:      0.204342  CPU:    0.779
  Cycle:      7 Energy:     -3060.377454  Gnorm:      0.141450  CPU:    0.869
  Cycle:      8 Energy:     -3060.495920  Gnorm:      0.090811  CPU:    0.960
  Cycle:      9 Energy:     -3060.552089  Gnorm:      0.065082  CPU:    1.066
  Cycle:     10 Energy:     -3060.586858  Gnorm:      0.059555  CPU:    1.173
  Cycle:     11 Energy:     -3060.623178  Gnorm:      0.065036  CPU:    1.280
  ** Hessian calculated **
  Cycle:     12 Energy:     -3060.655373  Gnorm:      0.063291  CPU:    1.522
  Cycle:     13 Energy:     -3060.708872  Gnorm:      0.060213  CPU:    1.660
  Cycle:     14 Energy:     -3060.775979  Gnorm:      0.056105  CPU:    1.775
  Cycle:     15 Energy:     -3060.883160  Gnorm:      0.048938  CPU:    1.898
  ** Hessian has wrong structure
  ** Imaginary eigenvectors =   2
  Cycle:     16 Energy:     -3060.884365  Gnorm:      0.067121  CPU:    2.090
  ** Hessian has wrong structure
  ** Imaginary eigenvectors =   2
  ** Hessian has wrong structure
  ** Imaginary eigenvectors =   2
  Cycle:     17 Energy:     -3060.910514  Gnorm:      0.067504  CPU:    2.569
  ** Hessian has wrong structure
  ** Imaginary eigenvectors =   1
  ** Hessian has wrong structure
  ** Imaginary eigenvectors =   1
  Cycle:     18 Energy:     -3060.920173  Gnorm:      0.068849  CPU:    2.973
  ** Hessian has wrong structure
  ** Imaginary eigenvectors =   1
  ** Hessian has wrong structure
  ** Imaginary eigenvectors =   1
  Cycle:     19 Energy:     -3060.976885  Gnorm:      0.070857  CPU:    3.373
  ** Hessian has wrong structure
  ** Imaginary eigenvectors =   1
  Cycle:     20 Energy:     -3061.251389  Gnorm:      0.045586  CPU:    3.599
  ** Hessian has wrong structure
  ** Imaginary eigenvectors =   1
  ** Hessian has required structure
  Cycle:     21 Energy:     -3061.306152  Gnorm:      0.035594  CPU:    4.031
  ** Hessian has required structure
  Cycle:     22 Energy:     -3061.342096  Gnorm:      0.016260  CPU:    4.172
  ** Hessian has required structure
  Cycle:     23 Energy:     -3061.363526  Gnorm:      0.024251  CPU:    4.330
  ** Hessian has required structure
  Cycle:     24 Energy:     -3061.375313  Gnorm:      0.026499  CPU:    4.473
  ** Hessian has required structure
  Cycle:     25 Energy:     -3061.391253  Gnorm:      0.024149  CPU:    4.631
  ** Hessian has required structure
  Cycle:     26 Energy:     -3061.399454  Gnorm:      0.021611  CPU:    4.758
  ** Hessian has required structure
  Cycle:     27 Energy:     -3061.406639  Gnorm:      0.016305  CPU:    4.883
  ** Hessian has required structure
  Cycle:     28 Energy:     -3061.416081  Gnorm:      0.017358  CPU:    5.025
  ** Hessian has required structure
  Cycle:     29 Energy:     -3061.419743  Gnorm:      0.021469  CPU:    5.151
  ** Hessian has required structure
  Cycle:     30 Energy:     -3061.425455  Gnorm:      0.017040  CPU:    5.294
  ** Hessian has required structure
  Cycle:     31 Energy:     -3061.437029  Gnorm:      0.016152  CPU:    5.530
  ** Hessian has required structure
  Cycle:     32 Energy:     -3061.452366  Gnorm:      0.018545  CPU:    5.688
  ** Hessian has required structure
  Cycle:     33 Energy:     -3061.460349  Gnorm:      0.013156  CPU:    5.833
  ** Hessian has required structure
  Cycle:     34 Energy:     -3061.463109  Gnorm:      0.009699  CPU:    5.978
  ** Hessian has required structure
  Cycle:     35 Energy:     -3061.467056  Gnorm:      0.005715  CPU:    6.124
  ** Hessian has required structure
  Cycle:     36 Energy:     -3061.468513  Gnorm:      0.005665  CPU:    6.270
  ** Hessian has required structure
  Cycle:     37 Energy:     -3061.469104  Gnorm:      0.003365  CPU:    6.414
  ** Hessian has required structure
  Cycle:     38 Energy:     -3061.469377  Gnorm:      0.002201  CPU:    6.577
  ** Hessian has required structure
  Cycle:     39 Energy:     -3061.469474  Gnorm:      0.001030  CPU:    6.723
  ** Hessian has required structure
  Cycle:     40 Energy:     -3061.469500  Gnorm:      0.000684  CPU:    6.869
  ** Hessian has required structure
  Cycle:     41 Energy:     -3061.469512  Gnorm:      0.000411  CPU:    7.093
  ** Hessian has required structure
  Cycle:     42 Energy:     -3061.469515  Gnorm:      0.000289  CPU:    7.222
  ** Hessian has required structure
  Cycle:     43 Energy:     -3061.469517  Gnorm:      0.000202  CPU:    7.352
  ** Hessian has required structure
  Cycle:     44 Energy:     -3061.469518  Gnorm:      0.000142  CPU:    7.481
  ** Hessian has required structure
  Cycle:     45 Energy:     -3061.469509  Gnorm:      0.000938  CPU:    7.661
  ** Hessian has required structure
  Cycle:     46 Energy:     -3061.469517  Gnorm:      0.000469  CPU:    7.904
  ** Hessian has required structure
  Cycle:     47 Energy:     -3061.469518  Gnorm:      0.000328  CPU:    8.032
  ** Hessian has required structure
  Cycle:     48 Energy:     -3061.469518  Gnorm:      0.000230  CPU:    8.162
  ** Hessian has required structure
  Cycle:     49 Energy:     -3061.469519  Gnorm:      0.000161  CPU:    8.290
  ** Hessian has required structure
  Cycle:     50 Energy:     -3061.469519  Gnorm:      0.000113  CPU:    8.418
  ** Hessian has required structure


  **** Optimisation achieved ****


  Final energy =   -3061.46951889 eV      
  Final Gnorm  =       0.00007884

  Components of energy : 

--------------------------------------------------------------------------------
  Interatomic potentials     =         814.07211106 eV    
  Three-body potentials      =           0.16925585 eV    
  Monopole - monopole (real) =       -2167.03066196 eV    
  Monopole - monopole (recip)=       -1708.68022384 eV    
  Monopole - monopole (total)=       -3875.71088581 eV    
--------------------------------------------------------------------------------
  Total lattice energy       =       -3061.46951889 eV    
--------------------------------------------------------------------------------
  Total lattice energy       =         -295385.0097 kJ/(mole unit cells)
--------------------------------------------------------------------------------

  Final fractional coordinates of atoms :

--------------------------------------------------------------------------------
   No.  Atomic        x           y          z          Radius
        Label       (Frac)      (Frac)     (Frac)       (Angs) 
--------------------------------------------------------------------------------
     1  Ge    c     0.160190    0.293910    0.273440    0.000000
     2  Ge    c     0.361361    0.653266    0.276228    0.000000
     3  Ge    c     0.844445    0.674363    0.701784    0.000000
     4  Ge    c     0.154786    0.310927    0.955202    0.000000
     5  Si    c     0.058957    0.989942    0.369424    0.000000
     6  Si    c     0.464329    0.958998    0.360594    0.000000
     7  Si    c     0.959826    0.958098    0.623647    0.000000
     8  Si    c     0.554363    0.977306    0.627705    0.000000
     9  Si    c     0.567878    0.980360    0.115199    0.000000
    10  Si    c     0.952417    0.969372    0.119860    0.000000
    11  Si    c     0.449747    0.974702    0.878921    0.000000
    12  Si    c     0.061713    0.992656    0.878340    0.000000
    13  Si    c     0.850686    0.262188    0.711037    0.000000
    14  Si    c     0.661958    0.666131    0.702717    0.000000
    15  Si    c     0.669686    0.261532    0.711624    0.000000
    16  Si    c     0.179220    0.702176    0.277982    0.000000
    17  Si    c     0.340474    0.248548    0.265519    0.000000
    18  Si    c     0.672659    0.270773    0.015842    0.000000
    19  Si    c     0.846329    0.681339    0.012238    0.000000
    20  Si    c     0.334700    0.270047    0.955244    0.000000
    21  Si    c     0.179036    0.711511    0.969227    0.000000
    22  Si    c     0.357881    0.661480    0.965590    0.000000
    23  Si    c     0.666979    0.668965    0.009921    0.000000
    24  Si    c     0.852908    0.278546    0.014714    0.000000
    25  O3    c     0.093637    0.181003    0.362853    0.000000
    26  O3    c     0.430518    0.766202    0.363212    0.000000
    27  O2    c     0.904155    0.131825    0.627136    0.000000
    28  O2    c     0.598784    0.787849    0.625130    0.000000
    29  O3    c     0.904119    0.795159    0.606360    0.000000
    30  O2    c     0.617836    0.129663    0.628228    0.000000
    31  O2    c     0.130331    0.850885    0.353515    0.000000
    32  O2    c     0.391980    0.088749    0.323908    0.000000
    33  O2    c     0.020756    0.966556    0.509083    0.000000
    34  O2    c     0.499692    0.004312    0.501690    0.000000
    35  O2    c     0.991740    0.957485    0.261624    0.000000
    36  O2    c     0.533530    0.979280    0.258648    0.000000
    37  O2    c     0.009143    0.933941    0.757280    0.000000
    38  O2    c     0.500837    0.995385    0.752684    0.000000
    39  O2    c     0.627013    0.140417    0.107706    0.000000
    40  O2    c     0.894091    0.808050    0.107072    0.000000
    41  O2    c     0.381658    0.122431    0.876109    0.000000
    42  O2    c     0.140533    0.872376    0.887952    0.000000
    43  O2    c     0.413406    0.781304    0.878683    0.000000
    44  O3    c     0.087545    0.191774    0.865600    0.000000
    45  O2    c     0.612013    0.795201    0.093242    0.000000
    46  O2    c     0.906737    0.156475    0.107886    0.000000
    47  O2    c     0.499746    0.009970    0.009181    0.000000
    48  O2    c     0.017173    0.953073    0.011031    0.000000
    49  O3    c     0.141744    0.514990    0.298198    0.000000
    50  O3    c     0.380578    0.431465    0.295600    0.000000
    51  O3    c     0.872382    0.458436    0.680333    0.000000
    52  O2    c     0.643321    0.461631    0.679396    0.000000
    53  O3    c     0.254967    0.246032    0.324798    0.000000
    54  O3    c     0.268045    0.697940    0.328922    0.000000
    55  O2    c     0.759924    0.231643    0.675238    0.000000
    56  O3    c     0.747924    0.703183    0.655046    0.000000
    57  O1    c     0.145541    0.241874    0.112905    0.000000
    58  O3    c     0.371785    0.713650    0.114942    0.000000
    59  O2    c     0.865678    0.220803    0.864959    0.000000
    60  O2    c     0.656887    0.711827    0.856573    0.000000
    61  O3    c     0.855081    0.737261    0.863070    0.000000
    62  O2    c     0.659313    0.219488    0.864713    0.000000
    63  O2    c     0.180323    0.748731    0.124007    0.000000
    64  O2    c     0.327319    0.227528    0.109102    0.000000
    65  O2    c     0.642530    0.469991    0.039533    0.000000
    66  O2    c     0.877147    0.480271    0.032239    0.000000
    67  O2    c     0.378152    0.456062    0.940460    0.000000
    68  O3    c     0.134064    0.533442    0.941460    0.000000
    69  O2    c     0.763700    0.254368    0.053200    0.000000
    70  O2    c     0.756195    0.696316    0.052522    0.000000
    71  O3    c     0.248096    0.279527    0.897524    0.000000
    72  O2    c     0.267900    0.693919    0.922961    0.000000
    73  O3    s     0.095541    0.170656    0.356217    0.000000
    74  O3    s     0.428228    0.776325    0.355817    0.000000
    75  O2    s     0.904087    0.128059    0.636155    0.000000
    76  O2    s     0.600973    0.794569    0.633777    0.000000
    77  O3    s     0.904696    0.801421    0.616144    0.000000
    78  O2    s     0.616884    0.128140    0.637625    0.000000
    79  O2    s     0.128102    0.849377    0.346849    0.000000
    80  O2    s     0.394026    0.092581    0.321266    0.000000
    81  O2    s     0.017988    0.968218    0.506480    0.000000
    82  O2    s     0.501992    0.996070    0.500245    0.000000
    83  O2    s     0.994581    0.962398    0.257073    0.000000
    84  O2    s     0.529858    0.977172    0.253335    0.000000
    85  O2    s     0.009712    0.943352    0.756454    0.000000
    86  O2    s     0.500988    0.990829    0.753241    0.000000
    87  O2    s     0.625769    0.137798    0.098067    0.000000
    88  O2    s     0.895082    0.811414    0.097836    0.000000
    89  O2    s     0.383897    0.122673    0.885305    0.000000
    90  O2    s     0.136520    0.867425    0.895913    0.000000
    91  O2    s     0.411364    0.788957    0.887941    0.000000
    92  O3    s     0.090188    0.181481    0.873752    0.000000
    93  O2    s     0.613469    0.801096    0.086019    0.000000
    94  O2    s     0.905562    0.150334    0.098677    0.000000
    95  O2    s     0.501915    0.002712    0.006741    0.000000
    96  O2    s     0.014677    0.959242    0.008863    0.000000
    97  O3    s     0.146992    0.516074    0.294209    0.000000
    98  O3    s     0.375061    0.431173    0.291090    0.000000
    99  O3    s     0.867766    0.455733    0.685337    0.000000
   100  O2    s     0.648110    0.461868    0.685311    0.000000
   101  O3    s     0.255923    0.250033    0.314926    0.000000
   102  O3    s     0.266854    0.694780    0.319727    0.000000
   103  O2    s     0.759795    0.238070    0.682931    0.000000
   104  O3    s     0.747074    0.697144    0.663608    0.000000
   105  O1    s     0.147399    0.251256    0.113183    0.000000
   106  O3    s     0.369555    0.703602    0.112930    0.000000
   107  O2    s     0.862804    0.231048    0.864956    0.000000
   108  O2    s     0.658493    0.702455    0.856972    0.000000
   109  O3    s     0.853346    0.726630    0.865101    0.000000
   110  O2    s     0.661852    0.229396    0.864670    0.000000
   111  O2    s     0.180100    0.739876    0.123619    0.000000
   112  O2    s     0.329408    0.234264    0.109035    0.000000
   113  O2    s     0.648335    0.469899    0.033845    0.000000
   114  O2    s     0.871377    0.479622    0.028286    0.000000
   115  O2    s     0.371656    0.458620    0.944599    0.000000
   116  O3    s     0.140056    0.533221    0.945205    0.000000
   117  O2    s     0.763538    0.258923    0.044827    0.000000
   118  O2    s     0.756103    0.691621    0.043514    0.000000
   119  O3    s     0.249435    0.281075    0.907973    0.000000
   120  O2    s     0.267935    0.692221    0.932517    0.000000
--------------------------------------------------------------------------------

  Final Cartesian lattice vectors (Angstroms) :

       17.174060    0.209892   -0.152509
        0.091540    7.625437    0.006012
       -0.090959    0.008965   10.229710


  Final cell parameters and derivatives :

--------------------------------------------------------------------------------
       a           17.176020 Angstrom     dE/de1(xx)    -0.006797 eV/strain
       b            7.625989 Angstrom     dE/de2(yy)    -0.008364 eV/strain
       c           10.230118 Angstrom     dE/de3(zz)     0.005347 eV/strain
       alpha       89.910739 Degrees      dE/de4(yz)     0.001844 eV/strain
       beta        91.017536 Degrees      dE/de5(xz)    -0.002824 eV/strain
       gamma       88.612476 Degrees      dE/de6(xy)    -0.005629 eV/strain
--------------------------------------------------------------------------------

  Primitive cell volume =          1339.376470 Angs**3

  Density of cell =      2.008781 g/cm**3

  Non-primitive cell volume =          1339.376470 Angs**3


  Final internal derivatives :

--------------------------------------------------------------------------------
   No.  Atomic          a             b             c           Radius
        Label          (eV)          (eV)          (eV)        (eV/Angs)
--------------------------------------------------------------------------------
      1 Ge    c       0.000000      0.000000      0.000000      0.000000
      2 Ge    c       0.001862      0.000007      0.001563      0.000000
      3 Ge    c      -0.000317      0.000657     -0.002485      0.000000
      4 Ge    c      -0.001542     -0.000358     -0.002253      0.000000
      5 Si    c       0.001918      0.002669     -0.002523      0.000000
      6 Si    c      -0.004211     -0.002103     -0.000194      0.000000
      7 Si    c      -0.004130     -0.002601      0.001564      0.000000
      8 Si    c       0.005509      0.001652     -0.001128      0.000000
      9 Si    c       0.002746      0.002514     -0.002494      0.000000
     10 Si    c      -0.004692     -0.001333      0.000592      0.000000
     11 Si    c      -0.002478     -0.002458      0.002048      0.000000
     12 Si    c       0.002759      0.001944     -0.000714      0.000000
     13 Si    c      -0.004193      0.002304     -0.000700      0.000000
     14 Si    c       0.001798     -0.000968     -0.002512      0.000000
     15 Si    c      -0.001130     -0.000301     -0.002219      0.000000
     16 Si    c       0.003247     -0.002239      0.001023      0.000000
     17 Si    c       0.000507      0.001637      0.001964      0.000000
     18 Si    c       0.000739     -0.000774      0.002563      0.000000
     19 Si    c       0.000380      0.000093      0.001963      0.000000
     20 Si    c      -0.003102      0.002767     -0.000897      0.000000
     21 Si    c       0.000139     -0.001508     -0.002765      0.000000
     22 Si    c      -0.000733      0.000415     -0.002246      0.000000
     23 Si    c       0.004414     -0.002149      0.000783      0.000000
     24 Si    c      -0.001447      0.001052      0.002524      0.000000
     25 O3    c      -0.000194     -0.002245     -0.001267      0.000000
     26 O3    c      -0.000559      0.001854     -0.001556      0.000000
     27 O2    c       0.001501     -0.000642     -0.001192      0.000000
     28 O2    c       0.000907     -0.000597      0.000527      0.000000
     29 O3    c       0.002004      0.001639      0.001879      0.000000
     30 O2    c      -0.002072     -0.000854      0.001078      0.000000
     31 O2    c      -0.001175      0.000915      0.000926      0.000000
     32 O2    c      -0.000255      0.000135     -0.000280      0.000000
     33 O2    c       0.000555     -0.000076      0.000422      0.000000
     34 O2    c       0.000569      0.000077      0.000669      0.000000
     35 O2    c       0.001498      0.000089      0.000891      0.000000
     36 O2    c      -0.000652     -0.000001      0.001781      0.000000
     37 O2    c       0.000211      0.000026      0.000466      0.000000
     38 O2    c      -0.000552      0.000311      0.000524      0.000000
     39 O2    c      -0.001561     -0.000758     -0.000939      0.000000
     40 O2    c       0.001960      0.000947     -0.000624      0.000000
     41 O2    c       0.001351     -0.000978     -0.001055      0.000000
     42 O2    c       0.000230     -0.000177      0.000547      0.000000
     43 O2    c      -0.000077      0.001119      0.001200      0.000000
     44 O3    c       0.000940     -0.001735      0.001853      0.000000
     45 O2    c      -0.001888      0.000356      0.001159      0.000000
     46 O2    c      -0.000487      0.000472     -0.000564      0.000000
     47 O2    c       0.000702     -0.000100      0.000182      0.000000
     48 O2    c       0.001941     -0.000243     -0.000762      0.000000
     49 O3    c       0.002012      0.002996      0.000153      0.000000
     50 O3    c      -0.003546     -0.001625     -0.001270      0.000000
     51 O3    c      -0.001304     -0.002697      0.000946      0.000000
     52 O2    c       0.000840      0.000429      0.000555      0.000000
     53 O3    c      -0.001411      0.000244     -0.001127      0.000000
     54 O3    c      -0.003691     -0.000064     -0.000988      0.000000
     55 O2    c       0.002804      0.000198      0.000686      0.000000
     56 O3    c       0.000343     -0.000309      0.001472      0.000000
     57 O1    c      -0.001664     -0.001164     -0.001596      0.000000
     58 O3    c       0.000168      0.000620      0.000980      0.000000
     59 O2    c       0.000810     -0.000684     -0.001507      0.000000
     60 O2    c      -0.000333      0.000582      0.001245      0.000000
     61 O3    c       0.000786      0.000853      0.000929      0.000000
     62 O2    c      -0.000724     -0.000497     -0.000375      0.000000
     63 O2    c       0.000207      0.000671      0.000847      0.000000
     64 O2    c      -0.000623     -0.000383     -0.000178      0.000000
     65 O2    c       0.000736      0.001781     -0.000535      0.000000
     66 O2    c      -0.001048     -0.000871     -0.000313      0.000000
     67 O2    c      -0.002597     -0.001610      0.000604      0.000000
     68 O3    c       0.003261      0.001846      0.000672      0.000000
     69 O2    c      -0.000957      0.000101     -0.000894      0.000000
     70 O2    c      -0.002458     -0.000158     -0.000874      0.000000
     71 O3    c       0.004942     -0.000045      0.001328      0.000000
     72 O2    c       0.001737     -0.000213      0.000882      0.000000
     73 O3    s      -0.000384      0.000975      0.001128      0.000000
     74 O3    s       0.000388     -0.000697      0.000726      0.000000
     75 O2    s      -0.000537      0.000296     -0.000043      0.000000
     76 O2    s       0.000563      0.000267     -0.000635      0.000000
     77 O3    s      -0.000818     -0.000999     -0.001418      0.000000
     78 O2    s       0.001039      0.000291     -0.000786      0.000000
     79 O2    s      -0.000051     -0.000329      0.000272      0.000000
     80 O2    s       0.000291      0.000323      0.000329      0.000000
     81 O2    s       0.000057      0.000041     -0.000350      0.000000
     82 O2    s      -0.000462     -0.000048     -0.000292      0.000000
     83 O2    s      -0.000459      0.000143      0.000156      0.000000
     84 O2    s      -0.000375      0.000006     -0.000421      0.000000
     85 O2    s       0.000773      0.000343     -0.000298      0.000000
     86 O2    s      -0.000253     -0.000271     -0.000222      0.000000
     87 O2    s       0.000673      0.000422      0.000520      0.000000
     88 O2    s      -0.001278     -0.000453      0.000526      0.000000
     89 O2    s      -0.000289      0.000532      0.000226      0.000000
     90 O2    s      -0.000084     -0.000217     -0.000966      0.000000
     91 O2    s       0.000072     -0.000470     -0.000792      0.000000
     92 O3    s      -0.000564      0.000627     -0.001138      0.000000
     93 O2    s       0.001282     -0.000111     -0.000195      0.000000
     94 O2    s      -0.001113      0.000043      0.000864      0.000000
     95 O2    s      -0.001028      0.000040      0.000064      0.000000
     96 O2    s       0.000034      0.000050     -0.000012      0.000000
     97 O3    s      -0.000424     -0.001432      0.000559      0.000000
     98 O3    s       0.001078      0.000509      0.000585      0.000000
     99 O3    s      -0.000577      0.001007     -0.000614      0.000000
    100 O2    s       0.000222     -0.000052     -0.000468      0.000000
    101 O3    s       0.001651      0.000147      0.001165      0.000000
    102 O3    s       0.001678     -0.000179      0.000924      0.000000
    103 O2    s      -0.000288      0.000215     -0.000517      0.000000
    104 O3    s      -0.000463     -0.000195     -0.001315      0.000000
    105 O1    s       0.001361      0.000774      0.000632      0.000000
    106 O3    s      -0.000593     -0.000505     -0.000610      0.000000
    107 O2    s      -0.000357      0.000502      0.000090      0.000000
    108 O2    s       0.000002     -0.000408     -0.000149      0.000000
    109 O3    s      -0.000517     -0.000678     -0.000391      0.000000
    110 O2    s       0.000569      0.000304      0.000102      0.000000
    111 O2    s      -0.000800     -0.000372     -0.000320      0.000000
    112 O2    s       0.000747      0.000595     -0.000225      0.000000
    113 O2    s       0.000884     -0.000302      0.000504      0.000000
    114 O2    s      -0.000572      0.000283      0.000282      0.000000
    115 O2    s      -0.000365      0.000333     -0.000153      0.000000
    116 O3    s      -0.001202     -0.000929     -0.000540      0.000000
    117 O2    s       0.000267      0.000200      0.000702      0.000000
    118 O2    s       0.000239     -0.000219      0.000435      0.000000
    119 O3    s      -0.001406      0.000364     -0.000662      0.000000
    120 O2    s      -0.000133     -0.000085     -0.000886      0.000000
--------------------------------------------------------------------------------
  Maximum abs         0.005509      0.002996      0.002765      0.000000
--------------------------------------------------------------------------------


  Born effective charge tensors : 

-------------------------------------------------------------------------------
  Atom             x           y             z
-------------------------------------------------------------------------------
    1 Ge    x       3.9850      0.3004     -0.0394
            y       0.3650      4.1929     -0.1909
            z      -0.1912     -0.0219      3.5267
-------------------------------------------------------------------------------
    2 Ge    x       3.9535      0.2901      0.0436
            y       0.3623      4.1896      0.2510
            z       0.1710      0.0423      3.4610
-------------------------------------------------------------------------------
    3 Ge    x       3.9556      0.3263     -0.1557
            y       0.2791      4.1795     -0.2476
            z      -0.1801     -0.0403      3.4310
-------------------------------------------------------------------------------
    4 Ge    x       4.0676      0.4023      0.0362
            y       0.3879      4.2524      0.2048
            z       0.1923     -0.0128      3.3254
-------------------------------------------------------------------------------
    5 Si    x       3.5576      0.3568     -0.2726
            y      -0.0103      3.4646      0.0030
            z      -0.3330     -0.0779      3.8548
-------------------------------------------------------------------------------
    6 Si    x       3.5275      0.3938      0.2967
            y      -0.0169      3.4499     -0.1034
            z       0.2827      0.1916      3.8939
-------------------------------------------------------------------------------
    7 Si    x       3.6286      0.1533     -0.0446
            y       0.2298      3.4310      0.1013
            z      -0.6335     -0.0511      3.7223
-------------------------------------------------------------------------------
    8 Si    x       3.4078     -0.0956      0.0660
            y       0.1238      3.2279      0.0123
            z       0.5142     -0.0672      3.7495
-------------------------------------------------------------------------------
    9 Si    x       3.4647     -0.0493     -0.2715
            y       0.1061      3.2704      0.0283
            z      -0.4020     -0.0299      3.1557
-------------------------------------------------------------------------------
   10 Si    x       3.4672     -0.0684      0.2475
            y       0.0850      3.2572      0.0024
            z       0.4007     -0.0486      3.1399
-------------------------------------------------------------------------------
   11 Si    x       3.4856      0.1856     -0.1312
            y      -0.1474      3.2208     -0.0108
            z      -0.5256     -0.0592      3.0675
-------------------------------------------------------------------------------
   12 Si    x       3.5650      0.3998      0.0768
            y      -0.1085      3.4875     -0.0811
            z       0.5190      0.1361      3.0924
-------------------------------------------------------------------------------
   13 Si    x       3.2965     -0.1857     -0.1172
            y      -0.1196      3.7404      0.0839
            z      -0.1326      0.0019      2.9000
-------------------------------------------------------------------------------
   14 Si    x       3.5041     -0.1875     -0.0466
            y      -0.2365      3.5345     -0.1984
            z       0.0458     -0.0905      2.8944
-------------------------------------------------------------------------------
   15 Si    x       3.1912      0.2793      0.1181
            y       0.1828      3.4437      0.1545
            z       0.1019      0.0656      2.8158
-------------------------------------------------------------------------------
   16 Si    x       3.6657     -0.2588     -0.0141
            y       0.0424      3.7744      0.1112
            z      -0.1108      0.0438      2.9500
-------------------------------------------------------------------------------
   17 Si    x       3.6216     -0.2575     -0.0894
            y       0.0520      3.8017     -0.0777
            z       0.1169     -0.0954      2.9554
-------------------------------------------------------------------------------
   18 Si    x       3.2232      0.3135     -0.1665
            y       0.1500      3.4313     -0.1937
            z      -0.1200     -0.0666      2.7402
-------------------------------------------------------------------------------
   19 Si    x       3.2962      0.3376      0.1225
            y       0.1769      3.5514      0.1255
            z       0.1194     -0.0206      3.0267
-------------------------------------------------------------------------------
   20 Si    x       3.5816     -0.3987      0.0282
            y      -0.0733      3.4985      0.1848
            z      -0.1010      0.0929      2.7985
-------------------------------------------------------------------------------
   21 Si    x       3.3696     -0.3115      0.1264
            y       0.1130      3.6778     -0.0681
            z       0.1889     -0.0162      2.7742
-------------------------------------------------------------------------------
   22 Si    x       3.3455      0.3405     -0.0675
            y       0.2833      3.4918     -0.1073
            z      -0.1251      0.0408      3.0104
-------------------------------------------------------------------------------
   23 Si    x       3.2218     -0.2693     -0.1090
            y      -0.2061      3.4123      0.1735
            z      -0.1617      0.0793      2.7361
-------------------------------------------------------------------------------
   24 Si    x       3.2477     -0.2648      0.1309
            y      -0.2054      3.3941     -0.1987
            z       0.1371     -0.0332      2.7092
-------------------------------------------------------------------------------
   25 O3    x      -1.9369     -0.9162      0.3982
            y      -0.8559     -2.5353      0.4061
            z       0.4328      0.3903     -1.5266
-------------------------------------------------------------------------------
   26 O3    x      -1.9309     -0.9075     -0.3738
            y      -0.8545     -2.5431     -0.3185
            z      -0.4210     -0.3590     -1.5321
-------------------------------------------------------------------------------
   27 O2    x      -1.7214      0.6734      0.3049
            y       0.6953     -1.9002     -0.3408
            z       0.3797     -0.3059     -1.3735
-------------------------------------------------------------------------------
   28 O2    x      -1.6365      0.6982     -0.2664
            y       0.6710     -2.0250      0.2865
            z      -0.3341      0.2864     -1.3350
-------------------------------------------------------------------------------
   29 O3    x      -2.1000     -0.9539      0.3086
            y      -1.0335     -2.3796      0.3043
            z       0.4147      0.2920     -1.5303
-------------------------------------------------------------------------------
   30 O2    x      -1.7564     -0.7326     -0.2883
            y      -0.7610     -1.9379     -0.3154
            z      -0.3530     -0.3049     -1.3321
-------------------------------------------------------------------------------
   31 O2    x      -1.8270      0.6649      0.3467
            y       0.7025     -1.8552     -0.3436
            z       0.3584     -0.3181     -1.3679
-------------------------------------------------------------------------------
   32 O2    x      -1.8381      0.6650     -0.3488
            y       0.7214     -1.8969      0.3504
            z      -0.3657      0.3050     -1.3313
-------------------------------------------------------------------------------
   33 O2    x      -1.6396     -0.0632      0.7728
            y      -0.0215     -1.0812      0.0432
            z       0.9934      0.0820     -2.6641
-------------------------------------------------------------------------------
   34 O2    x      -1.5401     -0.0297     -0.7565
            y      -0.0119     -1.1017     -0.0390
            z      -0.9187     -0.0632     -2.7552
-------------------------------------------------------------------------------
   35 O2    x      -1.7113     -0.0371     -0.6947
            y      -0.0176     -1.1067     -0.0286
            z      -0.7034     -0.0279     -2.2416
-------------------------------------------------------------------------------
   36 O2    x      -1.7033     -0.0455      0.6878
            y      -0.0141     -1.1007      0.0309
            z       0.7033      0.0382     -2.2498
-------------------------------------------------------------------------------
   37 O2    x      -1.6569     -0.0860     -0.6636
            y      -0.0193     -1.1496     -0.0505
            z      -0.6359     -0.0864     -2.1917
-------------------------------------------------------------------------------
   38 O2    x      -1.7316     -0.0332      0.7646
            y      -0.0030     -1.1159      0.0082
            z       0.7405      0.0415     -2.2176
-------------------------------------------------------------------------------
   39 O2    x      -1.7192     -0.7253      0.3686
            y      -0.6860     -1.9505      0.3760
            z       0.3497      0.3522     -1.2754
-------------------------------------------------------------------------------
   40 O2    x      -1.7344     -0.7288     -0.3647
            y      -0.6848     -1.9609     -0.3759
            z      -0.3526     -0.3374     -1.2624
-------------------------------------------------------------------------------
   41 O2    x      -1.7660      0.7239      0.2586
            y       0.6807     -1.9379     -0.3079
            z       0.3059     -0.2915     -1.2055
-------------------------------------------------------------------------------
   42 O2    x      -1.8593      0.6353     -0.2831
            y       0.6366     -1.8155      0.3266
            z      -0.3303      0.2791     -1.2252
-------------------------------------------------------------------------------
   43 O2    x      -1.6651     -0.7164      0.2892
            y      -0.5950     -2.0373      0.3036
            z       0.3495      0.3174     -1.2160
-------------------------------------------------------------------------------
   44 O3    x      -1.9194     -0.8767     -0.3039
            y      -0.7333     -2.5983     -0.2713
            z      -0.3846     -0.2842     -1.3339
-------------------------------------------------------------------------------
   45 O2    x      -1.6556      0.7000      0.3703
            y       0.6295     -2.0127     -0.4101
            z       0.3691     -0.3753     -1.2599
-------------------------------------------------------------------------------
   46 O2    x      -1.6554      0.6985     -0.3622
            y       0.6127     -1.9833      0.3804
            z      -0.3483      0.3493     -1.2754
-------------------------------------------------------------------------------
   47 O2    x      -1.8435     -0.0230     -0.6201
            y       0.0100     -1.1649     -0.0229
            z      -0.3642     -0.0247     -1.7043
-------------------------------------------------------------------------------
   48 O2    x      -1.7987     -0.0279      0.6176
            y       0.0196     -1.1649      0.0461
            z       0.3576      0.0426     -1.7596
-------------------------------------------------------------------------------
   49 O3    x      -1.3739     -0.1892      0.0739
            y      -0.2826     -3.1668      0.0220
            z       0.1147      0.0539     -1.1933
-------------------------------------------------------------------------------
   50 O3    x      -1.3705     -0.1839     -0.0804
            y      -0.2909     -3.1291     -0.1090
            z      -0.1295     -0.0746     -1.2154
-------------------------------------------------------------------------------
   51 O3    x      -1.3196     -0.0615      0.0845
            y      -0.0278     -3.2112      0.1081
            z       0.1005      0.1128     -1.1989
-------------------------------------------------------------------------------
   52 O2    x      -1.1522      0.0455     -0.0586
            y       0.0832     -2.5742      0.0354
            z      -0.0741      0.0270     -1.0821
-------------------------------------------------------------------------------
   53 O3    x      -2.9730      0.1678      0.1861
            y       0.0786     -1.3663      0.0765
            z       0.1951      0.0430     -1.2994
-------------------------------------------------------------------------------
   54 O3    x      -3.0211      0.1915     -0.0700
            y       0.1092     -1.3564     -0.0745
            z      -0.0890     -0.0328     -1.2857
-------------------------------------------------------------------------------
   55 O2    x      -2.4383      0.0102      0.0062
            y       0.0215     -1.2328     -0.0612
            z       0.0219     -0.0365     -1.0843
-------------------------------------------------------------------------------
   56 O3    x      -2.9764     -0.0900      0.1033
            y      -0.0835     -1.3871      0.1053
            z       0.1151      0.0677     -1.2492
-------------------------------------------------------------------------------
   57 O1    x      -1.4394     -0.1753     -0.0626
            y      -0.1551     -1.5504      0.0377
            z      -0.0602      0.0470     -2.7417
-------------------------------------------------------------------------------
   58 O3    x      -1.3445     -0.1650     -0.0351
            y      -0.1437     -1.4420     -0.0648
            z      -0.0150     -0.0333     -2.6217
-------------------------------------------------------------------------------
   59 O2    x      -1.2231      0.1314     -0.0229
            y       0.1137     -1.2740     -0.0592
            z      -0.0344     -0.0654     -2.0639
-------------------------------------------------------------------------------
   60 O2    x      -1.1767      0.1131     -0.0345
            y       0.0996     -1.2912     -0.0031
            z      -0.0273     -0.0107     -2.0930
-------------------------------------------------------------------------------
   61 O3    x      -1.3152     -0.1539      0.0225
            y      -0.1163     -1.4747      0.0939
            z       0.0079      0.0453     -2.5871
-------------------------------------------------------------------------------
   62 O2    x      -1.1765     -0.1290      0.0090
            y      -0.0943     -1.2803     -0.0289
            z       0.0087     -0.0186     -2.0655
-------------------------------------------------------------------------------
   63 O2    x      -1.2210      0.1189      0.0301
            y       0.0419     -1.2638      0.0029
            z       0.0204      0.0220     -2.1081
-------------------------------------------------------------------------------
   64 O2    x      -1.2223      0.1033      0.0052
            y       0.0249     -1.2956      0.0820
            z       0.0014      0.0723     -2.1050
-------------------------------------------------------------------------------
   65 O2    x      -1.2184      0.0233      0.0778
            y       0.0345     -2.5110      0.0269
            z       0.0954      0.0039     -1.0224
-------------------------------------------------------------------------------
   66 O2    x      -1.2431      0.0136     -0.0645
            y       0.0412     -2.5509     -0.0172
            z      -0.0862     -0.0225     -1.0041
-------------------------------------------------------------------------------
   67 O2    x      -1.2678     -0.0617      0.0582
            y      -0.1618     -2.4884     -0.0096
            z       0.1014     -0.0144     -1.0202
-------------------------------------------------------------------------------
   68 O3    x      -1.5087     -0.2244     -0.0983
            y      -0.3443     -3.0660     -0.1274
            z      -0.1591     -0.1267     -1.1259
-------------------------------------------------------------------------------
   69 O2    x      -2.4319     -0.0422      0.0165
            y      -0.0101     -1.2273      0.0647
            z       0.0004      0.0275     -1.0406
-------------------------------------------------------------------------------
   70 O2    x      -2.4159     -0.0483     -0.0288
            y      -0.0338     -1.2486     -0.0659
            z      -0.0253     -0.0357     -1.0449
-------------------------------------------------------------------------------
   71 O3    x      -3.0246      0.1410     -0.1109
            y       0.0850     -1.3734     -0.0692
            z      -0.1495     -0.0223     -1.2459
-------------------------------------------------------------------------------
   72 O2    x      -2.4296      0.1764      0.0638
            y       0.1078     -1.2588      0.0379
            z       0.0504      0.0102     -1.0661
-------------------------------------------------------------------------------




  Elastic Constant Matrix: (Units=GPa)

-------------------------------------------------------------------------------
  Indices      1         2         3         4         5         6    
-------------------------------------------------------------------------------
       1     46.5133   21.6205   18.4393   -0.2242   -5.7604    2.4070
       2     21.6205   65.4586   16.9457   -0.1428   -5.2483    5.1476
       3     18.4393   16.9457   32.2546   -0.2812   -2.8094    4.6848
       4     -0.2242   -0.1428   -0.2812   10.8633    2.6765   -0.1917
       5     -5.7604   -5.2483   -2.8094    2.6765   20.5484   -0.8454
       6      2.4070    5.1476    4.6848   -0.1917   -0.8454   20.4591
-------------------------------------------------------------------------------


  Elastic Compliance Matrix: (Units=1/GPa)

-------------------------------------------------------------------------------
  Indices      1         2         3         4         5         6    
-------------------------------------------------------------------------------
       1    0.030452 -0.006139 -0.013932 -0.001085  0.005261  0.001359
       2   -0.006139  0.019260 -0.006025 -0.000655  0.002351 -0.002653
       3   -0.013932 -0.006025  0.043122  0.000608  0.000096 -0.006709
       4   -0.001085 -0.000655  0.000608  0.095193 -0.012767  0.000518
       5    0.005261  0.002351  0.000096 -0.012767  0.052450  0.000815
       6    0.001359 -0.002653 -0.006709  0.000518  0.000815  0.050960
-------------------------------------------------------------------------------

  Mechanical properties :

-------------------------------------------------------------------------------
  Convention :                    Reuss         Voigt         Hill
-------------------------------------------------------------------------------
  Bulk  Modulus (GPa)     =      24.60532      28.69306      26.64919
  Shear Modulus (GPa)     =      13.99873      16.18889      15.09381
-------------------------------------------------------------------------------
  Velocity S-wave (km/s)  =       2.63984       2.83885       2.74115
  Velocity P-wave (km/s)  =       4.64118       5.00292       4.82544
-------------------------------------------------------------------------------
  Compressibility (1/GPa) =    0.04064162
-------------------------------------------------------------------------------
  Stress axis :                     x             y             z
-------------------------------------------------------------------------------
  Youngs Moduli (GPa)     =      32.83882      51.92175      23.19028
-------------------------------------------------------------------------------
  Poissons Ratio (x)      =                     0.31873       0.32309
  Poissons Ratio (y)      =       0.20159                     0.13972
  Poissons Ratio (z)      =       0.45752       0.31282
-------------------------------------------------------------------------------


  Piezoelectric Strain Matrix: (Units=C/m**2)

-------------------------------------------------------------------------------
  Indices      1         2         3         4         5         6    
-------------------------------------------------------------------------------
       x     0.16950   0.64537  -0.10952   0.14061  -0.57188   0.24189
       y    -0.45178  -0.44054   0.10375   0.05535  -0.26151   0.06259
       z    -0.29858  -0.72609   1.47788   0.19439  -0.06269  -0.06579
-------------------------------------------------------------------------------


  Piezoelectric Stress Matrix: (Units=10**-11 C/N)

-------------------------------------------------------------------------------
  Indices      1         2         3         4         5         6    
-------------------------------------------------------------------------------
       x    -0.01068   0.99707  -1.25649   2.01374  -2.91946   1.11865
       y    -1.38495  -0.71536   1.30109   0.94816  -1.77743   0.28636
       z    -2.58555  -2.11557   7.28165   2.09686  -0.89596  -1.16984
-------------------------------------------------------------------------------


  Static dielectric constant tensor : 

-------------------------------------------------------------------------------
              x         y         z
-------------------------------------------------------------------------------
       x     4.11557   0.17922  -0.02114
       y     0.17922   4.29292   0.01441
       z    -0.02114   0.01441   3.20526
--------------------------------------------------------------------------------

  High frequency dielectric constant tensor : 

-------------------------------------------------------------------------------
              x         y         z
-------------------------------------------------------------------------------
       x     1.67343   0.00191  -0.00171
       y     0.00191   1.67881   0.00011
       z    -0.00171   0.00011   1.61531
-------------------------------------------------------------------------------

  Static refractive indices : 

-------------------------------------------------------------------------------
    1 =    1.79009      2 =    2.00127      3 =    2.09862
-------------------------------------------------------------------------------

  High frequency refractive indices : 

-------------------------------------------------------------------------------
    1 =    1.27093      2 =    1.29339      3 =    1.29592
-------------------------------------------------------------------------------


  Time to end of optimisation =       8.7123 seconds


  Peak dynamic memory used =       5.01 MB 


  Timing analysis for GULP :

--------------------------------------------------------------------------------
  Task / Subroutine                                          Time (Seconds)
--------------------------------------------------------------------------------
  Calculation of reciprocal space energy and derivatives          0.5442
  Calculation of real space energy and derivatives                5.5275
  Calculation of three-body energy and derivatives                0.4575
  Calculation and manipulation of Hessian matrix                  2.6737
  Calculation of matrix inversion                                 0.0229
  Global summation overhead                                       0.0001
--------------------------------------------------------------------------------
  Total CPU time                                                  8.7123
--------------------------------------------------------------------------------


  Dump file written as c01188.vasp.grs
  CIF file written as c01188.vasp.cif


  Job Finished at 15:07.55 31st October    2025                               

