********************************************************************************
*                       GENERAL UTILITY LATTICE PROGRAM                        *
*                                 Julian Gale                                  *
*                       Curtin Institute for Computation                       *
*                    School of Molecular and Life Sciences                     *
*                    Curtin University, Western Australia                      *
********************************************************************************
* Version = 6.1.2 * Last modified =   3rd November 2022                        *
********************************************************************************
*  optimise     - perform optimisation run                                     *
*  conp         - constant pressure calculation                                *
*  property     - calculate properties for final geometry                      *
********************************************************************************

  Job Started  at 15:12.13 31st October    2025                               

  Number of CPUs =     1


  Total number of configurations input =      1

********************************************************************************
*  Input for Configuration =   1 : c01216.vasp                                 *
********************************************************************************

  Formula = Ge4Si20O48                                                  

  Number of irreducible atoms/shells =     120


  Total number atoms/shells =     120

  Dimensionality = 3               :  Bulk   



  Cartesian lattice vectors (Angstroms) :

       17.182800    0.000000    0.000000
        0.000000    7.513760    0.000000
        0.000000    0.000000   10.447700

  Cell parameters (Angstroms/Degrees):

  a =      17.1828    alpha =  90.0000
  b =       7.5138    beta  =  90.0000
  c =      10.4477    gamma =  90.0000

  Initial cell volume =        1348.875752 Angs**3

  Temperature of configuration =   0.00     K 

  Pressure of configuration =         0.000 GPa 

  Fractional coordinates of asymmetric unit :

--------------------------------------------------------------------------------
   No.  Atomic       x           y          z         Charge      Occupancy
        Label      (Frac)      (Frac)     (Frac)        (e)         (Frac)  
--------------------------------------------------------------------------------
      1 Ge    c    0.160190    0.293910    0.273440     4.00000    1.000000    
      2 Ge    c    0.839810 *  0.293910 *  0.726560 *   4.00000    1.000000    
      3 Ge    c    0.839810 *  0.706090 *  0.726560 *   4.00000    1.000000    
      4 Ge    c    0.160190 *  0.706090 *  0.273440 *   4.00000    1.000000    
      5 Si    c    0.052090 *  0.000000 *  0.372270 *   4.00000    1.000000    
      6 Si    c    0.447910 *  0.000000 *  0.372270 *   4.00000    1.000000    
      7 Si    c    0.947910 *  0.000000 *  0.627730 *   4.00000    1.000000    
      8 Si    c    0.552090 *  0.000000 *  0.627730 *   4.00000    1.000000    
      9 Si    c    0.556730 *  0.000000 *  0.122130 *   4.00000    1.000000    
     10 Si    c    0.943270 *  0.000000 *  0.122130 *   4.00000    1.000000    
     11 Si    c    0.443270 *  0.000000 *  0.877870 *   4.00000    1.000000    
     12 Si    c    0.056730 *  0.000000 *  0.877870 *   4.00000    1.000000    
     13 Si    c    0.339810 *  0.706090 *  0.273440 *   4.00000    1.000000    
     14 Si    c    0.660190 *  0.706090 *  0.726560 *   4.00000    1.000000    
     15 Si    c    0.660190 *  0.293910 *  0.726560 *   4.00000    1.000000    
     16 Si    c    0.339810 *  0.293910 *  0.273440 *   4.00000    1.000000    
     17 Si    c    0.660660 *  0.294090 *  0.017440 *   4.00000    1.000000    
     18 Si    c    0.839340 *  0.705910 *  0.017440 *   4.00000    1.000000    
     19 Si    c    0.339340 *  0.294090 *  0.982560 *   4.00000    1.000000    
     20 Si    c    0.160660 *  0.705910 *  0.982560 *   4.00000    1.000000    
     21 Si    c    0.339340 *  0.705910 *  0.982560 *   4.00000    1.000000    
     22 Si    c    0.160660 *  0.294090 *  0.982560 *   4.00000    1.000000    
     23 Si    c    0.660660 *  0.705910 *  0.017440 *   4.00000    1.000000    
     24 Si    c    0.839340 *  0.294090 *  0.017440 *   4.00000    1.000000    
     25 O3    c    0.106570 *  0.174340 *  0.366200 *   1.33043    1.000000    
     26 O2    c    0.393430 *  0.825660 *  0.366200 *   0.87073    1.000000    
     27 O3    c    0.893430 *  0.174340 *  0.633800 *   1.33043    1.000000    
     28 O2    c    0.606570 *  0.825660 *  0.633800 *   0.87073    1.000000    
     29 O3    c    0.893430 *  0.825660 *  0.633800 *   1.33043    1.000000    
     30 O2    c    0.606570 *  0.174340 *  0.633800 *   0.87073    1.000000    
     31 O3    c    0.106570 *  0.825660 *  0.366200 *   1.33043    1.000000    
     32 O2    c    0.393430 *  0.174340 *  0.366200 *   0.87073    1.000000    
     33 O2    c    0.000000 *  0.000000 *  0.500000 *   0.87073    1.000000    
     34 O2    c    0.500000 *  0.000000 *  0.500000 *   0.87073    1.000000    
     35 O2    c    0.994520 *  0.000000 *  0.250840 *   0.87073    1.000000    
     36 O2    c    0.505480 *  0.000000 *  0.250840 *   0.87073    1.000000    
     37 O2    c    0.005480 *  0.000000 *  0.749160 *   0.87073    1.000000    
     38 O2    c    0.494520 *  0.000000 *  0.749160 *   0.87073    1.000000    
     39 O2    c    0.610230 *  0.175520 *  0.115390 *   0.87073    1.000000    
     40 O2    c    0.889770 *  0.824480 *  0.115390 *   0.87073    1.000000    
     41 O2    c    0.389770 *  0.175520 *  0.884610 *   0.87073    1.000000    
     42 O2    c    0.110230 *  0.824480 *  0.884610 *   0.87073    1.000000    
     43 O2    c    0.389770 *  0.824480 *  0.884610 *   0.87073    1.000000    
     44 O2    c    0.110230 *  0.175520 *  0.884610 *   0.87073    1.000000    
     45 O2    c    0.610230 *  0.824480 *  0.115390 *   0.87073    1.000000    
     46 O2    c    0.889770 *  0.175520 *  0.115390 *   0.87073    1.000000    
     47 O2    c    0.500000 *  0.000000 *  0.000000 *   0.87073    1.000000    
     48 O2    c    0.000000 *  0.000000 *  0.000000 *   0.87073    1.000000    
     49 O1    c    0.151750 *  0.500000 *  0.313330 *   1.73396    1.000000    
     50 O2    c    0.348250 *  0.500000 *  0.313330 *   0.87073    1.000000    
     51 O1    c    0.848250 *  0.500000 *  0.686670 *   1.73396    1.000000    
     52 O2    c    0.651750 *  0.500000 *  0.686670 *   0.87073    1.000000    
     53 O3    c    0.250000 *  0.234950 *  0.285720 *   1.33043    1.000000    
     54 O3    c    0.250000 *  0.765050 *  0.285720 *   1.33043    1.000000    
     55 O3    c    0.750000 *  0.234950 *  0.714280 *   1.33043    1.000000    
     56 O3    c    0.750000 *  0.765050 *  0.714280 *   1.33043    1.000000    
     57 O3    c    0.131410 *  0.268650 *  0.127790 *   1.33043    1.000000    
     58 O2    c    0.368590 *  0.731350 *  0.127790 *   0.87073    1.000000    
     59 O3    c    0.868590 *  0.268650 *  0.872210 *   1.33043    1.000000    
     60 O2    c    0.631410 *  0.731350 *  0.872210 *   0.87073    1.000000    
     61 O3    c    0.868590 *  0.731350 *  0.872210 *   1.33043    1.000000    
     62 O2    c    0.631410 *  0.268650 *  0.872210 *   0.87073    1.000000    
     63 O3    c    0.131410 *  0.731350 *  0.127790 *   1.33043    1.000000    
     64 O2    c    0.368590 *  0.268650 *  0.127790 *   0.87073    1.000000    
     65 O2    c    0.653920 *  0.500000 *  0.058200 *   0.87073    1.000000    
     66 O2    c    0.846080 *  0.500000 *  0.058200 *   0.87073    1.000000    
     67 O2    c    0.346080 *  0.500000 *  0.941800 *   0.87073    1.000000    
     68 O2    c    0.153920 *  0.500000 *  0.941800 *   0.87073    1.000000    
     69 O2    c    0.750000 *  0.231060 *  0.027050 *   0.87073    1.000000    
     70 O2    c    0.750000 *  0.768940 *  0.027050 *   0.87073    1.000000    
     71 O2    c    0.250000 *  0.231060 *  0.972950 *   0.87073    1.000000    
     72 O2    c    0.250000 *  0.768940 *  0.972950 *   0.87073    1.000000    
     73 O3    s    0.106570 *  0.174340 *  0.366200 *  -3.33043    1.000000    
     74 O2    s    0.393430 *  0.825660 *  0.366200 *  -2.87073    1.000000    
     75 O3    s    0.893430 *  0.174340 *  0.633800 *  -3.33043    1.000000    
     76 O2    s    0.606570 *  0.825660 *  0.633800 *  -2.87073    1.000000    
     77 O3    s    0.893430 *  0.825660 *  0.633800 *  -3.33043    1.000000    
     78 O2    s    0.606570 *  0.174340 *  0.633800 *  -2.87073    1.000000    
     79 O3    s    0.106570 *  0.825660 *  0.366200 *  -3.33043    1.000000    
     80 O2    s    0.393430 *  0.174340 *  0.366200 *  -2.87073    1.000000    
     81 O2    s    0.000000 *  0.000000 *  0.500000 *  -2.87073    1.000000    
     82 O2    s    0.500000 *  0.000000 *  0.500000 *  -2.87073    1.000000    
     83 O2    s    0.994520 *  0.000000 *  0.250840 *  -2.87073    1.000000    
     84 O2    s    0.505480 *  0.000000 *  0.250840 *  -2.87073    1.000000    
     85 O2    s    0.005480 *  0.000000 *  0.749160 *  -2.87073    1.000000    
     86 O2    s    0.494520 *  0.000000 *  0.749160 *  -2.87073    1.000000    
     87 O2    s    0.610230 *  0.175520 *  0.115390 *  -2.87073    1.000000    
     88 O2    s    0.889770 *  0.824480 *  0.115390 *  -2.87073    1.000000    
     89 O2    s    0.389770 *  0.175520 *  0.884610 *  -2.87073    1.000000    
     90 O2    s    0.110230 *  0.824480 *  0.884610 *  -2.87073    1.000000    
     91 O2    s    0.389770 *  0.824480 *  0.884610 *  -2.87073    1.000000    
     92 O2    s    0.110230 *  0.175520 *  0.884610 *  -2.87073    1.000000    
     93 O2    s    0.610230 *  0.824480 *  0.115390 *  -2.87073    1.000000    
     94 O2    s    0.889770 *  0.175520 *  0.115390 *  -2.87073    1.000000    
     95 O2    s    0.500000 *  0.000000 *  0.000000 *  -2.87073    1.000000    
     96 O2    s    0.000000 *  0.000000 *  0.000000 *  -2.87073    1.000000    
     97 O1    s    0.151750 *  0.500000 *  0.313330 *  -3.73396    1.000000    
     98 O2    s    0.348250 *  0.500000 *  0.313330 *  -2.87073    1.000000    
     99 O1    s    0.848250 *  0.500000 *  0.686670 *  -3.73396    1.000000    
    100 O2    s    0.651750 *  0.500000 *  0.686670 *  -2.87073    1.000000    
    101 O3    s    0.250000 *  0.234950 *  0.285720 *  -3.33043    1.000000    
    102 O3    s    0.250000 *  0.765050 *  0.285720 *  -3.33043    1.000000    
    103 O3    s    0.750000 *  0.234950 *  0.714280 *  -3.33043    1.000000    
    104 O3    s    0.750000 *  0.765050 *  0.714280 *  -3.33043    1.000000    
    105 O3    s    0.131410 *  0.268650 *  0.127790 *  -3.33043    1.000000    
    106 O2    s    0.368590 *  0.731350 *  0.127790 *  -2.87073    1.000000    
    107 O3    s    0.868590 *  0.268650 *  0.872210 *  -3.33043    1.000000    
    108 O2    s    0.631410 *  0.731350 *  0.872210 *  -2.87073    1.000000    
    109 O3    s    0.868590 *  0.731350 *  0.872210 *  -3.33043    1.000000    
    110 O2    s    0.631410 *  0.268650 *  0.872210 *  -2.87073    1.000000    
    111 O3    s    0.131410 *  0.731350 *  0.127790 *  -3.33043    1.000000    
    112 O2    s    0.368590 *  0.268650 *  0.127790 *  -2.87073    1.000000    
    113 O2    s    0.653920 *  0.500000 *  0.058200 *  -2.87073    1.000000    
    114 O2    s    0.846080 *  0.500000 *  0.058200 *  -2.87073    1.000000    
    115 O2    s    0.346080 *  0.500000 *  0.941800 *  -2.87073    1.000000    
    116 O2    s    0.153920 *  0.500000 *  0.941800 *  -2.87073    1.000000    
    117 O2    s    0.750000 *  0.231060 *  0.027050 *  -2.87073    1.000000    
    118 O2    s    0.750000 *  0.768940 *  0.027050 *  -2.87073    1.000000    
    119 O2    s    0.250000 *  0.231060 *  0.972950 *  -2.87073    1.000000    
    120 O2    s    0.250000 *  0.768940 *  0.972950 *  -2.87073    1.000000    
--------------------------------------------------------------------------------



********************************************************************************
*  General input information                                                   *
********************************************************************************

  Species output for all configurations : 

--------------------------------------------------------------------------------
  Species    Type    Atomic    Atomic    Charge       Radii (Angs)     Library
                     Number     Mass       (e)     Cova   Ionic  VDW   Symbol
--------------------------------------------------------------------------------
    Ge       Core       32      72.61   4.000000   1.170  0.000  1.750 Ge       
    Si       Core       14      28.09   4.000000   1.200  0.000  2.100 Si       
    O1       Core        8      16.00   1.733957   0.730  0.000  1.360 O1       
    O2       Core        8      16.00   0.870733   0.730  0.000  1.360 O2       
    O3       Core        8      16.00   1.330431   0.730  0.000  1.360 O3       
    O1       Shell       8       0.00  -3.733957   0.730  0.000  0.000 O1       
    O2       Shell       8       0.00  -2.870733   0.730  0.000  0.000 O2       
    O3       Shell       8       0.00  -3.330431   0.730  0.000  0.000 O3       
--------------------------------------------------------------------------------


  Lattice summation method               =    Ewald          (3-D)
                                         =    Parry          (2-D)
                                         =    Saunders et al (1-D)
  Accuracy factor for lattice sums       =   12.000


  Analytic derivatives to be used

  Time limit = Infinity

  Maximum range for interatomic potentials =    100000.000000 Angstroms

  General interatomic potentials :

--------------------------------------------------------------------------------
Atom  Types   Potential      Parameter       Value         Units   Cutoffs(Ang)
  1     2                                                            Min /  Max 
--------------------------------------------------------------------------------
Si   c O1   s Buckingham    Buckingham A     1315.2478    eV        0.000 16.000
                            Buckingham rho  0.31775900    Ang       
                            Buckingham C     10.141118    eV*Ang^6  
--------------------------------------------------------------------------------
Si   c O2   s Buckingham    Buckingham A     1315.2478    eV        0.000 16.000
                            Buckingham rho  0.31775900    Ang       
                            Buckingham C     10.141118    eV*Ang^6  
--------------------------------------------------------------------------------
Si   c O3   s Buckingham    Buckingham A     1315.2478    eV        0.000 16.000
                            Buckingham rho  0.31775900    Ang       
                            Buckingham C     10.141118    eV*Ang^6  
--------------------------------------------------------------------------------
Ge   c O1   s Buckingham    Buckingham A     1497.3996    eV        0.000 16.000
                            Buckingham rho  0.32564600    Ang       
                            Buckingham C     16.808599    eV*Ang^6  
--------------------------------------------------------------------------------
Ge   c O2   s Buckingham    Buckingham A     1497.3996    eV        0.000 16.000
                            Buckingham rho  0.32564600    Ang       
                            Buckingham C     16.808599    eV*Ang^6  
--------------------------------------------------------------------------------
Ge   c O3   s Buckingham    Buckingham A     1497.3996    eV        0.000 16.000
                            Buckingham rho  0.32564600    Ang       
                            Buckingham C     16.808599    eV*Ang^6  
--------------------------------------------------------------------------------
O1   s O1   s Buckingham    Buckingham A     22764.000    eV        0.000 16.000
                            Buckingham rho  0.14900000    Ang       
                            Buckingham C     10.937044    eV*Ang^6  
--------------------------------------------------------------------------------
O1   s O2   s Buckingham    Buckingham A     22764.000    eV        0.000 16.000
                            Buckingham rho  0.14900000    Ang       
                            Buckingham C     10.937044    eV*Ang^6  
--------------------------------------------------------------------------------
O1   s O3   s Buckingham    Buckingham A     22764.000    eV        0.000 16.000
                            Buckingham rho  0.14900000    Ang       
                            Buckingham C     10.937044    eV*Ang^6  
--------------------------------------------------------------------------------
O2   s O2   s Buckingham    Buckingham A     22764.000    eV        0.000 16.000
                            Buckingham rho  0.14900000    Ang       
                            Buckingham C     10.937044    eV*Ang^6  
--------------------------------------------------------------------------------
O2   s O3   s Buckingham    Buckingham A     22764.000    eV        0.000 16.000
                            Buckingham rho  0.14900000    Ang       
                            Buckingham C     10.937044    eV*Ang^6  
--------------------------------------------------------------------------------
O3   s O3   s Buckingham    Buckingham A     22764.000    eV        0.000 16.000
                            Buckingham rho  0.14900000    Ang       
                            Buckingham C     10.937044    eV*Ang^6  
--------------------------------------------------------------------------------
O1   c O1   s Spring (c-s)  Spring k 2       180.31577    eV*Ang^-2 0.000  0.800
                            Spring k 4       0.0000000    eV*Ang^-4 
--------------------------------------------------------------------------------
O2   c O2   s Spring (c-s)  Spring k 2       75.969800    eV*Ang^-2 0.000  0.800
                            Spring k 4       0.0000000    eV*Ang^-4 
--------------------------------------------------------------------------------
O3   c O3   s Spring (c-s)  Spring k 2       128.14270    eV*Ang^-2 0.000  0.800
                            Spring k 4       0.0000000    eV*Ang^-4 
--------------------------------------------------------------------------------

  General Three-body potentials :

--------------------------------------------------------------------------------
  Atoms       Potential      Parameter       Value         Units   Cutoffs(Ang)
  1 / 2 / 3                                                          Min /  Max 
--------------------------------------------------------------------------------
Si    core    Harmonic      Three-body cnst  1.2614000    eV*rad^-2 0.000  1.900
O1    shel                  Three-body angl  109.47000    degrees   0.000  1.900
O1    shel                  Three-body k4    0.0000000    eV*rad^-4 0.000  3.500
                            Three-body k3    0.0000000    eV*rad^-3 
--------------------------------------------------------------------------------
Si    core    Harmonic      Three-body cnst  1.2614000    eV*rad^-2 0.000  1.900
O1    shel                  Three-body angl  109.47000    degrees   0.000  1.900
õ(1   shel                  Three-body k4    0.0000000    eV*rad^-4 0.000  3.500
                            Three-body k3    0.0000000    eV*rad^-3 
--------------------------------------------------------------------------------
Si    core    Harmonic      Three-body cnst  1.2614000    eV*rad^-2 0.000  1.900
õ(1   shel                  Three-body angl  109.47000    degrees   0.000  1.900
õ(1   shel                  Three-body k4    0.0000000    eV*rad^-4 0.000  3.500
                            Three-body k3    0.0000000    eV*rad^-3 
--------------------------------------------------------------------------------
Si    core    Harmonic      Three-body cnst  1.2614000    eV*rad^-2 0.000  1.900
O1    shel                  Three-body angl  109.47000    degrees   0.000  1.900
O2    shel                  Three-body k4    0.0000000    eV*rad^-4 0.000  3.500
                            Three-body k3    0.0000000    eV*rad^-3 
--------------------------------------------------------------------------------
Si    core    Harmonic      Three-body cnst  1.2614000    eV*rad^-2 0.000  1.900
O1    shel                  Three-body angl  109.47000    degrees   0.000  1.900
õ(2   shel                  Three-body k4    0.0000000    eV*rad^-4 0.000  3.500
                            Three-body k3    0.0000000    eV*rad^-3 
--------------------------------------------------------------------------------
Si    core    Harmonic      Three-body cnst  1.2614000    eV*rad^-2 0.000  1.900
O2    shel                  Three-body angl  109.47000    degrees   0.000  1.900
õ(1   shel                  Three-body k4    0.0000000    eV*rad^-4 0.000  3.500
                            Three-body k3    0.0000000    eV*rad^-3 
--------------------------------------------------------------------------------
Si    core    Harmonic      Three-body cnst  1.2614000    eV*rad^-2 0.000  1.900
õ(1   shel                  Three-body angl  109.47000    degrees   0.000  1.900
õ(2   shel                  Three-body k4    0.0000000    eV*rad^-4 0.000  3.500
                            Three-body k3    0.0000000    eV*rad^-3 
--------------------------------------------------------------------------------
Si    core    Harmonic      Three-body cnst  1.2614000    eV*rad^-2 0.000  1.900
O2    shel                  Three-body angl  109.47000    degrees   0.000  1.900
O2    shel                  Three-body k4    0.0000000    eV*rad^-4 0.000  3.500
                            Three-body k3    0.0000000    eV*rad^-3 
--------------------------------------------------------------------------------
Si    core    Harmonic      Three-body cnst  1.2614000    eV*rad^-2 0.000  1.900
O2    shel                  Three-body angl  109.47000    degrees   0.000  1.900
õ(2   shel                  Three-body k4    0.0000000    eV*rad^-4 0.000  3.500
                            Three-body k3    0.0000000    eV*rad^-3 
--------------------------------------------------------------------------------
Si    core    Harmonic      Three-body cnst  1.2614000    eV*rad^-2 0.000  1.900
õ(2   shel                  Three-body angl  109.47000    degrees   0.000  1.900
õ(2   shel                  Three-body k4    0.0000000    eV*rad^-4 0.000  3.500
                            Three-body k3    0.0000000    eV*rad^-3 
--------------------------------------------------------------------------------

********************************************************************************
*  Output for configuration   1 : c01216.vasp                                  *
********************************************************************************


  Components of energy : 

--------------------------------------------------------------------------------
  Interatomic potentials     =         768.25864453 eV    
  Three-body potentials      =           0.01437679 eV    
  Monopole - monopole (real) =       -2676.00317478 eV    
  Monopole - monopole (recip)=       -1115.35404472 eV    
  Monopole - monopole (total)=       -3791.35721950 eV    
--------------------------------------------------------------------------------
  Total lattice energy       =       -3023.08419819 eV    
--------------------------------------------------------------------------------
  Total lattice energy       =         -291681.4131 kJ/(mole unit cells)
--------------------------------------------------------------------------------


  Number of variables =      363

  Maximum number of calculations  =          1000
  Maximum Hessian update interval =            10
  Maximum step size               =   0.100000000
  Maximum parameter tolerance     =   0.000010000
  Maximum function  tolerance     =   0.000010000
  Maximum gradient  tolerance     =   0.001000000
  Maximum gradient  component     =   0.010000000

  Symmetry not applied to optimisation

  Cell parameters to be optimised using strains

  Newton-Raphson optimiser to be used

  BFGS hessian update to be used

  Lower half triangular hessian to be used

  Minimiser to switch to RFO
  When gradient norm is less than     0.050000

  Dumpfile to be written after every cycle

  Start of bulk optimisation :

  Cycle:      0 Energy:     -3023.084198  Gnorm:      4.577402  CPU:    0.093
  ** Hessian calculated **
  Cycle:      1 Energy:     -3047.223434  Gnorm:      2.738322  CPU:    0.256
  ** Hessian calculated **
  Cycle:      2 Energy:     -3059.654602  Gnorm:      0.650299  CPU:    0.497
  ** Hessian calculated **
  Cycle:      3 Energy:     -3060.311950  Gnorm:      0.172025  CPU:    0.655
  Cycle:      4 Energy:     -3060.403152  Gnorm:      0.107035  CPU:    0.745
  Cycle:      5 Energy:     -3060.447362  Gnorm:      0.074270  CPU:    0.852
  Cycle:      6 Energy:     -3060.487334  Gnorm:      0.066500  CPU:    0.957
  Cycle:      7 Energy:     -3060.517517  Gnorm:      0.058440  CPU:    1.047
  Cycle:      8 Energy:     -3060.545424  Gnorm:      0.057055  CPU:    1.152
  Cycle:      9 Energy:     -3060.564793  Gnorm:      0.047289  CPU:    1.258
  ** Hessian has required structure
  Cycle:     10 Energy:     -3060.570933  Gnorm:      0.060795  CPU:    1.382
  ** Hessian has required structure
  Cycle:     11 Energy:     -3060.577772  Gnorm:      0.056341  CPU:    1.507
  ** Hessian has required structure
  Cycle:     12 Energy:     -3060.585155  Gnorm:      0.058436  CPU:    1.647
  ** Hessian has wrong structure
  ** Imaginary eigenvectors =   2
  ** Hessian has wrong structure
  ** Imaginary eigenvectors =   2
  Cycle:     13 Energy:     -3060.587230  Gnorm:      0.058499  CPU:    2.155
  ** Hessian has wrong structure
  ** Imaginary eigenvectors =   2
  ** Hessian has wrong structure
  ** Imaginary eigenvectors =   2
  Cycle:     14 Energy:     -3060.595842  Gnorm:      0.058532  CPU:    2.662
  ** Hessian has wrong structure
  ** Imaginary eigenvectors =   2
  ** Hessian has wrong structure
  ** Imaginary eigenvectors =   2
  Cycle:     15 Energy:     -3060.619800  Gnorm:      0.058330  CPU:    3.137
  ** Hessian has wrong structure
  ** Imaginary eigenvectors =   1
  ** Hessian has required structure
  Cycle:     16 Energy:     -3060.819130  Gnorm:      0.047297  CPU:    3.601
  ** Hessian has required structure
  Cycle:     17 Energy:     -3060.957634  Gnorm:      0.038532  CPU:    3.816
  ** Hessian has required structure
  Cycle:     18 Energy:     -3060.991526  Gnorm:      0.028213  CPU:    3.972
  ** Hessian has required structure
  Cycle:     19 Energy:     -3061.017022  Gnorm:      0.026188  CPU:    4.135
  ** Hessian has required structure
  Cycle:     20 Energy:     -3061.026935  Gnorm:      0.027909  CPU:    4.276
  ** Hessian has required structure
  Cycle:     21 Energy:     -3061.036952  Gnorm:      0.021291  CPU:    4.401
  ** Hessian has required structure
  Cycle:     22 Energy:     -3061.048522  Gnorm:      0.037271  CPU:    4.558
  ** Hessian has required structure
  Cycle:     23 Energy:     -3061.067133  Gnorm:      0.028532  CPU:    4.700
  ** Hessian has required structure
  Cycle:     24 Energy:     -3061.077981  Gnorm:      0.034665  CPU:    4.825
  ** Hessian has required structure
  Cycle:     25 Energy:     -3061.097093  Gnorm:      0.029173  CPU:    4.966
  ** Hessian has wrong structure
  ** Imaginary eigenvectors =   1
  ** Hessian has wrong structure
  ** Imaginary eigenvectors =   1
  Cycle:     26 Energy:     -3061.097568  Gnorm:      0.028870  CPU:    5.374
  ** Hessian has required structure
  Cycle:     27 Energy:     -3061.120329  Gnorm:      0.016442  CPU:    5.605
  ** Hessian has required structure
  Cycle:     28 Energy:     -3061.127742  Gnorm:      0.009282  CPU:    5.763
  ** Hessian has required structure
  Cycle:     29 Energy:     -3061.130521  Gnorm:      0.004675  CPU:    5.917
  ** Hessian has required structure
  Cycle:     30 Energy:     -3061.131455  Gnorm:      0.002803  CPU:    6.073
  ** Hessian has required structure
  Cycle:     31 Energy:     -3061.131724  Gnorm:      0.001485  CPU:    6.213
  ** Hessian has required structure
  Cycle:     32 Energy:     -3061.131816  Gnorm:      0.000492  CPU:    6.353
  ** Hessian has required structure
  Cycle:     33 Energy:     -3061.131840  Gnorm:      0.000464  CPU:    6.492
  ** Hessian has required structure
  Cycle:     34 Energy:     -3061.131847  Gnorm:      0.000127  CPU:    6.649
  ** Hessian has required structure
  Cycle:     35 Energy:     -3061.131848  Gnorm:      0.000091  CPU:    6.772
  ** Hessian has required structure


  **** Optimisation achieved ****


  Final energy =   -3061.13184831 eV      
  Final Gnorm  =       0.00006451

  Components of energy : 

--------------------------------------------------------------------------------
  Interatomic potentials     =         812.64050234 eV    
  Three-body potentials      =           0.18879957 eV    
  Monopole - monopole (real) =       -2168.89230403 eV    
  Monopole - monopole (recip)=       -1705.06884618 eV    
  Monopole - monopole (total)=       -3873.96115021 eV    
--------------------------------------------------------------------------------
  Total lattice energy       =       -3061.13184831 eV    
--------------------------------------------------------------------------------
  Total lattice energy       =         -295352.4297 kJ/(mole unit cells)
--------------------------------------------------------------------------------

  Final fractional coordinates of atoms :

--------------------------------------------------------------------------------
   No.  Atomic        x           y          z          Radius
        Label       (Frac)      (Frac)     (Frac)       (Angs) 
--------------------------------------------------------------------------------
     1  Ge    c     0.160190    0.293910    0.273440    0.000000
     2  Ge    c     0.818262    0.296011    0.716134    0.000000
     3  Ge    c     0.834744    0.716197    0.709166    0.000000
     4  Ge    c     0.142664    0.713672    0.282078    0.000000
     5  Si    c     0.039265    0.013399    0.373217    0.000000
     6  Si    c     0.445829    0.039129    0.358062    0.000000
     7  Si    c     0.938787    0.017139    0.622451    0.000000
     8  Si    c     0.531646    0.039749    0.632309    0.000000
     9  Si    c     0.549100    0.039171    0.112548    0.000000
    10  Si    c     0.933959    0.031670    0.119296    0.000000
    11  Si    c     0.428311    0.041105    0.878234    0.000000
    12  Si    c     0.042500    0.033387    0.879163    0.000000
    13  Si    c     0.325547    0.750161    0.275937    0.000000
    14  Si    c     0.651902    0.750478    0.714535    0.000000
    15  Si    c     0.636897    0.346325    0.718612    0.000000
    16  Si    c     0.340942    0.346524    0.271170    0.000000
    17  Si    c     0.643768    0.354155    0.023078    0.000000
    18  Si    c     0.838314    0.720613    0.016069    0.000000
    19  Si    c     0.333566    0.356148    0.966347    0.000000
    20  Si    c     0.138878    0.721281    0.975024    0.000000
    21  Si    c     0.317558    0.752526    0.971575    0.000000
    22  Si    c     0.155612    0.317299    0.966346    0.000000
    23  Si    c     0.659652    0.750585    0.018951    0.000000
    24  Si    c     0.822187    0.315977    0.022970    0.000000
    25  O3    c     0.113425    0.139680    0.362958    0.000000
    26  O2    c     0.380946    0.886848    0.350840    0.000000
    27  O3    c     0.865450    0.147053    0.622559    0.000000
    28  O2    c     0.596050    0.886590    0.639870    0.000000
    29  O3    c     0.902372    0.824459    0.617917    0.000000
    30  O2    c     0.571703    0.230314    0.645284    0.000000
    31  O3    c     0.074373    0.819527    0.373093    0.000000
    32  O2    c     0.406625    0.230279    0.343087    0.000000
    33  O2    c     0.993871    0.052969    0.503116    0.000000
    34  O2    c     0.488374    0.026321    0.495520    0.000000
    35  O2    c     0.979282    0.047272    0.254524    0.000000
    36  O2    c     0.509380    0.012202    0.248797    0.000000
    37  O2    c     0.989169    0.051613    0.752659    0.000000
    38  O2    c     0.468459    0.014622    0.742416    0.000000
    39  O2    c     0.586100    0.234080    0.105512    0.000000
    40  O2    c     0.896142    0.837344    0.106290    0.000000
    41  O2    c     0.391857    0.236518    0.885042    0.000000
    42  O2    c     0.080945    0.838979    0.885225    0.000000
    43  O2    c     0.360154    0.897203    0.886616    0.000000
    44  O2    c     0.107828    0.185847    0.872159    0.000000
    45  O2    c     0.616744    0.894375    0.103783    0.000000
    46  O2    c     0.868808    0.184475    0.118622    0.000000
    47  O2    c     0.488406    0.006890    0.995698    0.000000
    48  O2    c     0.992199    0.071343    0.004452    0.000000
    49  O1    c     0.123143    0.497228    0.301734    0.000000
    50  O2    c     0.357234    0.552171    0.298657    0.000000
    51  O1    c     0.854584    0.500466    0.689033    0.000000
    52  O2    c     0.620891    0.552140    0.691190    0.000000
    53  O3    c     0.257176    0.294710    0.321563    0.000000
    54  O3    c     0.238317    0.762637    0.325785    0.000000
    55  O3    c     0.721023    0.295084    0.669743    0.000000
    56  O3    c     0.739141    0.765162    0.665073    0.000000
    57  O3    c     0.152603    0.243824    0.110896    0.000000
    58  O2    c     0.325145    0.797233    0.123420    0.000000
    59  O3    c     0.826750    0.243248    0.878480    0.000000
    60  O2    c     0.652217    0.796189    0.867164    0.000000
    61  O3    c     0.848357    0.779979    0.869303    0.000000
    62  O2    c     0.633362    0.306066    0.872077    0.000000
    63  O3    c     0.128811    0.778589    0.122137    0.000000
    64  O2    c     0.342991    0.307561    0.117489    0.000000
    65  O2    c     0.623024    0.558376    0.046636    0.000000
    66  O2    c     0.858330    0.513172    0.030171    0.000000
    67  O2    c     0.354292    0.560685    0.943366    0.000000
    68  O2    c     0.119062    0.514031    0.959722    0.000000
    69  O2    c     0.732849    0.319796    0.067484    0.000000
    70  O2    c     0.750216    0.752618    0.061027    0.000000
    71  O2    c     0.244697    0.321746    0.920106    0.000000
    72  O2    c     0.226916    0.754353    0.930073    0.000000
    73  O3    s     0.110093    0.140411    0.356185    0.000000
    74  O2    s     0.381743    0.888108    0.343160    0.000000
    75  O3    s     0.868663    0.146927    0.630589    0.000000
    76  O2    s     0.595357    0.888003    0.647496    0.000000
    77  O3    s     0.900502    0.835039    0.625746    0.000000
    78  O2    s     0.574587    0.222506    0.652010    0.000000
    79  O3    s     0.076437    0.830432    0.365730    0.000000
    80  O2    s     0.403588    0.222430    0.336719    0.000000
    81  O2    s     0.992719    0.044394    0.501996    0.000000
    82  O2    s     0.488461    0.029447    0.495441    0.000000
    83  O2    s     0.980665    0.041732    0.251884    0.000000
    84  O2    s     0.506838    0.018363    0.245209    0.000000
    85  O2    s     0.989851    0.045706    0.753182    0.000000
    86  O2    s     0.470911    0.020536    0.745875    0.000000
    87  O2    s     0.588497    0.226640    0.097178    0.000000
    88  O2    s     0.893955    0.845116    0.098047    0.000000
    89  O2    s     0.389337    0.228987    0.893264    0.000000
    90  O2    s     0.083061    0.846617    0.894074    0.000000
    91  O2    s     0.362762    0.896522    0.895431    0.000000
    92  O2    s     0.106132    0.184038    0.883116    0.000000
    93  O2    s     0.614223    0.893890    0.095004    0.000000
    94  O2    s     0.870637    0.182591    0.108229    0.000000
    95  O2    s     0.488476    0.014373    0.995634    0.000000
    96  O2    s     0.991281    0.062686    0.003345    0.000000
    97  O1    s     0.127701    0.498612    0.297884    0.000000
    98  O2    s     0.352180    0.551144    0.293317    0.000000
    99  O1    s     0.850036    0.501834    0.692850    0.000000
   100  O2    s     0.625850    0.551125    0.696594    0.000000
   101  O3    s     0.257929    0.299903    0.312563    0.000000
   102  O3    s     0.239461    0.757592    0.317419    0.000000
   103  O3    s     0.720260    0.300366    0.678468    0.000000
   104  O3    s     0.737980    0.759902    0.673435    0.000000
   105  O3    s     0.153518    0.255249    0.109574    0.000000
   106  O2    s     0.324367    0.787420    0.123114    0.000000
   107  O3    s     0.825614    0.254748    0.879866    0.000000
   108  O2    s     0.652988    0.786416    0.867462    0.000000
   109  O3    s     0.846299    0.769090    0.871497    0.000000
   110  O2    s     0.634842    0.315435    0.872236    0.000000
   111  O3    s     0.130889    0.767823    0.119922    0.000000
   112  O2    s     0.341769    0.316864    0.117332    0.000000
   113  O2    s     0.629028    0.556760    0.041243    0.000000
   114  O2    s     0.852553    0.514485    0.027977    0.000000
   115  O2    s     0.348288    0.558992    0.948744    0.000000
   116  O2    s     0.124872    0.515404    0.961984    0.000000
   117  O2    s     0.732789    0.323208    0.057951    0.000000
   118  O2    s     0.749784    0.748864    0.051636    0.000000
   119  O2    s     0.244749    0.325073    0.929957    0.000000
   120  O2    s     0.227365    0.750504    0.939409    0.000000
--------------------------------------------------------------------------------

  Final Cartesian lattice vectors (Angstroms) :

       17.177844   -0.003678   -0.188796
       -0.001531    7.609823    0.005667
       -0.116521    0.007747   10.319888


  Final cell parameters and derivatives :

--------------------------------------------------------------------------------
       a           17.178881 Angstrom     dE/de1(xx)     0.007344 eV/strain
       b            7.609825 Angstrom     dE/de2(yy)     0.006702 eV/strain
       c           10.320549 Angstrom     dE/de3(zz)     0.003767 eV/strain
       alpha       89.914196 Degrees      dE/de4(yz)     0.000025 eV/strain
       beta        91.276598 Degrees      dE/de5(xz)    -0.000300 eV/strain
       gamma       90.024263 Degrees      dE/de6(xy)    -0.000116 eV/strain
--------------------------------------------------------------------------------

  Primitive cell volume =          1348.851250 Angs**3

  Density of cell =      1.994671 g/cm**3

  Non-primitive cell volume =          1348.851250 Angs**3


  Final internal derivatives :

--------------------------------------------------------------------------------
   No.  Atomic          a             b             c           Radius
        Label          (eV)          (eV)          (eV)        (eV/Angs)
--------------------------------------------------------------------------------
      1 Ge    c       0.000000      0.000000      0.000000      0.000000
      2 Ge    c       0.004497     -0.000209      0.001049      0.000000
      3 Ge    c       0.000440      0.000728      0.000863      0.000000
      4 Ge    c      -0.001076      0.001259     -0.001278      0.000000
      5 Si    c       0.000091      0.000270      0.000248      0.000000
      6 Si    c       0.000264      0.000305      0.000234      0.000000
      7 Si    c       0.000223      0.000086     -0.000152      0.000000
      8 Si    c      -0.000333      0.000150     -0.000100      0.000000
      9 Si    c       0.000106      0.000009      0.000181      0.000000
     10 Si    c      -0.000344      0.000054      0.000045      0.000000
     11 Si    c      -0.000293     -0.000147     -0.000229      0.000000
     12 Si    c       0.000272      0.000142     -0.000106      0.000000
     13 Si    c       0.003702      0.000591     -0.002018      0.000000
     14 Si    c      -0.002007      0.000083      0.001100      0.000000
     15 Si    c      -0.004126      0.000169      0.001305      0.000000
     16 Si    c       0.006982     -0.000040     -0.002106      0.000000
     17 Si    c       0.000438     -0.000003     -0.000188      0.000000
     18 Si    c      -0.000245     -0.000017     -0.000045      0.000000
     19 Si    c      -0.000598      0.000057      0.000177      0.000000
     20 Si    c       0.000540     -0.000168      0.000017      0.000000
     21 Si    c      -0.000489      0.000007     -0.000087      0.000000
     22 Si    c       0.000492      0.000260      0.000010      0.000000
     23 Si    c       0.000389      0.000027     -0.000005      0.000000
     24 Si    c      -0.000354      0.000085     -0.000034      0.000000
     25 O3    c       0.000049     -0.000419      0.000734      0.000000
     26 O2    c       0.000968      0.000430      0.000954      0.000000
     27 O3    c      -0.000000     -0.000092     -0.000330      0.000000
     28 O2    c      -0.000812      0.000336     -0.000561      0.000000
     29 O3    c       0.001043      0.000298     -0.000487      0.000000
     30 O2    c      -0.000360     -0.000054     -0.000231      0.000000
     31 O3    c      -0.000988      0.000098      0.000580      0.000000
     32 O2    c       0.000220     -0.000045      0.000235      0.000000
     33 O2    c      -0.000127      0.000042      0.000139      0.000000
     34 O2    c      -0.000037     -0.000013     -0.000025      0.000000
     35 O2    c      -0.000106      0.000067     -0.000087      0.000000
     36 O2    c       0.000031      0.000032     -0.000121      0.000000
     37 O2    c      -0.000017      0.000000     -0.000054      0.000000
     38 O2    c      -0.000001      0.000038     -0.000006      0.000000
     39 O2    c       0.000199      0.000171     -0.000084      0.000000
     40 O2    c      -0.000076     -0.000072     -0.000059      0.000000
     41 O2    c      -0.000364      0.000365      0.000131      0.000000
     42 O2    c       0.000182     -0.000177      0.000098      0.000000
     43 O2    c      -0.000023      0.000039     -0.000022      0.000000
     44 O2    c       0.000110     -0.000018      0.000112      0.000000
     45 O2    c       0.000071      0.000025      0.000034      0.000000
     46 O2    c      -0.000033     -0.000038     -0.000111      0.000000
     47 O2    c       0.000106     -0.000089      0.000067      0.000000
     48 O2    c       0.000226      0.000042     -0.000123      0.000000
     49 O1    c      -0.004693      0.000379      0.002661      0.000000
     50 O2    c       0.002237     -0.000432      0.002331      0.000000
     51 O1    c       0.002083     -0.000185     -0.001717      0.000000
     52 O2    c      -0.000900      0.000029     -0.001395      0.000000
     53 O3    c       0.004901     -0.003579      0.004471      0.000000
     54 O3    c      -0.007990      0.001507      0.002533      0.000000
     55 O3    c      -0.002778     -0.002504     -0.002445      0.000000
     56 O3    c       0.004450      0.000947     -0.001288      0.000000
     57 O3    c       0.000292     -0.000111     -0.000592      0.000000
     58 O2    c      -0.000375      0.000157     -0.000021      0.000000
     59 O3    c      -0.000189     -0.000031      0.000290      0.000000
     60 O2    c       0.000195      0.000078      0.000020      0.000000
     61 O3    c      -0.000060      0.000030      0.000279      0.000000
     62 O2    c       0.000280     -0.000093      0.000333      0.000000
     63 O3    c       0.000128      0.000072     -0.000502      0.000000
     64 O2    c      -0.000591     -0.000209     -0.000515      0.000000
     65 O2    c      -0.000171     -0.000286      0.000097      0.000000
     66 O2    c      -0.000227     -0.000031     -0.000087      0.000000
     67 O2    c       0.000442     -0.000405     -0.000194      0.000000
     68 O2    c       0.000242      0.000006      0.000134      0.000000
     69 O2    c       0.000043     -0.000028     -0.000100      0.000000
     70 O2    c       0.000477     -0.000043     -0.000003      0.000000
     71 O2    c      -0.000113     -0.000031      0.000066      0.000000
     72 O2    c      -0.000891     -0.000051     -0.000037      0.000000
     73 O3    s      -0.001544     -0.000732     -0.000167      0.000000
     74 O2    s       0.001424      0.000836     -0.000403      0.000000
     75 O3    s       0.001059     -0.000474      0.000091      0.000000
     76 O2    s      -0.000660      0.000390      0.000276      0.000000
     77 O3    s      -0.000278      0.000049      0.000212      0.000000
     78 O2    s      -0.000823     -0.000498      0.000074      0.000000
     79 O3    s       0.000010      0.000124     -0.000179      0.000000
     80 O2    s       0.001456     -0.000752     -0.000110      0.000000
     81 O2    s      -0.000129     -0.000038      0.000006      0.000000
     82 O2    s       0.000170     -0.000032      0.000014      0.000000
     83 O2    s      -0.000278     -0.000047     -0.000011      0.000000
     84 O2    s       0.000091     -0.000097      0.000005      0.000000
     85 O2    s      -0.000133     -0.000021      0.000030      0.000000
     86 O2    s       0.000108     -0.000102     -0.000025      0.000000
     87 O2    s      -0.000047      0.000007      0.000168      0.000000
     88 O2    s      -0.000066     -0.000050      0.000031      0.000000
     89 O2    s       0.000148     -0.000059     -0.000270      0.000000
     90 O2    s      -0.000095      0.000006     -0.000049      0.000000
     91 O2    s       0.000178      0.000065     -0.000203      0.000000
     92 O2    s      -0.000293     -0.000021     -0.000008      0.000000
     93 O2    s      -0.000144     -0.000023      0.000141      0.000000
     94 O2    s       0.000117      0.000059     -0.000008      0.000000
     95 O2    s       0.000148     -0.000035      0.000029      0.000000
     96 O2    s      -0.000104      0.000030     -0.000006      0.000000
     97 O1    s      -0.000235      0.001078     -0.000207      0.000000
     98 O2    s       0.001893      0.000234      0.000733      0.000000
     99 O1    s       0.000122      0.000829      0.000264      0.000000
    100 O2    s      -0.000755      0.000255     -0.000356      0.000000
    101 O3    s      -0.002195     -0.000835      0.000433      0.000000
    102 O3    s       0.001656      0.000500      0.000718      0.000000
    103 O3    s       0.001557     -0.000392     -0.000252      0.000000
    104 O3    s      -0.001090      0.000182     -0.000350      0.000000
    105 O3    s      -0.002509     -0.000941     -0.001426      0.000000
    106 O2    s       0.002271      0.000923     -0.001314      0.000000
    107 O3    s       0.001668     -0.000425      0.000833      0.000000
    108 O2    s      -0.001265      0.000419      0.000665      0.000000
    109 O3    s       0.000388      0.000143      0.000200      0.000000
    110 O2    s      -0.001735     -0.000163      0.001036      0.000000
    111 O3    s      -0.000984      0.000414     -0.000260      0.000000
    112 O2    s       0.002741     -0.000441     -0.001578      0.000000
    113 O2    s      -0.000755      0.000032      0.000230      0.000000
    114 O2    s       0.000601      0.000093      0.000135      0.000000
    115 O2    s       0.001302      0.000003     -0.000429      0.000000
    116 O2    s      -0.001067      0.000161     -0.000275      0.000000
    117 O2    s       0.000030     -0.000060      0.000464      0.000000
    118 O2    s       0.000299      0.000141      0.000285      0.000000
    119 O2    s       0.000040     -0.000209     -0.000776      0.000000
    120 O2    s      -0.000528      0.000304     -0.000580      0.000000
--------------------------------------------------------------------------------
  Maximum abs         0.007990      0.003579      0.004471      0.000000
--------------------------------------------------------------------------------


  Born effective charge tensors : 

-------------------------------------------------------------------------------
  Atom             x           y             z
-------------------------------------------------------------------------------
    1 Ge    x       3.9485      0.3783     -0.1399
            y       0.1028      4.2417     -0.1893
            z      -0.1827     -0.0466      3.4659
-------------------------------------------------------------------------------
    2 Ge    x       3.9632     -0.3663     -0.1599
            y      -0.1094      4.2259      0.2053
            z      -0.1774      0.0318      3.4633
-------------------------------------------------------------------------------
    3 Ge    x       4.0114      0.1969     -0.1294
            y       0.2945      4.1881     -0.2225
            z      -0.2212      0.0165      3.4599
-------------------------------------------------------------------------------
    4 Ge    x       4.0124     -0.1936     -0.1297
            y      -0.3008      4.1879      0.2258
            z      -0.2235     -0.0158      3.4604
-------------------------------------------------------------------------------
    5 Si    x       3.7978     -0.2117     -0.1977
            y       0.2164      3.5451     -0.0410
            z      -0.4870      0.1070      3.8782
-------------------------------------------------------------------------------
    6 Si    x       3.3773     -0.1141      0.2019
            y       0.1494      3.2139     -0.0392
            z       0.3603     -0.0269      3.8606
-------------------------------------------------------------------------------
    7 Si    x       3.7736      0.1933     -0.0851
            y      -0.2127      3.5542      0.0353
            z      -0.5954     -0.0839      3.8411
-------------------------------------------------------------------------------
    8 Si    x       3.3827      0.1100      0.1934
            y      -0.1436      3.2143      0.0379
            z       0.3679      0.0363      3.8584
-------------------------------------------------------------------------------
    9 Si    x       3.4886      0.1761     -0.2193
            y      -0.1604      3.2479      0.0020
            z      -0.4635     -0.0795      3.1244
-------------------------------------------------------------------------------
   10 Si    x       3.5036      0.1430      0.1596
            y      -0.1537      3.2310      0.0191
            z       0.4199      0.0283      3.0984
-------------------------------------------------------------------------------
   11 Si    x       3.4879     -0.1829     -0.2164
            y       0.1618      3.2491     -0.0012
            z      -0.4682      0.0779      3.1248
-------------------------------------------------------------------------------
   12 Si    x       3.5073     -0.1452      0.0890
            y       0.1532      3.2281     -0.0283
            z       0.4906     -0.0363      3.0490
-------------------------------------------------------------------------------
   13 Si    x       3.5455      0.2815     -0.0276
            y       0.1375      3.5208      0.1784
            z       0.0575      0.0891      2.9051
-------------------------------------------------------------------------------
   14 Si    x       3.5469     -0.2726     -0.0255
            y      -0.1395      3.5210     -0.1764
            z       0.0594     -0.0893      2.9048
-------------------------------------------------------------------------------
   15 Si    x       3.4989      0.1224     -0.0625
            y       0.2120      3.5118      0.1969
            z       0.0679      0.0964      2.9066
-------------------------------------------------------------------------------
   16 Si    x       3.4932     -0.1230     -0.0690
            y      -0.2132      3.5116     -0.1947
            z       0.0746     -0.0973      2.9076
-------------------------------------------------------------------------------
   17 Si    x       3.2539      0.2837     -0.0892
            y       0.2572      3.4258     -0.1867
            z      -0.1560     -0.0594      2.7083
-------------------------------------------------------------------------------
   18 Si    x       3.3642      0.3138      0.0618
            y       0.2866      3.5282      0.1256
            z       0.1337     -0.0630      2.9833
-------------------------------------------------------------------------------
   19 Si    x       3.2537     -0.2845     -0.0835
            y      -0.2618      3.4288      0.1883
            z      -0.1630      0.0607      2.7077
-------------------------------------------------------------------------------
   20 Si    x       3.3662     -0.3178      0.0582
            y      -0.2900      3.5245     -0.1188
            z       0.1272      0.0643      2.9753
-------------------------------------------------------------------------------
   21 Si    x       3.2088      0.3643     -0.1273
            y       0.0861      3.4589     -0.1616
            z      -0.1321     -0.0780      2.7229
-------------------------------------------------------------------------------
   22 Si    x       3.3413      0.3819      0.1245
            y       0.1367      3.5643      0.0948
            z       0.1469     -0.0961      2.9391
-------------------------------------------------------------------------------
   23 Si    x       3.2088     -0.3616     -0.1259
            y      -0.0870      3.4581      0.1653
            z      -0.1329      0.0792      2.7230
-------------------------------------------------------------------------------
   24 Si    x       3.3325     -0.3780      0.1264
            y      -0.1341      3.5682     -0.1029
            z       0.1360      0.0882      2.9550
-------------------------------------------------------------------------------
   25 O3    x      -2.2739     -0.9085      0.4318
            y      -0.9728     -2.1735      0.4407
            z       0.4630      0.3874     -1.5633
-------------------------------------------------------------------------------
   26 O2    x      -1.7646     -0.7303     -0.3033
            y      -0.7570     -1.9504     -0.3100
            z      -0.3529     -0.3240     -1.3351
-------------------------------------------------------------------------------
   27 O3    x      -2.2628      0.9095      0.3733
            y       0.9753     -2.1635     -0.4072
            z       0.4273     -0.3496     -1.5609
-------------------------------------------------------------------------------
   28 O2    x      -1.7648      0.7313     -0.3023
            y       0.7587     -1.9521      0.3089
            z      -0.3535      0.3211     -1.3334
-------------------------------------------------------------------------------
   29 O3    x      -1.9423     -0.8585      0.3561
            y      -0.8435     -2.3899      0.3460
            z       0.4544      0.3219     -1.5619
-------------------------------------------------------------------------------
   30 O2    x      -1.6417     -0.6959     -0.3048
            y      -0.6432     -2.0074     -0.3291
            z      -0.3373     -0.3258     -1.3423
-------------------------------------------------------------------------------
   31 O3    x      -1.9400      0.8483      0.3861
            y       0.8335     -2.3966     -0.3709
            z       0.4503     -0.3414     -1.5663
-------------------------------------------------------------------------------
   32 O2    x      -1.6403      0.6968     -0.3045
            y       0.6408     -2.0111      0.3315
            z      -0.3359      0.3265     -1.3390
-------------------------------------------------------------------------------
   33 O2    x      -1.5971      0.0046      0.7248
            y      -0.0021     -1.0954     -0.0086
            z       0.9550     -0.0192     -2.6201
-------------------------------------------------------------------------------
   34 O2    x      -1.5086     -0.0011     -0.8131
            y      -0.0019     -1.0870     -0.0021
            z      -0.9307     -0.0051     -2.8932
-------------------------------------------------------------------------------
   35 O2    x      -1.6883      0.0201     -0.7008
            y       0.0294     -1.1192      0.0400
            z      -0.6881      0.0168     -2.2664
-------------------------------------------------------------------------------
   36 O2    x      -1.7096     -0.0071      0.7372
            y       0.0191     -1.1156      0.0043
            z       0.7293      0.0356     -2.2302
-------------------------------------------------------------------------------
   37 O2    x      -1.6875     -0.0070     -0.7045
            y      -0.0154     -1.1317     -0.0366
            z      -0.6785     -0.0165     -2.2554
-------------------------------------------------------------------------------
   38 O2    x      -1.7107      0.0128      0.7403
            y      -0.0156     -1.1145     -0.0098
            z       0.7328     -0.0414     -2.2340
-------------------------------------------------------------------------------
   39 O2    x      -1.6594     -0.7035      0.3289
            y      -0.6076     -2.0328      0.3442
            z       0.3600      0.3357     -1.2284
-------------------------------------------------------------------------------
   40 O2    x      -1.6877     -0.7114     -0.3340
            y      -0.5967     -2.0178     -0.3569
            z      -0.3524     -0.3350     -1.2371
-------------------------------------------------------------------------------
   41 O2    x      -1.6615      0.7051      0.3255
            y       0.6090     -2.0368     -0.3408
            z       0.3628     -0.3355     -1.2249
-------------------------------------------------------------------------------
   42 O2    x      -1.6919      0.7162     -0.3071
            y       0.6020     -2.0180      0.3297
            z      -0.3467      0.3123     -1.2202
-------------------------------------------------------------------------------
   43 O2    x      -1.7647     -0.7184      0.3337
            y      -0.6957     -1.9353      0.3663
            z       0.3507      0.3390     -1.2396
-------------------------------------------------------------------------------
   44 O2    x      -1.7910     -0.7307     -0.2666
            y      -0.6923     -1.9073     -0.2854
            z      -0.3212     -0.2801     -1.2275
-------------------------------------------------------------------------------
   45 O2    x      -1.7631      0.7196      0.3370
            y       0.6966     -1.9366     -0.3683
            z       0.3531     -0.3408     -1.2406
-------------------------------------------------------------------------------
   46 O2    x      -1.7815      0.7293     -0.3084
            y       0.6853     -1.9118      0.3198
            z      -0.3290      0.3048     -1.2439
-------------------------------------------------------------------------------
   47 O2    x      -1.8621      0.0035     -0.6425
            y       0.0006     -1.1654      0.0030
            z      -0.3820      0.0043     -1.6952
-------------------------------------------------------------------------------
   48 O2    x      -1.8251     -0.0090      0.6647
            y      -0.0087     -1.1763      0.0008
            z       0.3845      0.0002     -1.7409
-------------------------------------------------------------------------------
   49 O1    x      -1.4456      0.1111      0.0907
            y       0.1791     -3.3556     -0.0576
            z       0.1192     -0.0389     -1.2724
-------------------------------------------------------------------------------
   50 O2    x      -1.1554      0.0657     -0.0481
            y       0.1315     -2.5640     -0.0285
            z      -0.0724     -0.0215     -1.0918
-------------------------------------------------------------------------------
   51 O1    x      -1.4419     -0.1021      0.0912
            y      -0.1684     -3.3590      0.0439
            z       0.1176      0.0315     -1.2698
-------------------------------------------------------------------------------
   52 O2    x      -1.1538     -0.0633     -0.0490
            y      -0.1278     -2.5677      0.0223
            z      -0.0716      0.0182     -1.0924
-------------------------------------------------------------------------------
   53 O3    x      -2.9638     -0.2635      0.1114
            y      -0.2082     -1.4016      0.1071
            z       0.1264      0.0763     -1.2647
-------------------------------------------------------------------------------
   54 O3    x      -3.0330     -0.1105      0.1475
            y      -0.0055     -1.3575     -0.0877
            z       0.1512     -0.0421     -1.2686
-------------------------------------------------------------------------------
   55 O3    x      -2.9786      0.2555      0.1123
            y       0.2056     -1.3998     -0.1073
            z       0.1220     -0.0732     -1.2576
-------------------------------------------------------------------------------
   56 O3    x      -3.0328      0.1002      0.1425
            y      -0.0018     -1.3585      0.0889
            z       0.1502      0.0437     -1.2678
-------------------------------------------------------------------------------
   57 O3    x      -1.3326     -0.1529     -0.0289
            y      -0.0856     -1.4804      0.1969
            z      -0.0410      0.1479     -2.5503
-------------------------------------------------------------------------------
   58 O2    x      -1.1717     -0.1132     -0.0548
            y      -0.0574     -1.2948     -0.0097
            z      -0.0474      0.0086     -2.0879
-------------------------------------------------------------------------------
   59 O3    x      -1.3325      0.1549     -0.0170
            y       0.0909     -1.4809     -0.1918
            z      -0.0277     -0.1428     -2.5524
-------------------------------------------------------------------------------
   60 O2    x      -1.1714      0.1125     -0.0522
            y       0.0581     -1.2948      0.0126
            z      -0.0465     -0.0050     -2.0885
-------------------------------------------------------------------------------
   61 O3    x      -1.3603     -0.1606      0.0220
            y      -0.1430     -1.4437      0.1219
            z      -0.0057      0.0640     -2.5880
-------------------------------------------------------------------------------
   62 O2    x      -1.1874     -0.1106     -0.0375
            y      -0.1048     -1.2843     -0.0199
            z      -0.0356     -0.0095     -2.0924
-------------------------------------------------------------------------------
   63 O3    x      -1.3608      0.1615      0.0181
            y       0.1443     -1.4404     -0.1144
            z      -0.0081     -0.0520     -2.5886
-------------------------------------------------------------------------------
   64 O2    x      -1.1868      0.1079     -0.0381
            y       0.1031     -1.2842      0.0218
            z      -0.0399      0.0116     -2.0948
-------------------------------------------------------------------------------
   65 O2    x      -1.2326     -0.0569      0.0714
            y      -0.1290     -2.5058      0.0209
            z       0.1001      0.0072     -1.0175
-------------------------------------------------------------------------------
   66 O2    x      -1.2786     -0.0643     -0.0404
            y      -0.1337     -2.5672      0.0277
            z      -0.0765      0.0228     -0.9891
-------------------------------------------------------------------------------
   67 O2    x      -1.2324      0.0567      0.0711
            y       0.1302     -2.5064     -0.0286
            z       0.1015     -0.0116     -1.0179
-------------------------------------------------------------------------------
   68 O2    x      -1.2793      0.0657     -0.0391
            y       0.1389     -2.5589     -0.0384
            z      -0.0770     -0.0301     -0.9872
-------------------------------------------------------------------------------
   69 O2    x      -2.4284      0.1089     -0.0169
            y       0.0775     -1.2487      0.0639
            z      -0.0214      0.0238     -1.0472
-------------------------------------------------------------------------------
   70 O2    x      -2.4333      0.0985     -0.0080
            y       0.0385     -1.2501     -0.0609
            z      -0.0275     -0.0249     -1.0428
-------------------------------------------------------------------------------
   71 O2    x      -2.4210     -0.1094     -0.0180
            y      -0.0775     -1.2476     -0.0641
            z      -0.0182     -0.0232     -1.0526
-------------------------------------------------------------------------------
   72 O2    x      -2.4340     -0.1013     -0.0046
            y      -0.0406     -1.2514      0.0594
            z      -0.0255      0.0243     -1.0410
-------------------------------------------------------------------------------




  Elastic Constant Matrix: (Units=GPa)

-------------------------------------------------------------------------------
  Indices      1         2         3         4         5         6    
-------------------------------------------------------------------------------
       1     44.2307   17.9003   20.8299    0.5566    1.9169    0.1590
       2     17.9003   63.2455   15.5934   -0.4270    5.5993    0.9379
       3     20.8299   15.5934   48.9008    3.1268   -0.6595   -1.6236
       4      0.5566   -0.4270    3.1268    9.9918    0.0993    0.7313
       5      1.9169    5.5993   -0.6595    0.0993   19.8076    0.0158
       6      0.1590    0.9379   -1.6236    0.7313    0.0158   22.2319
-------------------------------------------------------------------------------


  Elastic Compliance Matrix: (Units=1/GPa)

-------------------------------------------------------------------------------
  Indices      1         2         3         4         5         6    
-------------------------------------------------------------------------------
       1    0.030232 -0.005607 -0.011249  0.001676 -0.001723 -0.000855
       2   -0.005607  0.018822 -0.003874  0.002460 -0.004919 -0.001114
       3   -0.011249 -0.003874  0.027128 -0.008242  0.003126  0.002494
       4    0.001676  0.002460 -0.008242  0.102989 -0.001645 -0.004104
       5   -0.001723 -0.004919  0.003126 -0.001645  0.052155  0.000465
       6   -0.000855 -0.001114  0.002494 -0.004104  0.000465  0.045350
-------------------------------------------------------------------------------

  Mechanical properties :

-------------------------------------------------------------------------------
  Convention :                    Reuss         Voigt         Hill
-------------------------------------------------------------------------------
  Bulk  Modulus (GPa)     =      28.79914      29.44714      29.12314
  Shear Modulus (GPa)     =      15.16485      17.20984      16.18735
-------------------------------------------------------------------------------
  Velocity S-wave (km/s)  =       2.75730       2.93733       2.84874
  Velocity P-wave (km/s)  =       4.95731       5.12511       5.04191
-------------------------------------------------------------------------------
  Compressibility (1/GPa) =    0.03472327
-------------------------------------------------------------------------------
  Stress axis :                     x             y             z
-------------------------------------------------------------------------------
  Youngs Moduli (GPa)     =      33.07784      53.12922      36.86174
-------------------------------------------------------------------------------
  Poissons Ratio (x)      =                     0.29787       0.41464
  Poissons Ratio (y)      =       0.18545                     0.14282
  Poissons Ratio (z)      =       0.37208       0.20584
-------------------------------------------------------------------------------


  Piezoelectric Strain Matrix: (Units=C/m**2)

-------------------------------------------------------------------------------
  Indices      1         2         3         4         5         6    
-------------------------------------------------------------------------------
       x    -0.10579   0.04428  -0.39727   0.14840  -0.15150   0.51427
       y     1.00874   0.92090   0.08693   0.11077   0.39905  -0.16293
       z     0.10002  -0.62105   1.94913  -0.15378   0.40885  -0.31118
-------------------------------------------------------------------------------


  Piezoelectric Stress Matrix: (Units=10**-11 C/N)

-------------------------------------------------------------------------------
  Indices      1         2         3         4         5         6    
-------------------------------------------------------------------------------
       x     0.10921   0.35028  -1.01729   1.66279  -0.91836   2.16933
       y     2.39923   0.98322  -1.26281   1.46601   1.45586  -0.93299
       z    -1.61154  -2.18443   5.59277  -3.26578   3.04079  -0.78230
-------------------------------------------------------------------------------


  Static dielectric constant tensor : 

-------------------------------------------------------------------------------
              x         y         z
-------------------------------------------------------------------------------
       x     4.16694  -0.00117  -0.17365
       y    -0.00117   4.31698  -0.04931
       z    -0.17365  -0.04931   3.38840
--------------------------------------------------------------------------------

  High frequency dielectric constant tensor : 

-------------------------------------------------------------------------------
              x         y         z
-------------------------------------------------------------------------------
       x     1.66944  -0.00008  -0.00076
       y    -0.00008   1.67349   0.00009
       z    -0.00076   0.00009   1.61141
-------------------------------------------------------------------------------

  Static refractive indices : 

-------------------------------------------------------------------------------
    1 =    1.83003      2 =    2.05017      3 =    2.07849
-------------------------------------------------------------------------------

  High frequency refractive indices : 

-------------------------------------------------------------------------------
    1 =    1.26941      2 =    1.29207      3 =    1.29363
-------------------------------------------------------------------------------


  Time to end of optimisation =       7.0558 seconds


  Peak dynamic memory used =       5.01 MB 


  Timing analysis for GULP :

--------------------------------------------------------------------------------
  Task / Subroutine                                          Time (Seconds)
--------------------------------------------------------------------------------
  Calculation of reciprocal space energy and derivatives          0.4694
  Calculation of real space energy and derivatives                4.4723
  Calculation of three-body energy and derivatives                0.3905
  Calculation and manipulation of Hessian matrix                  2.2715
  Calculation of matrix inversion                                 0.0189
--------------------------------------------------------------------------------
  Total CPU time                                                  7.0558
--------------------------------------------------------------------------------


  Dump file written as c01216.vasp.grs
  CIF file written as c01216.vasp.cif


  Job Finished at 15:12.20 31st October    2025                               

