|===============================================================================
|
|  DFTB+ release 24.1
|
|  Copyright (C) 2006 - 2024  DFTB+ developers group
|
|===============================================================================
|
|  When publishing results obtained with DFTB+, please cite the following
|  reference:
|
|  * DFTB+, a software package for efficient approximate density functional
|    theory based atomistic simulations, J. Chem. Phys. 152, 124101 (2020).
|    [doi: 10.1063/1.5143190]
|
|  You should also cite additional publications crediting the parametrization
|  data you use. Please consult the documentation of the SK-files for the
|  references.
|
|===============================================================================

Reading input file 'dftb_in.hsd'
Parser version: 14

--------------------------------------------------------------------------------
Reading SK-files:
./SKFiles/Si-Si.skf
./SKFiles/Si-Ge.skf
./SKFiles/Si-O.skf
./SKFiles/Ge-Ge.skf
./SKFiles/Ge-O.skf
./SKFiles/O-O.skf
Done.


Processed input in HSD format written to 'dftb_pin.hsd'

Starting initialization...
--------------------------------------------------------------------------------
WARNING!
-> Dipole printed for extended system : value printed is not well defined
MPI processes:               1
OpenMP threads:              8
BLACS orbital grid size:     1 x 1
BLACS atom grid size:        1 x 1
Chosen random seed:          159410450
Current stacksize:           unlimited
Mode:                        Static calculation
Self consistent charges:     Yes
SCC-tolerance:                 0.100000E-07
Max. scc iterations:                    500
Shell resolved Hubbard:      No
Spin polarisation:           No
Nr. of up electrons:           192.000000
Nr. of down electrons:         192.000000
Periodic boundaries:         Yes
Electronic solver:           Relatively robust
Mixer:                       Broyden mixer
Mixing parameter:                  0.200000
Maximal SCC-cycles:                     500
Nr. of chrg. vec. in memory:            500
Electronic temperature:              0.100000E-07 H      0.272114E-06 eV
Initial charges:             Set automatically (system chrg:   0.000E+00)
Included shells:            Si:  s, p, d
                            Ge:  s, p, d
                             O:  s, p
K-points and weights:           1:  0.500000  0.500000  0.500000     1.000000

K-points in absolute space:     1:  0.025319  0.017606  0.037774

Extra options:
                             Mulliken analysis
Force type                   original

--------------------------------------------------------------------------------

***  Geometry step: 0

 iSCC Total electronic   Diff electronic      SCC error    
    1    0.00000000E+00    0.00000000E+00    0.14248891E+01
    2   -0.19732534E+03   -0.19732534E+03    0.96507189E+00
    3   -0.19766802E+03   -0.34267959E+00    0.39497237E-01
    4   -0.19795681E+03   -0.28878554E+00    0.22723001E-01
    5   -0.19795834E+03   -0.15273667E-02    0.35846443E-02
    6   -0.19795844E+03   -0.10589311E-03    0.12637390E-02
    7   -0.19795844E+03   -0.23178580E-05    0.28458300E-03
    8   -0.19795844E+03   -0.54852904E-06    0.36904742E-04
    9   -0.19795844E+03   -0.32681356E-07    0.15870018E-04
   10   -0.19795844E+03   -0.13724843E-09    0.24839134E-05
   11   -0.19795844E+03   -0.59856120E-10    0.13585891E-06
   12   -0.19795844E+03   -0.26432190E-11    0.74007104E-07
   13   -0.19795844E+03   -0.28421709E-13    0.16979434E-07
   14   -0.19795844E+03    0.56843419E-13    0.32420671E-08

Total Energy:                     -190.4242679852 H        -5181.7080 eV
Extrapolated to 0K:               -190.4242679852 H        -5181.7080 eV
Total Mermin free energy:         -190.4242679852 H        -5181.7080 eV
Force related energy:             -190.4242679852 H        -5181.7080 eV

Volume:                              0.913789E+04 au^3   0.135410E+04 A^3
Pressure:                            0.249573E-02 au     0.734269E+11 Pa
>> Charges saved for restart in charges.bin

total energy  -1.9042427E+02 H       energy change -1.9042427E+02 H
gradient norm  2.3472089E+00 H/a0    max. gradient  1.3918625E+00 H/a0
step length    0.0000000E+00 a0      max. step      0.0000000E+00 a0

--------------------------------------------------------------------------------

***  Geometry step: 1

 iSCC Total electronic   Diff electronic      SCC error    
    1   -0.19795844E+03    0.00000000E+00    0.13888649E+00
    2   -0.19726733E+03    0.69111088E+00    0.61926320E-01
    3   -0.19728362E+03   -0.16284568E-01    0.20299043E-01
    4   -0.19728648E+03   -0.28606155E-02    0.21676558E-02
    5   -0.19728656E+03   -0.76995642E-04    0.85863820E-03
    6   -0.19728656E+03   -0.41791908E-05    0.23722345E-03
    7   -0.19728656E+03   -0.14496072E-06    0.26918423E-04
    8   -0.19728656E+03   -0.19725661E-07    0.65240504E-05
    9   -0.19728656E+03   -0.95957375E-09    0.20445958E-05
   10   -0.19728656E+03   -0.16171953E-10    0.61610865E-06
   11   -0.19728656E+03   -0.65369932E-12    0.11633003E-06
   12   -0.19728656E+03   -0.28421709E-12    0.26066259E-07
   13   -0.19728656E+03    0.85265128E-13    0.26119684E-08

Total Energy:                     -191.1737792143 H        -5202.1032 eV
Extrapolated to 0K:               -191.1737792143 H        -5202.1032 eV
Total Mermin free energy:         -191.1737792143 H        -5202.1032 eV
Force related energy:             -191.1737792143 H        -5202.1032 eV

Volume:                              0.972140E+04 au^3   0.144056E+04 A^3
Pressure:                            0.175700E-02 au     0.516926E+11 Pa
>> Charges saved for restart in charges.bin

total energy  -1.9117378E+02 H       energy change -7.4951123E-01 H
gradient norm  1.5012741E+00 H/a0    max. gradient  2.7248984E-01 H/a0
step length    8.0941787E-01 a0      max. step      4.7997364E-01 a0

--------------------------------------------------------------------------------

***  Geometry step: 2

 iSCC Total electronic   Diff electronic      SCC error    
    1   -0.19728656E+03    0.00000000E+00    0.48729822E-01
    2   -0.19693306E+03    0.35349842E+00    0.25421221E-01
    3   -0.19693653E+03   -0.34655931E-02    0.68470822E-02
    4   -0.19693722E+03   -0.69111420E-03    0.85882110E-03
    5   -0.19693724E+03   -0.18978059E-04    0.31461376E-03
    6   -0.19693724E+03   -0.11520297E-05    0.13061354E-03
    7   -0.19693724E+03   -0.18303211E-07    0.31942096E-04
    8   -0.19693724E+03   -0.25697773E-08    0.62687890E-05
    9   -0.19693724E+03   -0.22981794E-09    0.11767813E-05
   10   -0.19693724E+03   -0.46327386E-11    0.28473254E-06
   11   -0.19693724E+03   -0.25579538E-12    0.62758885E-07
   12   -0.19693724E+03   -0.28421709E-13    0.10959485E-07
   13   -0.19693724E+03    0.56843419E-13    0.12784853E-08

Total Energy:                     -191.9804807281 H        -5224.0547 eV
Extrapolated to 0K:               -191.9804807281 H        -5224.0547 eV
Total Mermin free energy:         -191.9804807281 H        -5224.0547 eV
Force related energy:             -191.9804807281 H        -5224.0547 eV

Volume:                              0.988444E+04 au^3   0.146472E+04 A^3
Pressure:                            0.128336E-02 au     0.377579E+11 Pa
>> Charges saved for restart in charges.bin

total energy  -1.9198048E+02 H       energy change -8.0670151E-01 H
gradient norm  9.4380940E-01 H/a0    max. gradient  1.6678214E-01 H/a0
step length    7.4931402E-01 a0      max. step      1.5049013E-01 a0

--------------------------------------------------------------------------------

***  Geometry step: 3

 iSCC Total electronic   Diff electronic      SCC error    
    1   -0.19693724E+03    0.00000000E+00    0.71739361E-01
    2   -0.19655418E+03    0.38305601E+00    0.29860506E-01
    3   -0.19655880E+03   -0.46198276E-02    0.10280354E-01
    4   -0.19655960E+03   -0.80214640E-03    0.13378501E-02
    5   -0.19655964E+03   -0.34711494E-04    0.46547109E-03
    6   -0.19655964E+03   -0.19704103E-05    0.20253253E-03
    7   -0.19655964E+03   -0.29606866E-07    0.48334339E-04
    8   -0.19655964E+03   -0.36380072E-08    0.12068861E-04
    9   -0.19655964E+03   -0.47643312E-09    0.23726480E-05
   10   -0.19655964E+03   -0.16967761E-10    0.40589032E-06
   11   -0.19655964E+03   -0.76738615E-12    0.92730523E-07
   12   -0.19655964E+03   -0.19895197E-12    0.20143645E-07
   13   -0.19655964E+03    0.56843419E-13    0.37972043E-08

Total Energy:                     -192.5127952419 H        -5238.5397 eV
Extrapolated to 0K:               -192.5127952419 H        -5238.5397 eV
Total Mermin free energy:         -192.5127952419 H        -5238.5397 eV
Force related energy:             -192.5127952419 H        -5238.5397 eV

Volume:                              0.100220E+05 au^3   0.148511E+04 A^3
Pressure:                            0.917544E-03 au     0.269951E+11 Pa
>> Charges saved for restart in charges.bin

total energy  -1.9251280E+02 H       energy change -5.3231451E-01 H
gradient norm  5.8515480E-01 H/a0    max. gradient  1.5702989E-01 H/a0
step length    7.7950227E-01 a0      max. step      1.8011867E-01 a0

--------------------------------------------------------------------------------

***  Geometry step: 4

 iSCC Total electronic   Diff electronic      SCC error    
    1   -0.19655964E+03    0.00000000E+00    0.67108456E-01
    2   -0.19617081E+03    0.38882974E+00    0.30999417E-01
    3   -0.19617342E+03   -0.26119306E-02    0.64701330E-02
    4   -0.19617400E+03   -0.58136324E-03    0.92245206E-03
    5   -0.19617404E+03   -0.31365003E-04    0.42086761E-03
    6   -0.19617404E+03   -0.12995351E-05    0.14774999E-03
    7   -0.19617404E+03   -0.26782089E-07    0.44963604E-04
    8   -0.19617404E+03   -0.25714542E-08    0.87071226E-05
    9   -0.19617404E+03   -0.40489567E-09    0.13988986E-05
   10   -0.19617404E+03   -0.10658141E-10    0.18523854E-06
   11   -0.19617404E+03   -0.79580786E-12    0.80318597E-07
   12   -0.19617404E+03    0.28421709E-13    0.18883200E-07
   13   -0.19617404E+03   -0.85265128E-13    0.23101125E-08

Total Energy:                     -192.8119071343 H        -5246.6789 eV
Extrapolated to 0K:               -192.8119071343 H        -5246.6789 eV
Total Mermin free energy:         -192.8119071343 H        -5246.6789 eV
Force related energy:             -192.8119071343 H        -5246.6789 eV

Volume:                              0.101606E+05 au^3   0.150564E+04 A^3
Pressure:                            0.641173E-03 au     0.188639E+11 Pa
>> Charges saved for restart in charges.bin

total energy  -1.9281191E+02 H       energy change -2.9911189E-01 H
gradient norm  4.4712853E-01 H/a0    max. gradient  2.5044112E-01 H/a0
step length    7.2073300E-01 a0      max. step      1.4939955E-01 a0

--------------------------------------------------------------------------------

***  Geometry step: 5

 iSCC Total electronic   Diff electronic      SCC error    
    1   -0.19617404E+03    0.00000000E+00    0.55923372E-01
    2   -0.19573782E+03    0.43621311E+00    0.34622174E-01
    3   -0.19573975E+03   -0.19303821E-02    0.66649325E-02
    4   -0.19574019E+03   -0.43763802E-03    0.14319805E-02
    5   -0.19574022E+03   -0.27835682E-04    0.60363156E-03
    6   -0.19574022E+03   -0.80177179E-06    0.18292486E-03
    7   -0.19574022E+03   -0.20004649E-07    0.52667833E-04
    8   -0.19574022E+03   -0.21675248E-08    0.88175359E-05
    9   -0.19574022E+03   -0.27651481E-09    0.15790399E-05
   10   -0.19574022E+03   -0.11141310E-10    0.13901715E-06
   11   -0.19574022E+03   -0.82422957E-12    0.33840357E-07
   12   -0.19574022E+03    0.00000000E+00    0.14694816E-07
   13   -0.19574022E+03   -0.28421709E-13    0.58562701E-08

Total Energy:                     -192.9915455897 H        -5251.5672 eV
Extrapolated to 0K:               -192.9915455897 H        -5251.5672 eV
Total Mermin free energy:         -192.9915455897 H        -5251.5672 eV
Force related energy:             -192.9915455897 H        -5251.5672 eV

Volume:                              0.103647E+05 au^3   0.153589E+04 A^3
Pressure:                            0.389136E-03 au     0.114488E+11 Pa
>> Charges saved for restart in charges.bin

total energy  -1.9299155E+02 H       energy change -1.7963846E-01 H
gradient norm  3.2450824E-01 H/a0    max. gradient  1.7036979E-01 H/a0
step length    6.9470785E-01 a0      max. step      2.3658207E-01 a0

--------------------------------------------------------------------------------

***  Geometry step: 6

 iSCC Total electronic   Diff electronic      SCC error    
    1   -0.19574022E+03    0.00000000E+00    0.45428178E-01
    2   -0.19539992E+03    0.34030104E+00    0.26234741E-01
    3   -0.19540137E+03   -0.14478699E-02    0.49079804E-02
    4   -0.19540166E+03   -0.29622866E-03    0.87364203E-03
    5   -0.19540168E+03   -0.15167451E-04    0.33603419E-03
    6   -0.19540168E+03   -0.62285210E-06    0.12167883E-03
    7   -0.19540168E+03   -0.98172848E-08    0.30674548E-04
    8   -0.19540168E+03   -0.84406793E-09    0.63001646E-05
    9   -0.19540168E+03   -0.12795454E-09    0.14353950E-05
   10   -0.19540168E+03   -0.43485215E-11    0.16674163E-06
   11   -0.19540168E+03   -0.48316906E-12    0.27409238E-07
   12   -0.19540168E+03    0.28421709E-13    0.58624989E-08

Total Energy:                     -193.0767611294 H        -5253.8860 eV
Extrapolated to 0K:               -193.0767611294 H        -5253.8860 eV
Total Mermin free energy:         -193.0767611294 H        -5253.8860 eV
Force related energy:             -193.0767611294 H        -5253.8860 eV

Volume:                              0.105261E+05 au^3   0.155981E+04 A^3
Pressure:                            0.218716E-03 au     0.643485E+10 Pa
>> Charges saved for restart in charges.bin

total energy  -1.9307676E+02 H       energy change -8.5215540E-02 H
gradient norm  2.0124859E-01 H/a0    max. gradient  1.0150151E-01 H/a0
step length    5.7209669E-01 a0      max. step      1.1950992E-01 a0

--------------------------------------------------------------------------------

***  Geometry step: 7

 iSCC Total electronic   Diff electronic      SCC error    
    1   -0.19540168E+03    0.00000000E+00    0.39604585E-01
    2   -0.19520691E+03    0.19477343E+00    0.17222233E-01
    3   -0.19520795E+03   -0.10472926E-02    0.35055707E-02
    4   -0.19520813E+03   -0.17377972E-03    0.71171637E-03
    5   -0.19520813E+03   -0.52730963E-05    0.26294635E-03
    6   -0.19520813E+03   -0.27688978E-06    0.84345778E-04
    7   -0.19520813E+03   -0.71976274E-08    0.15594752E-04
    8   -0.19520813E+03   -0.52909854E-09    0.29296506E-05
    9   -0.19520813E+03   -0.63124617E-10    0.93562868E-06
   10   -0.19520813E+03   -0.28421709E-11    0.10230811E-06
   11   -0.19520813E+03   -0.14210855E-12    0.15864390E-07
   12   -0.19520813E+03    0.56843419E-13    0.39079686E-08

Total Energy:                     -193.1159945464 H        -5254.9536 eV
Extrapolated to 0K:               -193.1159945464 H        -5254.9536 eV
Total Mermin free energy:         -193.1159945464 H        -5254.9536 eV
Force related energy:             -193.1159945464 H        -5254.9536 eV

Volume:                              0.106117E+05 au^3   0.157249E+04 A^3
Pressure:                            0.130147E-03 au     0.382907E+10 Pa
>> Charges saved for restart in charges.bin

total energy  -1.9311599E+02 H       energy change -3.9233417E-02 H
gradient norm  1.4550526E-01 H/a0    max. gradient  5.5971533E-02 H/a0
step length    4.4889277E-01 a0      max. step      8.2066372E-02 a0

--------------------------------------------------------------------------------

***  Geometry step: 8

 iSCC Total electronic   Diff electronic      SCC error    
    1   -0.19520813E+03    0.00000000E+00    0.17521356E-01
    2   -0.19510775E+03    0.10038164E+00    0.80708743E-02
    3   -0.19510805E+03   -0.29351150E-03    0.18653972E-02
    4   -0.19510810E+03   -0.52582362E-04    0.29216399E-03
    5   -0.19510810E+03   -0.15103904E-05    0.92806861E-04
    6   -0.19510810E+03   -0.77322085E-07    0.28974725E-04
    7   -0.19510810E+03   -0.37278483E-08    0.97609524E-05
    8   -0.19510810E+03   -0.15612045E-09    0.27450590E-05
    9   -0.19510810E+03   -0.98623332E-11    0.78308432E-06
   10   -0.19510810E+03   -0.10231815E-11    0.10421438E-06
   11   -0.19510810E+03    0.00000000E+00    0.12039864E-07
   12   -0.19510810E+03    0.00000000E+00    0.23050890E-08

Total Energy:                     -193.1390281132 H        -5255.5804 eV
Extrapolated to 0K:               -193.1390281132 H        -5255.5804 eV
Total Mermin free energy:         -193.1390281132 H        -5255.5804 eV
Force related energy:             -193.1390281132 H        -5255.5804 eV

Volume:                              0.106663E+05 au^3   0.158058E+04 A^3
Pressure:                            0.784970E-04 au     0.230946E+10 Pa
>> Charges saved for restart in charges.bin

total energy  -1.9313903E+02 H       energy change -2.3033567E-02 H
gradient norm  1.0971632E-01 H/a0    max. gradient  2.4796030E-02 H/a0
step length    3.5033506E-01 a0      max. step      6.7778979E-02 a0

--------------------------------------------------------------------------------

***  Geometry step: 9

 iSCC Total electronic   Diff electronic      SCC error    
    1   -0.19510810E+03    0.00000000E+00    0.23327952E-01
    2   -0.19509152E+03    0.16577976E-01    0.13586233E-01
    3   -0.19509185E+03   -0.33303956E-03    0.34083872E-02
    4   -0.19509191E+03   -0.57573180E-04    0.41782922E-03
    5   -0.19509191E+03   -0.21010717E-05    0.12135319E-03
    6   -0.19509191E+03   -0.21476501E-06    0.37784729E-04
    7   -0.19509191E+03   -0.36669405E-08    0.98908644E-05
    8   -0.19509191E+03   -0.86686214E-10    0.15914304E-05
    9   -0.19509191E+03   -0.12306600E-10    0.21133589E-06
   10   -0.19509191E+03   -0.12789769E-11    0.61978355E-07
   11   -0.19509191E+03   -0.85265128E-13    0.13154645E-07
   12   -0.19509191E+03    0.00000000E+00    0.85570395E-09

Total Energy:                     -193.1606379431 H        -5256.1684 eV
Extrapolated to 0K:               -193.1606379431 H        -5256.1684 eV
Total Mermin free energy:         -193.1606379431 H        -5256.1684 eV
Force related energy:             -193.1606379431 H        -5256.1684 eV

Volume:                              0.106889E+05 au^3   0.158394E+04 A^3
Pressure:                            0.586832E-04 au     0.172652E+10 Pa
>> Charges saved for restart in charges.bin

total energy  -1.9316064E+02 H       energy change -2.1609830E-02 H
gradient norm  9.3676421E-02 H/a0    max. gradient  1.6620136E-02 H/a0
step length    3.7398018E-01 a0      max. step      6.6452961E-02 a0

--------------------------------------------------------------------------------

***  Geometry step: 10

 iSCC Total electronic   Diff electronic      SCC error    
    1   -0.19509191E+03    0.00000000E+00    0.30219816E-01
    2   -0.19513160E+03   -0.39690584E-01    0.17471105E-01
    3   -0.19513210E+03   -0.49639299E-03    0.29280333E-02
    4   -0.19513221E+03   -0.10465016E-03    0.68452919E-03
    5   -0.19513221E+03   -0.56828108E-05    0.26792359E-03
    6   -0.19513221E+03   -0.18650951E-06    0.76729164E-04
    7   -0.19513221E+03   -0.68715451E-08    0.91155008E-05
    8   -0.19513221E+03   -0.35493031E-09    0.16754677E-05
    9   -0.19513221E+03   -0.33395509E-10    0.32046687E-06
   10   -0.19513221E+03   -0.29558578E-11    0.69446603E-07
   11   -0.19513221E+03   -0.22737368E-12    0.11837374E-07
   12   -0.19513221E+03    0.11368684E-12    0.25087323E-08

Total Energy:                     -193.1787373320 H        -5256.6609 eV
Extrapolated to 0K:               -193.1787373320 H        -5256.6609 eV
Total Mermin free energy:         -193.1787373320 H        -5256.6609 eV
Force related energy:             -193.1787373320 H        -5256.6609 eV

Volume:                              0.106982E+05 au^3   0.158532E+04 A^3
Pressure:                            0.630896E-04 au     0.185616E+10 Pa
>> Charges saved for restart in charges.bin

total energy  -1.9317874E+02 H       energy change -1.8099389E-02 H
gradient norm  1.0157244E-01 H/a0    max. gradient  4.4357229E-02 H/a0
step length    4.1857588E-01 a0      max. step      6.2818028E-02 a0

--------------------------------------------------------------------------------

***  Geometry step: 11

 iSCC Total electronic   Diff electronic      SCC error    
    1   -0.19513221E+03    0.00000000E+00    0.22707450E-01
    2   -0.19518055E+03   -0.48340522E-01    0.11172882E-01
    3   -0.19518103E+03   -0.47647606E-03    0.31570307E-02
    4   -0.19518112E+03   -0.88729497E-04    0.75066669E-03
    5   -0.19518112E+03   -0.46909256E-05    0.25391170E-03
    6   -0.19518112E+03   -0.30802616E-06    0.70920774E-04
    7   -0.19518112E+03   -0.79062659E-08    0.97619200E-05
    8   -0.19518112E+03   -0.39767656E-09    0.17555085E-05
    9   -0.19518112E+03   -0.36038728E-10    0.32240707E-06
   10   -0.19518112E+03   -0.34106051E-11    0.70235768E-07
   11   -0.19518112E+03   -0.56843419E-13    0.12281938E-07
   12   -0.19518112E+03   -0.56843419E-13    0.25844904E-08

Total Energy:                     -193.1892168540 H        -5256.9461 eV
Extrapolated to 0K:               -193.1892168540 H        -5256.9461 eV
Total Mermin free energy:         -193.1892168540 H        -5256.9461 eV
Force related energy:             -193.1892168540 H        -5256.9461 eV

Volume:                              0.107004E+05 au^3   0.158563E+04 A^3
Pressure:                            0.734945E-04 au     0.216228E+10 Pa
>> Charges saved for restart in charges.bin

total energy  -1.9318922E+02 H       energy change -1.0479522E-02 H
gradient norm  9.1529681E-02 H/a0    max. gradient  2.7527203E-02 H/a0
step length    3.1903203E-01 a0      max. step      4.6545873E-02 a0

--------------------------------------------------------------------------------

***  Geometry step: 12

 iSCC Total electronic   Diff electronic      SCC error    
    1   -0.19518112E+03    0.00000000E+00    0.16098706E-01
    2   -0.19520535E+03   -0.24228842E-01    0.95315932E-02
    3   -0.19520546E+03   -0.11275967E-03    0.19554702E-02
    4   -0.19520549E+03   -0.29304499E-04    0.50758794E-03
    5   -0.19520550E+03   -0.16420937E-05    0.16862261E-03
    6   -0.19520550E+03   -0.39007404E-07    0.28581229E-04
    7   -0.19520550E+03   -0.16336799E-08    0.23565289E-05
    8   -0.19520550E+03   -0.20799007E-09    0.71203165E-06
    9   -0.19520550E+03   -0.67075234E-11    0.21308468E-06
   10   -0.19520550E+03   -0.25579538E-12    0.25923027E-07
   11   -0.19520550E+03    0.28421709E-13    0.27862401E-08

Total Energy:                     -193.1981883896 H        -5257.1902 eV
Extrapolated to 0K:               -193.1981883896 H        -5257.1902 eV
Total Mermin free energy:         -193.1981883896 H        -5257.1902 eV
Force related energy:             -193.1981883896 H        -5257.1902 eV

Volume:                              0.107174E+05 au^3   0.158815E+04 A^3
Pressure:                            0.751127E-04 au     0.220989E+10 Pa
>> Charges saved for restart in charges.bin

total energy  -1.9319819E+02 H       energy change -8.9715356E-03 H
gradient norm  7.5162530E-02 H/a0    max. gradient  1.6755300E-02 H/a0
step length    2.4544821E-01 a0      max. step      4.1700019E-02 a0

--------------------------------------------------------------------------------

***  Geometry step: 13

 iSCC Total electronic   Diff electronic      SCC error    
    1   -0.19520550E+03    0.00000000E+00    0.21853554E-01
    2   -0.19521563E+03   -0.10135146E-01    0.13439705E-01
    3   -0.19521581E+03   -0.17832342E-03    0.26691107E-02
    4   -0.19521586E+03   -0.47669186E-04    0.61236909E-03
    5   -0.19521586E+03   -0.26468911E-05    0.17067623E-03
    6   -0.19521586E+03   -0.70004575E-07    0.35431897E-04
    7   -0.19521586E+03   -0.23755149E-08    0.33656903E-05
    8   -0.19521586E+03   -0.24064661E-09    0.79856452E-06
    9   -0.19521586E+03   -0.11823431E-10    0.15159457E-06
   10   -0.19521586E+03   -0.39790393E-12    0.20065949E-07
   11   -0.19521586E+03    0.85265128E-13    0.54004863E-08

Total Energy:                     -193.2094340879 H        -5257.4962 eV
Extrapolated to 0K:               -193.2094340879 H        -5257.4962 eV
Total Mermin free energy:         -193.2094340879 H        -5257.4962 eV
Force related energy:             -193.2094340879 H        -5257.4962 eV

Volume:                              0.107608E+05 au^3   0.159458E+04 A^3
Pressure:                            0.694951E-04 au     0.204462E+10 Pa
>> Charges saved for restart in charges.bin

total energy  -1.9320943E+02 H       energy change -1.1245698E-02 H
gradient norm  6.3866453E-02 H/a0    max. gradient  1.3579026E-02 H/a0
step length    3.3788142E-01 a0      max. step      5.8366982E-02 a0

--------------------------------------------------------------------------------

***  Geometry step: 14

 iSCC Total electronic   Diff electronic      SCC error    
    1   -0.19521586E+03    0.00000000E+00    0.14148594E-01
    2   -0.19519663E+03    0.19231822E-01    0.87262110E-02
    3   -0.19519672E+03   -0.88444337E-04    0.18356096E-02
    4   -0.19519674E+03   -0.21589468E-04    0.38751103E-03
    5   -0.19519674E+03   -0.12465741E-05    0.14994018E-03
    6   -0.19519674E+03   -0.38125705E-07    0.26348973E-04
    7   -0.19519674E+03   -0.15026558E-08    0.25206827E-05
    8   -0.19519674E+03   -0.15225510E-09    0.82122693E-06
    9   -0.19519674E+03   -0.63664629E-11    0.21922076E-06
   10   -0.19519674E+03   -0.48316906E-12    0.28565363E-07
   11   -0.19519674E+03    0.56843419E-13    0.41888288E-08

Total Energy:                     -193.2160352356 H        -5257.6758 eV
Extrapolated to 0K:               -193.2160352356 H        -5257.6758 eV
Total Mermin free energy:         -193.2160352356 H        -5257.6758 eV
Force related energy:             -193.2160352356 H        -5257.6758 eV

Volume:                              0.108124E+05 au^3   0.160223E+04 A^3
Pressure:                            0.565096E-04 au     0.166257E+10 Pa
>> Charges saved for restart in charges.bin

total energy  -1.9321604E+02 H       energy change -6.6011476E-03 H
gradient norm  5.8605407E-02 H/a0    max. gradient  1.1997835E-02 H/a0
step length    2.7377288E-01 a0      max. step      4.9120722E-02 a0

--------------------------------------------------------------------------------

***  Geometry step: 15

 iSCC Total electronic   Diff electronic      SCC error    
    1   -0.19519674E+03    0.00000000E+00    0.89838040E-02
    2   -0.19516629E+03    0.30449128E-01    0.56449887E-02
    3   -0.19516633E+03   -0.42279713E-04    0.14704313E-02
    4   -0.19516634E+03   -0.89809807E-05    0.27615694E-03
    5   -0.19516634E+03   -0.54566351E-06    0.10572632E-03
    6   -0.19516634E+03   -0.20872932E-07    0.20609487E-04
    7   -0.19516634E+03   -0.78040330E-09    0.22113611E-05
    8   -0.19516634E+03   -0.79978690E-10    0.49276685E-06
    9   -0.19516634E+03   -0.35242920E-11    0.15471026E-06
   10   -0.19516634E+03   -0.14210855E-12    0.23551414E-07
   11   -0.19516634E+03    0.28421709E-13    0.30512424E-08

Total Energy:                     -193.2208881644 H        -5257.8079 eV
Extrapolated to 0K:               -193.2208881644 H        -5257.8079 eV
Total Mermin free energy:         -193.2208881644 H        -5257.8079 eV
Force related energy:             -193.2208881644 H        -5257.8079 eV

Volume:                              0.108653E+05 au^3   0.161007E+04 A^3
Pressure:                            0.390422E-04 au     0.114866E+10 Pa
>> Charges saved for restart in charges.bin

total energy  -1.9322089E+02 H       energy change -4.8529289E-03 H
gradient norm  5.1018185E-02 H/a0    max. gradient  8.5421212E-03 H/a0
step length    2.5047375E-01 a0      max. step      4.8898088E-02 a0

--------------------------------------------------------------------------------

***  Geometry step: 16

 iSCC Total electronic   Diff electronic      SCC error    
    1   -0.19516634E+03    0.00000000E+00    0.78088439E-02
    2   -0.19514249E+03    0.23854155E-01    0.43511321E-02
    3   -0.19514253E+03   -0.41828207E-04    0.11454944E-02
    4   -0.19514254E+03   -0.74292998E-05    0.22345430E-03
    5   -0.19514254E+03   -0.38758108E-06    0.88186859E-04
    6   -0.19514254E+03   -0.17242513E-07    0.22103590E-04
    7   -0.19514254E+03   -0.60538241E-09    0.27348261E-05
    8   -0.19514254E+03   -0.51130655E-10    0.38695639E-06
    9   -0.19514254E+03   -0.33537617E-11    0.12197224E-06
   10   -0.19514254E+03   -0.14210855E-12    0.20324992E-07
   11   -0.19514254E+03    0.00000000E+00    0.26851930E-08

Total Energy:                     -193.2255430842 H        -5257.9345 eV
Extrapolated to 0K:               -193.2255430842 H        -5257.9345 eV
Total Mermin free energy:         -193.2255430842 H        -5257.9345 eV
Force related energy:             -193.2255430842 H        -5257.9345 eV

Volume:                              0.109155E+05 au^3   0.161751E+04 A^3
Pressure:                            0.241649E-04 au     0.710956E+09 Pa
>> Charges saved for restart in charges.bin

total energy  -1.9322554E+02 H       energy change -4.6549198E-03 H
gradient norm  4.9131863E-02 H/a0    max. gradient  9.9738528E-03 H/a0
step length    2.5703361E-01 a0      max. step      5.0205563E-02 a0

--------------------------------------------------------------------------------

***  Geometry step: 17

 iSCC Total electronic   Diff electronic      SCC error    
    1   -0.19514254E+03    0.00000000E+00    0.97240256E-02
    2   -0.19513853E+03    0.40074930E-02    0.56276285E-02
    3   -0.19513858E+03   -0.55504817E-04    0.13519238E-02
    4   -0.19513859E+03   -0.88591734E-05    0.13886846E-03
    5   -0.19513859E+03   -0.49507159E-06    0.52887999E-04
    6   -0.19513859E+03   -0.22243086E-07    0.18320512E-04
    7   -0.19513859E+03   -0.52747851E-09    0.37543299E-05
    8   -0.19513859E+03   -0.25892177E-10    0.94598195E-06
    9   -0.19513859E+03   -0.22168933E-11    0.17522643E-06
   10   -0.19513859E+03   -0.22737368E-12    0.24613147E-07
   11   -0.19513859E+03    0.28421709E-13    0.34667584E-08

Total Energy:                     -193.2303049393 H        -5258.0641 eV
Extrapolated to 0K:               -193.2303049393 H        -5258.0641 eV
Total Mermin free energy:         -193.2303049393 H        -5258.0641 eV
Force related energy:             -193.2303049393 H        -5258.0641 eV

Volume:                              0.109557E+05 au^3   0.162347E+04 A^3
Pressure:                            0.176370E-04 au     0.518898E+09 Pa
>> Charges saved for restart in charges.bin

total energy  -1.9323030E+02 H       energy change -4.7618551E-03 H
gradient norm  5.3713907E-02 H/a0    max. gradient  1.0872599E-02 H/a0
step length    2.6814480E-01 a0      max. step      5.1193097E-02 a0

--------------------------------------------------------------------------------

***  Geometry step: 18

 iSCC Total electronic   Diff electronic      SCC error    
    1   -0.19513859E+03    0.00000000E+00    0.14092505E-01
    2   -0.19515221E+03   -0.13616034E-01    0.82190952E-02
    3   -0.19515230E+03   -0.86094697E-04    0.21485948E-02
    4   -0.19515231E+03   -0.12902636E-04    0.20979140E-03
    5   -0.19515231E+03   -0.74542018E-06    0.37528295E-04
    6   -0.19515231E+03   -0.36961865E-07    0.12006084E-04
    7   -0.19515231E+03   -0.69528028E-09    0.29049388E-05
    8   -0.19515231E+03   -0.31320724E-10    0.10488701E-05
    9   -0.19515231E+03   -0.17053026E-11    0.33200415E-06
   10   -0.19515231E+03   -0.31263880E-12    0.46015056E-07
   11   -0.19515231E+03    0.85265128E-13    0.47385331E-08

Total Energy:                     -193.2354733422 H        -5258.2048 eV
Extrapolated to 0K:               -193.2354733422 H        -5258.2048 eV
Total Mermin free energy:         -193.2354733422 H        -5258.2048 eV
Force related energy:             -193.2354733422 H        -5258.2048 eV

Volume:                              0.109892E+05 au^3   0.162843E+04 A^3
Pressure:                            0.191984E-04 au     0.564837E+09 Pa
>> Charges saved for restart in charges.bin

total energy  -1.9323547E+02 H       energy change -5.1684029E-03 H
gradient norm  5.4048272E-02 H/a0    max. gradient  1.0588937E-02 H/a0
step length    3.0341727E-01 a0      max. step      5.3773450E-02 a0

--------------------------------------------------------------------------------

***  Geometry step: 19

 iSCC Total electronic   Diff electronic      SCC error    
    1   -0.19515231E+03    0.00000000E+00    0.12529707E-01
    2   -0.19517124E+03   -0.18930359E-01    0.72742446E-02
    3   -0.19517135E+03   -0.11299632E-03    0.22163800E-02
    4   -0.19517137E+03   -0.15201982E-04    0.20982709E-03
    5   -0.19517137E+03   -0.73704379E-06    0.64379973E-04
    6   -0.19517137E+03   -0.45362384E-07    0.23425130E-04
    7   -0.19517137E+03   -0.93447738E-09    0.46217775E-05
    8   -0.19517137E+03   -0.53347549E-10    0.11595215E-05
    9   -0.19517137E+03   -0.31548097E-11    0.25220216E-06
   10   -0.19517137E+03   -0.39790393E-12    0.30305625E-07
   11   -0.19517137E+03    0.85265128E-13    0.56333107E-08

Total Energy:                     -193.2402266660 H        -5258.3341 eV
Extrapolated to 0K:               -193.2402266660 H        -5258.3341 eV
Total Mermin free energy:         -193.2402266660 H        -5258.3341 eV
Force related energy:             -193.2402266660 H        -5258.3341 eV

Volume:                              0.110192E+05 au^3   0.163288E+04 A^3
Pressure:                            0.237080E-04 au     0.697515E+09 Pa
>> Charges saved for restart in charges.bin

total energy  -1.9324023E+02 H       energy change -4.7533237E-03 H
gradient norm  4.9500004E-02 H/a0    max. gradient  1.1119736E-02 H/a0
step length    3.1792925E-01 a0      max. step      6.0460219E-02 a0

--------------------------------------------------------------------------------

***  Geometry step: 20

 iSCC Total electronic   Diff electronic      SCC error    
    1   -0.19517137E+03    0.00000000E+00    0.97515421E-02
    2   -0.19518466E+03   -0.13292217E-01    0.52685969E-02
    3   -0.19518478E+03   -0.12050799E-03    0.16201467E-02
    4   -0.19518480E+03   -0.14355204E-04    0.31847552E-03
    5   -0.19518480E+03   -0.63165876E-06    0.88925810E-04
    6   -0.19518480E+03   -0.44481908E-07    0.27389523E-04
    7   -0.19518480E+03   -0.11717987E-08    0.44161758E-05
    8   -0.19518480E+03   -0.66762595E-10    0.85930910E-06
    9   -0.19518480E+03   -0.44622084E-11    0.27059203E-06
   10   -0.19518480E+03   -0.48316906E-12    0.31153720E-07
   11   -0.19518480E+03    0.56843419E-13    0.41275552E-08

Total Energy:                     -193.2446332569 H        -5258.4540 eV
Extrapolated to 0K:               -193.2446332569 H        -5258.4540 eV
Total Mermin free energy:         -193.2446332569 H        -5258.4540 eV
Force related energy:             -193.2446332569 H        -5258.4540 eV

Volume:                              0.110521E+05 au^3   0.163775E+04 A^3
Pressure:                            0.259303E-04 au     0.762894E+09 Pa
>> Charges saved for restart in charges.bin

total energy  -1.9324463E+02 H       energy change -4.4065909E-03 H
gradient norm  4.3378717E-02 H/a0    max. gradient  9.4127593E-03 H/a0
step length    3.2544301E-01 a0      max. step      6.2929111E-02 a0

--------------------------------------------------------------------------------

***  Geometry step: 21

 iSCC Total electronic   Diff electronic      SCC error    
    1   -0.19518480E+03    0.00000000E+00    0.11469187E-01
    2   -0.19518925E+03   -0.44499273E-02    0.50736765E-02
    3   -0.19518937E+03   -0.11901734E-03    0.16384408E-02
    4   -0.19518938E+03   -0.14988505E-04    0.34950054E-03
    5   -0.19518938E+03   -0.77147635E-06    0.10529080E-03
    6   -0.19518938E+03   -0.40292122E-07    0.30068130E-04
    7   -0.19518938E+03   -0.10393535E-08    0.46623599E-05
    8   -0.19518938E+03   -0.79182882E-10    0.82247620E-06
    9   -0.19518938E+03   -0.58832939E-11    0.20942776E-06
   10   -0.19518938E+03   -0.54001248E-12    0.23419835E-07
   11   -0.19518938E+03   -0.28421709E-13    0.47243018E-08

Total Energy:                     -193.2485508390 H        -5258.5606 eV
Extrapolated to 0K:               -193.2485508390 H        -5258.5606 eV
Total Mermin free energy:         -193.2485508390 H        -5258.5606 eV
Force related energy:             -193.2485508390 H        -5258.5606 eV

Volume:                              0.110881E+05 au^3   0.164309E+04 A^3
Pressure:                            0.245917E-04 au     0.723511E+09 Pa
>> Charges saved for restart in charges.bin

total energy  -1.9324855E+02 H       energy change -3.9175822E-03 H
gradient norm  4.0258958E-02 H/a0    max. gradient  9.0896477E-03 H/a0
step length    3.1754547E-01 a0      max. step      5.9599118E-02 a0

--------------------------------------------------------------------------------

***  Geometry step: 22

 iSCC Total electronic   Diff electronic      SCC error    
    1   -0.19518938E+03    0.00000000E+00    0.10384974E-01
    2   -0.19518366E+03    0.57213244E-02    0.56764408E-02
    3   -0.19518373E+03   -0.65195142E-04    0.11164333E-02
    4   -0.19518374E+03   -0.10770205E-04    0.21714327E-03
    5   -0.19518374E+03   -0.57853535E-06    0.76453952E-04
    6   -0.19518374E+03   -0.24139098E-07    0.23137225E-04
    7   -0.19518374E+03   -0.63121774E-09    0.45539405E-05
    8   -0.19518374E+03   -0.36607162E-10    0.90848202E-06
    9   -0.19518374E+03   -0.30411229E-11    0.12766069E-06
   10   -0.19518374E+03   -0.36948222E-12    0.15453598E-07
   11   -0.19518374E+03    0.28421709E-13    0.41543946E-08

Total Energy:                     -193.2510525588 H        -5258.6287 eV
Extrapolated to 0K:               -193.2510525588 H        -5258.6287 eV
Total Mermin free energy:         -193.2510525588 H        -5258.6287 eV
Force related energy:             -193.2510525588 H        -5258.6287 eV

Volume:                              0.111221E+05 au^3   0.164813E+04 A^3
Pressure:                            0.203963E-04 au     0.600080E+09 Pa
>> Charges saved for restart in charges.bin

total energy  -1.9325105E+02 H       energy change -2.5017198E-03 H
gradient norm  3.6892391E-02 H/a0    max. gradient  8.3641681E-03 H/a0
step length    2.4535137E-01 a0      max. step      4.4881103E-02 a0

--------------------------------------------------------------------------------

***  Geometry step: 23

 iSCC Total electronic   Diff electronic      SCC error    
    1   -0.19518374E+03    0.00000000E+00    0.73997535E-02
    2   -0.19517339E+03    0.10348249E-01    0.40514718E-02
    3   -0.19517342E+03   -0.27393720E-04    0.74029032E-03
    4   -0.19517342E+03   -0.57643928E-05    0.74426576E-04
    5   -0.19517342E+03   -0.25353745E-06    0.21861492E-04
    6   -0.19517342E+03   -0.63498078E-08    0.87751196E-05
    7   -0.19517342E+03   -0.20537527E-09    0.26765236E-05
    8   -0.19517342E+03   -0.79580786E-11    0.75019290E-06
    9   -0.19517342E+03   -0.51159077E-12    0.11376571E-06
   10   -0.19517342E+03   -0.28421709E-13    0.11979283E-07
   11   -0.19517342E+03   -0.28421709E-13    0.23825915E-08

Total Energy:                     -193.2524468063 H        -5258.6666 eV
Extrapolated to 0K:               -193.2524468063 H        -5258.6666 eV
Total Mermin free energy:         -193.2524468063 H        -5258.6666 eV
Force related energy:             -193.2524468063 H        -5258.6666 eV

Volume:                              0.111482E+05 au^3   0.165199E+04 A^3
Pressure:                            0.145711E-04 au     0.428695E+09 Pa
>> Charges saved for restart in charges.bin

total energy  -1.9325245E+02 H       energy change -1.3942475E-03 H
gradient norm  2.7363408E-02 H/a0    max. gradient  7.7127153E-03 H/a0
step length    1.4317063E-01 a0      max. step      2.6325736E-02 a0

--------------------------------------------------------------------------------

***  Geometry step: 24

 iSCC Total electronic   Diff electronic      SCC error    
    1   -0.19517342E+03    0.00000000E+00    0.39626259E-02
    2   -0.19516587E+03    0.75477472E-02    0.22865069E-02
    3   -0.19516590E+03   -0.22065130E-04    0.57104924E-03
    4   -0.19516590E+03   -0.40753118E-05    0.99267936E-04
    5   -0.19516590E+03   -0.12305006E-06    0.15672538E-04
    6   -0.19516590E+03   -0.70473618E-08    0.59967507E-05
    7   -0.19516590E+03   -0.10874146E-09    0.21020580E-05
    8   -0.19516590E+03   -0.42348347E-11    0.50129184E-06
    9   -0.19516590E+03   -0.28421709E-12    0.83421493E-07
   10   -0.19516590E+03   -0.11368684E-12    0.11108351E-07
   11   -0.19516590E+03    0.28421709E-13    0.16748243E-08

Total Energy:                     -193.2533388049 H        -5258.6909 eV
Extrapolated to 0K:               -193.2533388049 H        -5258.6909 eV
Total Mermin free energy:         -193.2533388049 H        -5258.6909 eV
Force related energy:             -193.2533388049 H        -5258.6909 eV

Volume:                              0.111659E+05 au^3   0.165462E+04 A^3
Pressure:                            0.100381E-04 au     0.295330E+09 Pa
>> Charges saved for restart in charges.bin

total energy  -1.9325334E+02 H       energy change -8.9199867E-04 H
gradient norm  2.1559122E-02 H/a0    max. gradient  6.4119043E-03 H/a0
step length    8.5109699E-02 a0      max. step      1.7290574E-02 a0

--------------------------------------------------------------------------------

***  Geometry step: 25

 iSCC Total electronic   Diff electronic      SCC error    
    1   -0.19516590E+03    0.00000000E+00    0.35865613E-02
    2   -0.19516455E+03    0.13537500E-02    0.20419997E-02
    3   -0.19516456E+03   -0.13963733E-04    0.66543467E-03
    4   -0.19516456E+03   -0.19019522E-05    0.85096277E-04
    5   -0.19516456E+03   -0.60616429E-07    0.25287320E-04
    6   -0.19516456E+03   -0.42193733E-08    0.87277857E-05
    7   -0.19516456E+03   -0.88391516E-10    0.10932911E-05
    8   -0.19516456E+03   -0.51159077E-11    0.22933987E-06
    9   -0.19516456E+03   -0.31263880E-12    0.37305569E-07
   10   -0.19516456E+03    0.56843419E-13    0.87023042E-08

Total Energy:                     -193.2540098610 H        -5258.7092 eV
Extrapolated to 0K:               -193.2540098610 H        -5258.7092 eV
Total Mermin free energy:         -193.2540098610 H        -5258.7092 eV
Force related energy:             -193.2540098610 H        -5258.7092 eV

Volume:                              0.111790E+05 au^3   0.165656E+04 A^3
Pressure:                            0.849301E-05 au     0.249873E+09 Pa
>> Charges saved for restart in charges.bin

total energy  -1.9325401E+02 H       energy change -6.7105602E-04 H
gradient norm  2.2858601E-02 H/a0    max. gradient  6.3582451E-03 H/a0
step length    6.6501489E-02 a0      max. step      1.6771401E-02 a0

--------------------------------------------------------------------------------

***  Geometry step: 26

 iSCC Total electronic   Diff electronic      SCC error    
    1   -0.19516456E+03    0.00000000E+00    0.59742175E-02
    2   -0.19516736E+03   -0.28000099E-02    0.34195989E-02
    3   -0.19516739E+03   -0.29985567E-04    0.10494715E-02
    4   -0.19516740E+03   -0.39925871E-05    0.14707405E-03
    5   -0.19516740E+03   -0.15656681E-06    0.46257013E-04
    6   -0.19516740E+03   -0.85209990E-08    0.14600926E-04
    7   -0.19516740E+03   -0.17800517E-09    0.15723501E-05
    8   -0.19516740E+03   -0.15802470E-10    0.30208065E-06
    9   -0.19516740E+03   -0.65369932E-12    0.66651044E-07
   10   -0.19516740E+03    0.28421709E-13    0.12379340E-07
   11   -0.19516740E+03   -0.11368684E-12    0.14051653E-08

Total Energy:                     -193.2549848137 H        -5258.7357 eV
Extrapolated to 0K:               -193.2549848137 H        -5258.7357 eV
Total Mermin free energy:         -193.2549848137 H        -5258.7357 eV
Force related energy:             -193.2549848137 H        -5258.7357 eV

Volume:                              0.112018E+05 au^3   0.165993E+04 A^3
Pressure:                            0.783162E-05 au     0.230414E+09 Pa
>> Charges saved for restart in charges.bin

total energy  -1.9325498E+02 H       energy change -9.7495275E-04 H
gradient norm  2.4695434E-02 H/a0    max. gradient  6.3108538E-03 H/a0
step length    1.2136669E-01 a0      max. step      3.1308229E-02 a0

--------------------------------------------------------------------------------

***  Geometry step: 27

 iSCC Total electronic   Diff electronic      SCC error    
    1   -0.19516740E+03    0.00000000E+00    0.54823104E-02
    2   -0.19517345E+03   -0.60578728E-02    0.27284205E-02
    3   -0.19517348E+03   -0.27931121E-04    0.89241213E-03
    4   -0.19517349E+03   -0.40807572E-05    0.15943921E-03
    5   -0.19517349E+03   -0.18952758E-06    0.49493451E-04
    6   -0.19517349E+03   -0.75228286E-08    0.13570069E-04
    7   -0.19517349E+03   -0.20611424E-09    0.15545222E-05
    8   -0.19517349E+03   -0.18928858E-10    0.37854403E-06
    9   -0.19517349E+03   -0.96633812E-12    0.97581776E-07
   10   -0.19517349E+03   -0.56843419E-13    0.11056445E-07
   11   -0.19517349E+03    0.00000000E+00    0.22643833E-08

Total Energy:                     -193.2558896206 H        -5258.7603 eV
Extrapolated to 0K:               -193.2558896206 H        -5258.7603 eV
Total Mermin free energy:         -193.2558896206 H        -5258.7603 eV
Force related energy:             -193.2558896206 H        -5258.7603 eV

Volume:                              0.112282E+05 au^3   0.166385E+04 A^3
Pressure:                            0.839115E-05 au     0.246876E+09 Pa
>> Charges saved for restart in charges.bin

total energy  -1.9325589E+02 H       energy change -9.0480693E-04 H
gradient norm  2.3090456E-02 H/a0    max. gradient  6.7683063E-03 H/a0
step length    1.4501697E-01 a0      max. step      3.6057727E-02 a0

--------------------------------------------------------------------------------

***  Geometry step: 28

 iSCC Total electronic   Diff electronic      SCC error    
    1   -0.19517349E+03    0.00000000E+00    0.44212863E-02
    2   -0.19517847E+03   -0.49867591E-02    0.24547237E-02
    3   -0.19517850E+03   -0.22475210E-04    0.75866525E-03
    4   -0.19517850E+03   -0.34200886E-05    0.14211941E-03
    5   -0.19517850E+03   -0.15755992E-06    0.43419680E-04
    6   -0.19517850E+03   -0.52490350E-08    0.10641205E-04
    7   -0.19517850E+03   -0.17058710E-09    0.13715687E-05
    8   -0.19517850E+03   -0.12391865E-10    0.34323322E-06
    9   -0.19517850E+03   -0.11652901E-11    0.89283842E-07
   10   -0.19517850E+03   -0.28421709E-13    0.13000454E-07
   11   -0.19517850E+03    0.56843419E-13    0.24200126E-08

Total Energy:                     -193.2566454122 H        -5258.7809 eV
Extrapolated to 0K:               -193.2566454122 H        -5258.7809 eV
Total Mermin free energy:         -193.2566454122 H        -5258.7809 eV
Force related energy:             -193.2566454122 H        -5258.7809 eV

Volume:                              0.112550E+05 au^3   0.166783E+04 A^3
Pressure:                            0.867038E-05 au     0.255091E+09 Pa
>> Charges saved for restart in charges.bin

total energy  -1.9325665E+02 H       energy change -7.5579157E-04 H
gradient norm  1.8614483E-02 H/a0    max. gradient  3.9343684E-03 H/a0
step length    1.4764199E-01 a0      max. step      3.5559786E-02 a0

--------------------------------------------------------------------------------

***  Geometry step: 29

 iSCC Total electronic   Diff electronic      SCC error    
    1   -0.19517850E+03    0.00000000E+00    0.41508678E-02
    2   -0.19518086E+03   -0.23622244E-02    0.23539357E-02
    3   -0.19518087E+03   -0.12109610E-04    0.55239368E-03
    4   -0.19518088E+03   -0.19968217E-05    0.76603677E-04
    5   -0.19518088E+03   -0.82727695E-07    0.25879578E-04
    6   -0.19518088E+03   -0.23998439E-08    0.68799243E-05
    7   -0.19518088E+03   -0.69690032E-10    0.88543349E-06
    8   -0.19518088E+03   -0.47464255E-11    0.15978872E-06
    9   -0.19518088E+03   -0.51159077E-12    0.49417245E-07
   10   -0.19518088E+03    0.00000000E+00    0.10098325E-07
   11   -0.19518088E+03   -0.56843419E-13    0.12450307E-08

Total Energy:                     -193.2571562743 H        -5258.7948 eV
Extrapolated to 0K:               -193.2571562743 H        -5258.7948 eV
Total Mermin free energy:         -193.2571562743 H        -5258.7948 eV
Force related energy:             -193.2571562743 H        -5258.7948 eV

Volume:                              0.112736E+05 au^3   0.167057E+04 A^3
Pressure:                            0.884454E-05 au     0.260215E+09 Pa
>> Charges saved for restart in charges.bin

total energy  -1.9325716E+02 H       energy change -5.1086207E-04 H
gradient norm  1.5854986E-02 H/a0    max. gradient  4.6273742E-03 H/a0
step length    1.0659600E-01 a0      max. step      2.4379489E-02 a0

--------------------------------------------------------------------------------

***  Geometry step: 30

 iSCC Total electronic   Diff electronic      SCC error    
    1   -0.19518088E+03    0.00000000E+00    0.37208825E-02
    2   -0.19517865E+03    0.22247124E-02    0.21148560E-02
    3   -0.19517866E+03   -0.65364808E-05    0.43340566E-03
    4   -0.19517866E+03   -0.11558027E-05    0.36446219E-04
    5   -0.19517866E+03   -0.57003774E-07    0.14394701E-04
    6   -0.19517866E+03   -0.96002850E-09    0.44838024E-05
    7   -0.19517866E+03   -0.16569857E-10    0.71887405E-06
    8   -0.19517866E+03   -0.11937118E-11    0.10877450E-06
    9   -0.19517866E+03   -0.56843419E-13    0.38850446E-07
   10   -0.19517866E+03    0.00000000E+00    0.53387228E-08

Total Energy:                     -193.2575432145 H        -5258.8053 eV
Extrapolated to 0K:               -193.2575432145 H        -5258.8053 eV
Total Mermin free energy:         -193.2575432145 H        -5258.8053 eV
Force related energy:             -193.2575432145 H        -5258.8053 eV

Volume:                              0.112882E+05 au^3   0.167274E+04 A^3
Pressure:                            0.737485E-05 au     0.216975E+09 Pa
>> Charges saved for restart in charges.bin

total energy  -1.9325754E+02 H       energy change -3.8694024E-04 H
gradient norm  1.5382189E-02 H/a0    max. gradient  5.1564185E-03 H/a0
step length    8.1088989E-02 a0      max. step      1.7813505E-02 a0

--------------------------------------------------------------------------------

***  Geometry step: 31

 iSCC Total electronic   Diff electronic      SCC error    
    1   -0.19517866E+03    0.00000000E+00    0.41731260E-02
    2   -0.19517516E+03    0.34966585E-02    0.23679692E-02
    3   -0.19517517E+03   -0.50064708E-05    0.44403567E-03
    4   -0.19517517E+03   -0.92447411E-06    0.25604336E-04
    5   -0.19517517E+03   -0.44321951E-07    0.58095197E-05
    6   -0.19517517E+03   -0.10102212E-08    0.17766516E-05
    7   -0.19517517E+03   -0.17024604E-10    0.52700575E-06
    8   -0.19517517E+03   -0.56843419E-12    0.14071766E-06
    9   -0.19517517E+03   -0.56843419E-13    0.45807498E-07
   10   -0.19517517E+03    0.00000000E+00    0.87330019E-08

Total Energy:                     -193.2578869051 H        -5258.8147 eV
Extrapolated to 0K:               -193.2578869051 H        -5258.8147 eV
Total Mermin free energy:         -193.2578869051 H        -5258.8147 eV
Force related energy:             -193.2578869051 H        -5258.8147 eV

Volume:                              0.112983E+05 au^3   0.167423E+04 A^3
Pressure:                            0.553871E-05 au     0.162954E+09 Pa
>> Charges saved for restart in charges.bin

total energy  -1.9325789E+02 H       energy change -3.4369056E-04 H
gradient norm  1.4700606E-02 H/a0    max. gradient  4.7104383E-03 H/a0
step length    6.7510303E-02 a0      max. step      1.2931478E-02 a0

--------------------------------------------------------------------------------

***  Geometry step: 32

 iSCC Total electronic   Diff electronic      SCC error    
    1   -0.19517517E+03    0.00000000E+00    0.39486726E-02
    2   -0.19517193E+03    0.32415305E-02    0.22532462E-02
    3   -0.19517193E+03   -0.48275573E-05    0.49239849E-03
    4   -0.19517193E+03   -0.84929863E-06    0.36047622E-04
    5   -0.19517193E+03   -0.36085027E-07    0.70923545E-05
    6   -0.19517193E+03   -0.13596377E-08    0.20661669E-05
    7   -0.19517193E+03   -0.27512215E-10    0.66708232E-06
    8   -0.19517193E+03   -0.68212103E-12    0.17176998E-06
    9   -0.19517193E+03   -0.56843419E-13    0.39261245E-07
   10   -0.19517193E+03    0.28421709E-13    0.58796710E-08

Total Energy:                     -193.2582599073 H        -5258.8248 eV
Extrapolated to 0K:               -193.2582599073 H        -5258.8248 eV
Total Mermin free energy:         -193.2582599073 H        -5258.8248 eV
Force related energy:             -193.2582599073 H        -5258.8248 eV

Volume:                              0.113062E+05 au^3   0.167541E+04 A^3
Pressure:                            0.381156E-05 au     0.112140E+09 Pa
>> Charges saved for restart in charges.bin

total energy  -1.9325826E+02 H       energy change -3.7300217E-04 H
gradient norm  1.5620636E-02 H/a0    max. gradient  3.2634502E-03 H/a0
step length    7.6343871E-02 a0      max. step      1.6354009E-02 a0

--------------------------------------------------------------------------------

***  Geometry step: 33

 iSCC Total electronic   Diff electronic      SCC error    
    1   -0.19517193E+03    0.00000000E+00    0.28905400E-02
    2   -0.19517017E+03    0.17578920E-02    0.16704994E-02
    3   -0.19517018E+03   -0.58734755E-05    0.45590055E-03
    4   -0.19517018E+03   -0.98973388E-06    0.49768387E-04
    5   -0.19517018E+03   -0.32121420E-07    0.82780880E-05
    6   -0.19517018E+03   -0.15723458E-08    0.25968770E-05
    7   -0.19517018E+03   -0.37232439E-10    0.81937222E-06
    8   -0.19517018E+03   -0.10516032E-11    0.22070069E-06
    9   -0.19517018E+03    0.56843419E-13    0.38595349E-07
   10   -0.19517018E+03   -0.85265128E-13    0.57275598E-08

Total Energy:                     -193.2587562863 H        -5258.8383 eV
Extrapolated to 0K:               -193.2587562863 H        -5258.8383 eV
Total Mermin free energy:         -193.2587562863 H        -5258.8383 eV
Force related energy:             -193.2587562863 H        -5258.8383 eV

Volume:                              0.113152E+05 au^3   0.167674E+04 A^3
Pressure:                            0.244696E-05 au     0.719921E+08 Pa
>> Charges saved for restart in charges.bin

total energy  -1.9325876E+02 H       energy change -4.9637908E-04 H
gradient norm  1.8351424E-02 H/a0    max. gradient  3.5617311E-03 H/a0
step length    1.0903185E-01 a0      max. step      2.4158819E-02 a0

--------------------------------------------------------------------------------

***  Geometry step: 34

 iSCC Total electronic   Diff electronic      SCC error    
    1   -0.19517018E+03    0.00000000E+00    0.32239517E-02
    2   -0.19517121E+03   -0.10320250E-02    0.16542597E-02
    3   -0.19517122E+03   -0.89674953E-05    0.48192851E-03
    4   -0.19517122E+03   -0.14088417E-05    0.47314191E-04
    5   -0.19517122E+03   -0.41076902E-07    0.15660727E-04
    6   -0.19517122E+03   -0.17707578E-08    0.49301023E-05
    7   -0.19517122E+03   -0.54967586E-10    0.13554905E-05
    8   -0.19517122E+03   -0.17053026E-11    0.34257055E-06
    9   -0.19517122E+03   -0.25579538E-12    0.45340476E-07
   10   -0.19517122E+03    0.14210855E-12    0.63538632E-08

Total Energy:                     -193.2594233694 H        -5258.8565 eV
Extrapolated to 0K:               -193.2594233694 H        -5258.8565 eV
Total Mermin free energy:         -193.2594233694 H        -5258.8565 eV
Force related energy:             -193.2594233694 H        -5258.8565 eV

Volume:                              0.113277E+05 au^3   0.167859E+04 A^3
Pressure:                            0.189709E-05 au     0.558142E+08 Pa
>> Charges saved for restart in charges.bin

total energy  -1.9325942E+02 H       energy change -6.6708307E-04 H
gradient norm  2.1217464E-02 H/a0    max. gradient  3.8209213E-03 H/a0
step length    1.6403955E-01 a0      max. step      3.6196268E-02 a0

--------------------------------------------------------------------------------

***  Geometry step: 35

 iSCC Total electronic   Diff electronic      SCC error    
    1   -0.19517122E+03    0.00000000E+00    0.37024864E-02
    2   -0.19517584E+03   -0.46194387E-02    0.21158083E-02
    3   -0.19517586E+03   -0.11762887E-04    0.59709856E-03
    4   -0.19517586E+03   -0.18134664E-05    0.54895067E-04
    5   -0.19517586E+03   -0.62040783E-07    0.19908808E-04
    6   -0.19517586E+03   -0.20762343E-08    0.60067202E-05
    7   -0.19517586E+03   -0.36095571E-10    0.12027837E-05
    8   -0.19517586E+03   -0.14779289E-11    0.27114835E-06
    9   -0.19517586E+03   -0.22737368E-12    0.31579411E-07
   10   -0.19517586E+03   -0.14210855E-12    0.69515576E-08

Total Energy:                     -193.2601486884 H        -5258.8762 eV
Extrapolated to 0K:               -193.2601486884 H        -5258.8762 eV
Total Mermin free energy:         -193.2601486884 H        -5258.8762 eV
Force related energy:             -193.2601486884 H        -5258.8762 eV

Volume:                              0.113420E+05 au^3   0.168071E+04 A^3
Pressure:                            0.250412E-05 au     0.736737E+08 Pa
>> Charges saved for restart in charges.bin

total energy  -1.9326015E+02 H       energy change -7.2531895E-04 H
gradient norm  2.0834539E-02 H/a0    max. gradient  5.9395155E-03 H/a0
step length    1.9789768E-01 a0      max. step      4.2263752E-02 a0

--------------------------------------------------------------------------------

***  Geometry step: 36

 iSCC Total electronic   Diff electronic      SCC error    
    1   -0.19517586E+03    0.00000000E+00    0.53746693E-02
    2   -0.19518236E+03   -0.65065170E-02    0.30065571E-02
    3   -0.19518238E+03   -0.15106490E-04    0.74537087E-03
    4   -0.19518238E+03   -0.24665470E-05    0.62338513E-04
    5   -0.19518238E+03   -0.83198188E-07    0.20626965E-04
    6   -0.19518238E+03   -0.30808280E-08    0.70489236E-05
    7   -0.19518238E+03   -0.47919002E-10    0.16905811E-05
    8   -0.19518238E+03   -0.17621460E-11    0.26869350E-06
    9   -0.19518238E+03   -0.56843419E-12    0.42534102E-07
   10   -0.19518238E+03    0.28421709E-13    0.65809869E-08

Total Energy:                     -193.2607987390 H        -5258.8939 eV
Extrapolated to 0K:               -193.2607987390 H        -5258.8939 eV
Total Mermin free energy:         -193.2607987390 H        -5258.8939 eV
Force related energy:             -193.2607987390 H        -5258.8939 eV

Volume:                              0.113556E+05 au^3   0.168273E+04 A^3
Pressure:                            0.390652E-05 au     0.114934E+09 Pa
>> Charges saved for restart in charges.bin

total energy  -1.9326080E+02 H       energy change -6.5005069E-04 H
gradient norm  1.7293458E-02 H/a0    max. gradient  6.8721309E-03 H/a0
step length    1.9506435E-01 a0      max. step      4.0085059E-02 a0

--------------------------------------------------------------------------------

***  Geometry step: 37

 iSCC Total electronic   Diff electronic      SCC error    
    1   -0.19518238E+03    0.00000000E+00    0.50321319E-02
    2   -0.19518745E+03   -0.50668396E-02    0.28884295E-02
    3   -0.19518746E+03   -0.11466491E-04    0.74792671E-03
    4   -0.19518746E+03   -0.19499629E-05    0.51918905E-04
    5   -0.19518746E+03   -0.60287420E-07    0.16535139E-04
    6   -0.19518746E+03   -0.26433611E-08    0.62823268E-05
    7   -0.19518746E+03   -0.43769433E-10    0.16399036E-05
    8   -0.19518746E+03   -0.15631940E-11    0.28071946E-06
    9   -0.19518746E+03   -0.22737368E-12    0.40814850E-07
   10   -0.19518746E+03    0.56843419E-13    0.79828926E-08

Total Energy:                     -193.2612803150 H        -5258.9070 eV
Extrapolated to 0K:               -193.2612803150 H        -5258.9070 eV
Total Mermin free energy:         -193.2612803150 H        -5258.9070 eV
Force related energy:             -193.2612803150 H        -5258.9070 eV

Volume:                              0.113669E+05 au^3   0.168440E+04 A^3
Pressure:                            0.515846E-05 au     0.151767E+09 Pa
>> Charges saved for restart in charges.bin

total energy  -1.9326128E+02 H       energy change -4.8157597E-04 H
gradient norm  1.5705125E-02 H/a0    max. gradient  6.2414327E-03 H/a0
step length    1.5713555E-01 a0      max. step      3.1101736E-02 a0

--------------------------------------------------------------------------------

***  Geometry step: 38

 iSCC Total electronic   Diff electronic      SCC error    
    1   -0.19518746E+03    0.00000000E+00    0.34403356E-02
    2   -0.19518892E+03   -0.14535889E-02    0.20293871E-02
    3   -0.19518892E+03   -0.85024906E-05    0.58025169E-03
    4   -0.19518893E+03   -0.13803133E-05    0.55005792E-04
    5   -0.19518893E+03   -0.43982226E-07    0.17111824E-04
    6   -0.19518893E+03   -0.21481981E-08    0.64262582E-05
    7   -0.19518893E+03   -0.31946001E-10    0.12618853E-05
    8   -0.19518893E+03   -0.14495072E-11    0.22117358E-06
    9   -0.19518893E+03   -0.19895197E-12    0.40497413E-07
   10   -0.19518893E+03    0.28421709E-13    0.69261565E-08

Total Energy:                     -193.2617207689 H        -5258.9190 eV
Extrapolated to 0K:               -193.2617207689 H        -5258.9190 eV
Total Mermin free energy:         -193.2617207689 H        -5258.9190 eV
Force related energy:             -193.2617207689 H        -5258.9190 eV

Volume:                              0.113773E+05 au^3   0.168595E+04 A^3
Pressure:                            0.512607E-05 au     0.150814E+09 Pa
>> Charges saved for restart in charges.bin

total energy  -1.9326172E+02 H       energy change -4.4045390E-04 H
gradient norm  1.6568430E-02 H/a0    max. gradient  4.7791046E-03 H/a0
step length    1.3338716E-01 a0      max. step      2.5997099E-02 a0

--------------------------------------------------------------------------------

***  Geometry step: 39

 iSCC Total electronic   Diff electronic      SCC error    
    1   -0.19518893E+03    0.00000000E+00    0.34502682E-02
    2   -0.19518794E+03    0.98224346E-03    0.18849220E-02
    3   -0.19518796E+03   -0.12958537E-04    0.52681183E-03
    4   -0.19518796E+03   -0.20272215E-05    0.84232406E-04
    5   -0.19518796E+03   -0.84036941E-07    0.22312821E-04
    6   -0.19518796E+03   -0.41422936E-08    0.77961695E-05
    7   -0.19518796E+03   -0.60566663E-10    0.10496208E-05
    8   -0.19518796E+03   -0.42348347E-11    0.21006347E-06
    9   -0.19518796E+03   -0.22737368E-12    0.57546552E-07
   10   -0.19518796E+03   -0.85265128E-13    0.93074668E-08

Total Energy:                     -193.2622826925 H        -5258.9343 eV
Extrapolated to 0K:               -193.2622826925 H        -5258.9343 eV
Total Mermin free energy:         -193.2622826925 H        -5258.9343 eV
Force related energy:             -193.2622826925 H        -5258.9343 eV

Volume:                              0.113882E+05 au^3   0.168756E+04 A^3
Pressure:                            0.405065E-05 au     0.119174E+09 Pa
>> Charges saved for restart in charges.bin

total energy  -1.9326228E+02 H       energy change -5.6192358E-04 H
gradient norm  1.8547047E-02 H/a0    max. gradient  4.1800959E-03 H/a0
step length    1.6405356E-01 a0      max. step      3.3542701E-02 a0

--------------------------------------------------------------------------------

***  Geometry step: 40

 iSCC Total electronic   Diff electronic      SCC error    
    1   -0.19518796E+03    0.00000000E+00    0.43124461E-02
    2   -0.19518552E+03    0.24338422E-02    0.19215326E-02
    3   -0.19518554E+03   -0.13957133E-04    0.53252195E-03
    4   -0.19518554E+03   -0.20282278E-05    0.88263280E-04
    5   -0.19518554E+03   -0.10042606E-06    0.28947854E-04
    6   -0.19518554E+03   -0.43146144E-08    0.77893431E-05
    7   -0.19518554E+03   -0.71707973E-10    0.15208514E-05
    8   -0.19518554E+03   -0.40074610E-11    0.27624489E-06
    9   -0.19518554E+03   -0.71054274E-12    0.59552191E-07
   10   -0.19518554E+03    0.85265128E-13    0.10106867E-07
   11   -0.19518554E+03   -0.28421709E-13    0.14636514E-08

Total Energy:                     -193.2628477244 H        -5258.9497 eV
Extrapolated to 0K:               -193.2628477244 H        -5258.9497 eV
Total Mermin free energy:         -193.2628477244 H        -5258.9497 eV
Force related energy:             -193.2628477244 H        -5258.9497 eV

Volume:                              0.113959E+05 au^3   0.168869E+04 A^3
Pressure:                            0.251572E-05 au     0.740149E+08 Pa
>> Charges saved for restart in charges.bin

total energy  -1.9326285E+02 H       energy change -5.6503193E-04 H
gradient norm  1.8253115E-02 H/a0    max. gradient  3.6802904E-03 H/a0
step length    1.6081773E-01 a0      max. step      3.5646057E-02 a0

--------------------------------------------------------------------------------

***  Geometry step: 41

 iSCC Total electronic   Diff electronic      SCC error    
    1   -0.19518554E+03    0.00000000E+00    0.41741407E-02
    2   -0.19518333E+03    0.22113702E-02    0.20377586E-02
    3   -0.19518334E+03   -0.15412781E-04    0.61165034E-03
    4   -0.19518335E+03   -0.20368210E-05    0.11710689E-03
    5   -0.19518335E+03   -0.10617987E-06    0.37337221E-04
    6   -0.19518335E+03   -0.41221426E-08    0.85802582E-05
    7   -0.19518335E+03   -0.91688435E-10    0.18683239E-05
    8   -0.19518335E+03   -0.47464255E-11    0.25576947E-06
    9   -0.19518335E+03   -0.76738615E-12    0.47154740E-07
   10   -0.19518335E+03   -0.56843419E-13    0.69602146E-08

Total Energy:                     -193.2634060647 H        -5258.9649 eV
Extrapolated to 0K:               -193.2634060647 H        -5258.9649 eV
Total Mermin free energy:         -193.2634060647 H        -5258.9649 eV
Force related energy:             -193.2634060647 H        -5258.9649 eV

Volume:                              0.114018E+05 au^3   0.168957E+04 A^3
Pressure:                            0.137937E-05 au     0.405826E+08 Pa
>> Charges saved for restart in charges.bin

total energy  -1.9326341E+02 H       energy change -5.5834023E-04 H
gradient norm  1.6204615E-02 H/a0    max. gradient  2.9316264E-03 H/a0
step length    1.6838285E-01 a0      max. step      3.9131555E-02 a0

--------------------------------------------------------------------------------

***  Geometry step: 42

 iSCC Total electronic   Diff electronic      SCC error    
    1   -0.19518335E+03    0.00000000E+00    0.29645216E-02
    2   -0.19518318E+03    0.16846656E-03    0.15512277E-02
    3   -0.19518319E+03   -0.11783596E-04    0.48346701E-03
    4   -0.19518319E+03   -0.15731785E-05    0.98972959E-04
    5   -0.19518319E+03   -0.60936230E-07    0.30627825E-04
    6   -0.19518319E+03   -0.32117384E-08    0.90302769E-05
    7   -0.19518319E+03   -0.68155259E-10    0.16038748E-05
    8   -0.19518319E+03   -0.31263880E-11    0.21201872E-06
    9   -0.19518319E+03   -0.42632564E-12    0.56211237E-07
   10   -0.19518319E+03    0.28421709E-13    0.11740823E-07
   11   -0.19518319E+03    0.00000000E+00    0.19201551E-08

Total Energy:                     -193.2638512600 H        -5258.9770 eV
Extrapolated to 0K:               -193.2638512600 H        -5258.9770 eV
Total Mermin free energy:         -193.2638512600 H        -5258.9770 eV
Force related energy:             -193.2638512600 H        -5258.9770 eV

Volume:                              0.114053E+05 au^3   0.169010E+04 A^3
Pressure:                            0.110818E-05 au     0.326037E+08 Pa
>> Charges saved for restart in charges.bin

total energy  -1.9326385E+02 H       energy change -4.4519530E-04 H
gradient norm  1.5127722E-02 H/a0    max. gradient  2.9803028E-03 H/a0
step length    1.4053005E-01 a0      max. step      3.2846379E-02 a0

--------------------------------------------------------------------------------

***  Geometry step: 43

 iSCC Total electronic   Diff electronic      SCC error    
    1   -0.19518319E+03    0.00000000E+00    0.33264562E-02
    2   -0.19518597E+03   -0.27776175E-02    0.17706588E-02
    3   -0.19518598E+03   -0.84847911E-05    0.42081465E-03
    4   -0.19518598E+03   -0.13482397E-05    0.61223130E-04
    5   -0.19518598E+03   -0.42216840E-07    0.21737184E-04
    6   -0.19518598E+03   -0.24551525E-08    0.78502205E-05
    7   -0.19518598E+03   -0.47720050E-10    0.11747831E-05
    8   -0.19518598E+03   -0.25011104E-11    0.19041103E-06
    9   -0.19518598E+03   -0.85265128E-13    0.53191742E-07
   10   -0.19518598E+03   -0.85265128E-13    0.11150304E-07
   11   -0.19518598E+03   -0.28421709E-13    0.10691763E-08

Total Energy:                     -193.2642346630 H        -5258.9874 eV
Extrapolated to 0K:               -193.2642346630 H        -5258.9874 eV
Total Mermin free energy:         -193.2642346630 H        -5258.9874 eV
Force related energy:             -193.2642346630 H        -5258.9874 eV

Volume:                              0.114078E+05 au^3   0.169046E+04 A^3
Pressure:                            0.199097E-05 au     0.585764E+08 Pa
>> Charges saved for restart in charges.bin

total energy  -1.9326423E+02 H       energy change -3.8340300E-04 H
gradient norm  1.4698496E-02 H/a0    max. gradient  2.8375821E-03 H/a0
step length    1.2868253E-01 a0      max. step      2.8420174E-02 a0

--------------------------------------------------------------------------------

***  Geometry step: 44

 iSCC Total electronic   Diff electronic      SCC error    
    1   -0.19518598E+03    0.00000000E+00    0.33943199E-02
    2   -0.19518978E+03   -0.38010550E-02    0.18457885E-02
    3   -0.19518979E+03   -0.85548706E-05    0.44701652E-03
    4   -0.19518979E+03   -0.14405129E-05    0.47859704E-04
    5   -0.19518979E+03   -0.51141114E-07    0.18077132E-04
    6   -0.19518979E+03   -0.23300117E-08    0.66983204E-05
    7   -0.19518979E+03   -0.52921223E-10    0.13175459E-05
    8   -0.19518979E+03   -0.19610980E-11    0.25802574E-06
    9   -0.19518979E+03   -0.14210855E-12    0.53153031E-07
   10   -0.19518979E+03   -0.28421709E-13    0.70514576E-08

Total Energy:                     -193.2645850696 H        -5258.9969 eV
Extrapolated to 0K:               -193.2645850696 H        -5258.9969 eV
Total Mermin free energy:         -193.2645850696 H        -5258.9969 eV
Force related energy:             -193.2645850696 H        -5258.9969 eV

Volume:                              0.114114E+05 au^3   0.169099E+04 A^3
Pressure:                            0.301908E-05 au     0.888242E+08 Pa
>> Charges saved for restart in charges.bin

total energy  -1.9326459E+02 H       energy change -3.5040669E-04 H
gradient norm  1.3323775E-02 H/a0    max. gradient  3.3650514E-03 H/a0
step length    1.3606626E-01 a0      max. step      2.7274976E-02 a0

--------------------------------------------------------------------------------

***  Geometry step: 45

 iSCC Total electronic   Diff electronic      SCC error    
    1   -0.19518979E+03    0.00000000E+00    0.25491538E-02
    2   -0.19519334E+03   -0.35468931E-02    0.15164647E-02
    3   -0.19519334E+03   -0.77847910E-05    0.42771520E-03
    4   -0.19519335E+03   -0.12796816E-05    0.65592980E-04
    5   -0.19519335E+03   -0.47439727E-07    0.13854961E-04
    6   -0.19519335E+03   -0.28249474E-08    0.52360007E-05
    7   -0.19519335E+03   -0.65568884E-10    0.11063391E-05
    8   -0.19519335E+03   -0.19326762E-11    0.25458405E-06
    9   -0.19519335E+03   -0.28421709E-12    0.43236703E-07
   10   -0.19519335E+03    0.85265128E-13    0.79136644E-08

Total Energy:                     -193.2648627934 H        -5259.0045 eV
Extrapolated to 0K:               -193.2648627934 H        -5259.0045 eV
Total Mermin free energy:         -193.2648627934 H        -5259.0045 eV
Force related energy:             -193.2648627934 H        -5259.0045 eV

Volume:                              0.114150E+05 au^3   0.169153E+04 A^3
Pressure:                            0.392550E-05 au     0.115492E+09 Pa
>> Charges saved for restart in charges.bin

total energy  -1.9326486E+02 H       energy change -2.7772372E-04 H
gradient norm  1.1871418E-02 H/a0    max. gradient  3.1875555E-03 H/a0
step length    1.2308751E-01 a0      max. step      2.2865864E-02 a0

--------------------------------------------------------------------------------

***  Geometry step: 46

 iSCC Total electronic   Diff electronic      SCC error    
    1   -0.19519335E+03    0.00000000E+00    0.27967523E-02
    2   -0.19519518E+03   -0.18288072E-02    0.13525531E-02
    3   -0.19519518E+03   -0.75905352E-05    0.42774412E-03
    4   -0.19519518E+03   -0.12294844E-05    0.75022651E-04
    5   -0.19519518E+03   -0.46176183E-07    0.15688011E-04
    6   -0.19519518E+03   -0.28476279E-08    0.56764183E-05
    7   -0.19519518E+03   -0.71196382E-10    0.11754625E-05
    8   -0.19519518E+03   -0.20179414E-11    0.27270472E-06
    9   -0.19519518E+03   -0.17053026E-12    0.42110177E-07
   10   -0.19519518E+03    0.28421709E-13    0.63959735E-08

Total Energy:                     -193.2651115690 H        -5259.0113 eV
Extrapolated to 0K:               -193.2651115690 H        -5259.0113 eV
Total Mermin free energy:         -193.2651115690 H        -5259.0113 eV
Force related energy:             -193.2651115690 H        -5259.0113 eV

Volume:                              0.114189E+05 au^3   0.169211E+04 A^3
Pressure:                            0.420578E-05 au     0.123738E+09 Pa
>> Charges saved for restart in charges.bin

total energy  -1.9326511E+02 H       energy change -2.4877565E-04 H
gradient norm  1.1735343E-02 H/a0    max. gradient  2.9332846E-03 H/a0
step length    1.2107465E-01 a0      max. step      2.3313250E-02 a0

--------------------------------------------------------------------------------

***  Geometry step: 47

 iSCC Total electronic   Diff electronic      SCC error    
    1   -0.19519518E+03    0.00000000E+00    0.32651487E-02
    2   -0.19519552E+03   -0.33736998E-03    0.18358899E-02
    3   -0.19519553E+03   -0.76751430E-05    0.47391529E-03
    4   -0.19519553E+03   -0.11685234E-05    0.72650768E-04
    5   -0.19519553E+03   -0.60577065E-07    0.17839087E-04
    6   -0.19519553E+03   -0.30114791E-08    0.65610795E-05
    7   -0.19519553E+03   -0.67132078E-10    0.13034465E-05
    8   -0.19519553E+03   -0.18474111E-11    0.29868070E-06
    9   -0.19519553E+03   -0.17053026E-12    0.38621272E-07
   10   -0.19519553E+03    0.00000000E+00    0.59237855E-08

Total Energy:                     -193.2653668432 H        -5259.0182 eV
Extrapolated to 0K:               -193.2653668432 H        -5259.0182 eV
Total Mermin free energy:         -193.2653668432 H        -5259.0182 eV
Force related energy:             -193.2653668432 H        -5259.0182 eV

Volume:                              0.114214E+05 au^3   0.169248E+04 A^3
Pressure:                            0.416671E-05 au     0.122589E+09 Pa
>> Charges saved for restart in charges.bin

total energy  -1.9326537E+02 H       energy change -2.5527419E-04 H
gradient norm  1.2683457E-02 H/a0    max. gradient  3.0684493E-03 H/a0
step length    1.1545814E-01 a0      max. step      2.3766988E-02 a0

--------------------------------------------------------------------------------

***  Geometry step: 48

 iSCC Total electronic   Diff electronic      SCC error    
    1   -0.19519553E+03    0.00000000E+00    0.38754882E-02
    2   -0.19519374E+03    0.17946124E-02    0.22795899E-02
    3   -0.19519374E+03   -0.78458262E-05    0.51911829E-03
    4   -0.19519374E+03   -0.12211724E-05    0.41243343E-04
    5   -0.19519374E+03   -0.77571144E-07    0.14335958E-04
    6   -0.19519374E+03   -0.27569342E-08    0.53000869E-05
    7   -0.19519374E+03   -0.47805315E-10    0.12664146E-05
    8   -0.19519374E+03   -0.13926638E-11    0.30470632E-06
    9   -0.19519374E+03   -0.11368684E-12    0.43416872E-07
   10   -0.19519374E+03   -0.28421709E-13    0.67903021E-08

Total Energy:                     -193.2656377973 H        -5259.0256 eV
Extrapolated to 0K:               -193.2656377973 H        -5259.0256 eV
Total Mermin free energy:         -193.2656377973 H        -5259.0256 eV
Force related energy:             -193.2656377973 H        -5259.0256 eV

Volume:                              0.114239E+05 au^3   0.169285E+04 A^3
Pressure:                            0.335951E-05 au     0.988402E+08 Pa
>> Charges saved for restart in charges.bin

total energy  -1.9326564E+02 H       energy change -2.7095410E-04 H
gradient norm  1.2327637E-02 H/a0    max. gradient  3.0630365E-03 H/a0
step length    1.1160525E-01 a0      max. step      2.4240010E-02 a0

--------------------------------------------------------------------------------

***  Geometry step: 49

 iSCC Total electronic   Diff electronic      SCC error    
    1   -0.19519374E+03    0.00000000E+00    0.34886684E-02
    2   -0.19519164E+03    0.21051528E-02    0.20511722E-02
    3   -0.19519165E+03   -0.89102952E-05    0.53214789E-03
    4   -0.19519165E+03   -0.13274903E-05    0.47068982E-04
    5   -0.19519165E+03   -0.70996066E-07    0.89994859E-05
    6   -0.19519165E+03   -0.30568401E-08    0.38053377E-05
    7   -0.19519165E+03   -0.45446313E-10    0.11131186E-05
    8   -0.19519165E+03   -0.11937118E-11    0.31757060E-06
    9   -0.19519165E+03   -0.22737368E-12    0.54712684E-07
   10   -0.19519165E+03    0.56843419E-13    0.72146711E-08

Total Energy:                     -193.2658770888 H        -5259.0321 eV
Extrapolated to 0K:               -193.2658770888 H        -5259.0321 eV
Total Mermin free energy:         -193.2658770888 H        -5259.0321 eV
Force related energy:             -193.2658770888 H        -5259.0321 eV

Volume:                              0.114249E+05 au^3   0.169300E+04 A^3
Pressure:                            0.256591E-05 au     0.754918E+08 Pa
>> Charges saved for restart in charges.bin

total energy  -1.9326588E+02 H       energy change -2.3929146E-04 H
gradient norm  1.0592726E-02 H/a0    max. gradient  2.3000891E-03 H/a0
step length    9.3685661E-02 a0      max. step      2.2692192E-02 a0

--------------------------------------------------------------------------------

***  Geometry step: 50

 iSCC Total electronic   Diff electronic      SCC error    
    1   -0.19519165E+03    0.00000000E+00    0.21246739E-02
    2   -0.19519048E+03    0.11692301E-02    0.94913975E-03
    3   -0.19519049E+03   -0.46693581E-05    0.28084427E-03
    4   -0.19519049E+03   -0.71859790E-06    0.36064240E-04
    5   -0.19519049E+03   -0.19226121E-07    0.58087724E-05
    6   -0.19519049E+03   -0.12704788E-08    0.17620392E-05
    7   -0.19519049E+03   -0.27227998E-10    0.34543005E-06
    8   -0.19519049E+03   -0.48316906E-12    0.96484592E-07
    9   -0.19519049E+03   -0.11368684E-12    0.31516451E-07
   10   -0.19519049E+03    0.56843419E-13    0.68895720E-08

Total Energy:                     -193.2660446805 H        -5259.0367 eV
Extrapolated to 0K:               -193.2660446805 H        -5259.0367 eV
Total Mermin free energy:         -193.2660446805 H        -5259.0367 eV
Force related energy:             -193.2660446805 H        -5259.0367 eV

Volume:                              0.114257E+05 au^3   0.169312E+04 A^3
Pressure:                            0.213459E-05 au     0.628017E+08 Pa
>> Charges saved for restart in charges.bin

[...]
Pressure:                            0.832245E-07 au     0.244855E+07 Pa
>> Charges saved for restart in charges.bin

total energy  -1.9327531E+02 H       energy change -8.9807034E-07 H
gradient norm  7.0904016E-04 H/a0    max. gradient  1.5379526E-04 H/a0
step length    3.4087596E-03 a0      max. step      7.9873143E-04 a0

--------------------------------------------------------------------------------

***  Geometry step: 163

 iSCC Total electronic   Diff electronic      SCC error    
    1   -0.19518296E+03    0.00000000E+00    0.15348250E-03
    2   -0.19518301E+03   -0.52049866E-04    0.85775044E-04
    3   -0.19518301E+03   -0.25873049E-07    0.29944523E-04
    4   -0.19518301E+03   -0.35571190E-08    0.57094391E-05
    5   -0.19518301E+03   -0.13119461E-09    0.16439166E-05
    6   -0.19518301E+03   -0.87823082E-11    0.32991164E-06
    7   -0.19518301E+03   -0.31263880E-12    0.28211285E-07
    8   -0.19518301E+03   -0.56843419E-13    0.51030438E-08

Total Energy:                     -193.2753078915 H        -5259.2887 eV
Extrapolated to 0K:               -193.2753078915 H        -5259.2887 eV
Total Mermin free energy:         -193.2753078915 H        -5259.2887 eV
Force related energy:             -193.2753078915 H        -5259.2887 eV

Volume:                              0.112206E+05 au^3   0.166273E+04 A^3
Pressure:                            0.790783E-07 au     0.232656E+07 Pa
>> Charges saved for restart in charges.bin

total energy  -1.9327531E+02 H       energy change -8.6734502E-07 H
gradient norm  6.4011212E-04 H/a0    max. gradient  1.4328831E-04 H/a0
step length    4.3095028E-03 a0      max. step      9.8486794E-04 a0

--------------------------------------------------------------------------------

***  Geometry step: 164

 iSCC Total electronic   Diff electronic      SCC error    
    1   -0.19518301E+03    0.00000000E+00    0.15882383E-03
    2   -0.19518305E+03   -0.39019487E-04    0.54344999E-04
    3   -0.19518305E+03   -0.23238726E-07    0.15608400E-04
    4   -0.19518305E+03   -0.25763711E-08    0.46993372E-05
    5   -0.19518305E+03   -0.59543481E-10    0.92587814E-06
    6   -0.19518305E+03   -0.46895821E-11    0.26684245E-06
    7   -0.19518305E+03   -0.19895197E-12    0.32314167E-07
    8   -0.19518305E+03   -0.56843419E-13    0.28775244E-08

Total Energy:                     -193.2753086962 H        -5259.2887 eV
Extrapolated to 0K:               -193.2753086962 H        -5259.2887 eV
Total Mermin free energy:         -193.2753086962 H        -5259.2887 eV
Force related energy:             -193.2753086962 H        -5259.2887 eV

Volume:                              0.112210E+05 au^3   0.166278E+04 A^3
Pressure:                            0.699927E-07 au     0.205925E+07 Pa
>> Charges saved for restart in charges.bin

total energy  -1.9327531E+02 H       energy change -8.0471114E-07 H
gradient norm  7.7230040E-04 H/a0    max. gradient  1.4477524E-04 H/a0
step length    5.5164380E-03 a0      max. step      1.0932022E-03 a0

--------------------------------------------------------------------------------

***  Geometry step: 165

 iSCC Total electronic   Diff electronic      SCC error    
    1   -0.19518305E+03    0.00000000E+00    0.32024330E-03
    2   -0.19518306E+03   -0.10754093E-04    0.11338285E-03
    3   -0.19518306E+03   -0.79378907E-07    0.22694406E-04
    4   -0.19518306E+03   -0.78440507E-08    0.57610170E-05
    5   -0.19518306E+03   -0.15810997E-09    0.54588947E-06
    6   -0.19518306E+03   -0.86401997E-11    0.10245608E-06
    7   -0.19518306E+03   -0.28421709E-12    0.30963394E-07
    8   -0.19518306E+03    0.00000000E+00    0.70802408E-08

Total Energy:                     -193.2753102873 H        -5259.2888 eV
Extrapolated to 0K:               -193.2753102873 H        -5259.2888 eV
Total Mermin free energy:         -193.2753102873 H        -5259.2888 eV
Force related energy:             -193.2753102873 H        -5259.2888 eV

Volume:                              0.112219E+05 au^3   0.166292E+04 A^3
Pressure:                            0.348518E-07 au     0.102537E+07 Pa
>> Charges saved for restart in charges.bin

total energy  -1.9327531E+02 H       energy change -1.5911101E-06 H
gradient norm  9.7220042E-04 H/a0    max. gradient  2.0156084E-04 H/a0
step length    1.4877668E-02 a0      max. step      3.5127239E-03 a0

--------------------------------------------------------------------------------

***  Geometry step: 166

 iSCC Total electronic   Diff electronic      SCC error    
    1   -0.19518306E+03    0.00000000E+00    0.23060289E-03
    2   -0.19518308E+03   -0.20214526E-04    0.88176446E-04
    3   -0.19518308E+03   -0.58243018E-07    0.22878350E-04
    4   -0.19518308E+03   -0.70988051E-08    0.44305263E-05
    5   -0.19518308E+03   -0.11911538E-09    0.12127354E-05
    6   -0.19518308E+03   -0.95212727E-11    0.37567481E-06
    7   -0.19518308E+03   -0.28421709E-12    0.55303476E-07
    8   -0.19518308E+03    0.28421709E-13    0.53464126E-08

Total Energy:                     -193.2753122172 H        -5259.2888 eV
Extrapolated to 0K:               -193.2753122172 H        -5259.2888 eV
Total Mermin free energy:         -193.2753122172 H        -5259.2888 eV
Force related energy:             -193.2753122172 H        -5259.2888 eV

Volume:                              0.112228E+05 au^3   0.166304E+04 A^3
Pressure:                            0.631332E-08 au     0.185744E+06 Pa
>> Charges saved for restart in charges.bin

total energy  -1.9327531E+02 H       energy change -1.9298515E-06 H
gradient norm  1.0791475E-03 H/a0    max. gradient  2.5237553E-04 H/a0
step length    1.7992734E-02 a0      max. step      3.9824821E-03 a0

--------------------------------------------------------------------------------

***  Geometry step: 167

 iSCC Total electronic   Diff electronic      SCC error    
    1   -0.19518308E+03    0.00000000E+00    0.32343947E-03
    2   -0.19518298E+03    0.10022878E-03    0.11411141E-03
    3   -0.19518298E+03   -0.70471458E-07    0.25828925E-04
    4   -0.19518298E+03   -0.10186000E-07    0.51276477E-05
    5   -0.19518298E+03   -0.16117951E-09    0.15802363E-05
    6   -0.19518298E+03   -0.81854523E-11    0.34307566E-06
    7   -0.19518298E+03   -0.17053026E-12    0.48441197E-07
    8   -0.19518298E+03   -0.17053026E-12    0.74940387E-08

Total Energy:                     -193.2753145587 H        -5259.2889 eV
Extrapolated to 0K:               -193.2753145587 H        -5259.2889 eV
Total Mermin free energy:         -193.2753145587 H        -5259.2889 eV
Force related energy:             -193.2753145587 H        -5259.2889 eV

Volume:                              0.112231E+05 au^3   0.166310E+04 A^3
Pressure:                           -0.663039E-07 au    -0.195073E+07 Pa
>> Charges saved for restart in charges.bin

total energy  -1.9327531E+02 H       energy change -2.3415288E-06 H
gradient norm  8.9969899E-04 H/a0    max. gradient  2.0412733E-04 H/a0
step length    2.6297735E-02 a0      max. step      5.2575827E-03 a0

--------------------------------------------------------------------------------

***  Geometry step: 168

 iSCC Total electronic   Diff electronic      SCC error    
    1   -0.19518298E+03    0.00000000E+00    0.19107573E-03
    2   -0.19518308E+03   -0.10075035E-03    0.83709121E-04
    3   -0.19518308E+03   -0.50039944E-07    0.30271297E-04
    4   -0.19518308E+03   -0.55233329E-08    0.50503616E-05
    5   -0.19518308E+03   -0.15759838E-09    0.91672375E-06
    6   -0.19518308E+03   -0.11880275E-10    0.29306081E-06
    7   -0.19518308E+03   -0.31263880E-12    0.40354366E-07
    8   -0.19518308E+03    0.00000000E+00    0.65476398E-08

Total Energy:                     -193.2753158160 H        -5259.2889 eV
Extrapolated to 0K:               -193.2753158160 H        -5259.2889 eV
Total Mermin free energy:         -193.2753158160 H        -5259.2889 eV
Force related energy:             -193.2753158160 H        -5259.2889 eV

Volume:                              0.112230E+05 au^3   0.166307E+04 A^3
Pressure:                            0.805320E-09 au     0.236933E+05 Pa
>> Charges saved for restart in charges.bin

total energy  -1.9327532E+02 H       energy change -1.2573281E-06 H
gradient norm  6.6950472E-04 H/a0    max. gradient  1.6383197E-04 H/a0
step length    5.1934287E-03 a0      max. step      9.9349999E-04 a0

--------------------------------------------------------------------------------

***  Geometry step: 169

 iSCC Total electronic   Diff electronic      SCC error    
    1   -0.19518308E+03    0.00000000E+00    0.25026341E-03
    2   -0.19518305E+03    0.36986729E-04    0.86256672E-04
    3   -0.19518305E+03   -0.45888214E-07    0.23151271E-04
    4   -0.19518305E+03   -0.57316640E-08    0.38049676E-05
    5   -0.19518305E+03   -0.12371970E-09    0.66669985E-06
    6   -0.19518305E+03   -0.86686214E-11    0.24508650E-06
    7   -0.19518305E+03   -0.22737368E-12    0.44904347E-07
    8   -0.19518305E+03   -0.28421709E-13    0.66637886E-08

Total Energy:                     -193.2753165038 H        -5259.2890 eV
Extrapolated to 0K:               -193.2753165038 H        -5259.2890 eV
Total Mermin free energy:         -193.2753165038 H        -5259.2890 eV
Force related energy:             -193.2753165038 H        -5259.2890 eV

Volume:                              0.112228E+05 au^3   0.166305E+04 A^3
Pressure:                           -0.185263E-07 au    -0.545061E+06 Pa
>> Charges saved for restart in charges.bin

total energy  -1.9327532E+02 H       energy change -6.8778880E-07 H
gradient norm  5.0329326E-04 H/a0    max. gradient  1.1004232E-04 H/a0
step length    4.9214438E-03 a0      max. step      9.5081611E-04 a0

--------------------------------------------------------------------------------

***  Geometry step: 170

 iSCC Total electronic   Diff electronic      SCC error    
    1   -0.19518305E+03    0.00000000E+00    0.73568329E-04
    2   -0.19518300E+03    0.45628922E-04    0.29040057E-04
    3   -0.19518300E+03   -0.37576910E-08    0.88931248E-05
    4   -0.19518300E+03   -0.61993433E-09    0.12864738E-05
    5   -0.19518300E+03   -0.67359451E-11    0.25391591E-06
    6   -0.19518300E+03   -0.48316906E-12    0.81860640E-07
    7   -0.19518300E+03    0.28421709E-13    0.16309570E-07
    8   -0.19518300E+03   -0.56843419E-13    0.14815158E-08

Total Energy:                     -193.2753167696 H        -5259.2890 eV
Extrapolated to 0K:               -193.2753167696 H        -5259.2890 eV
Total Mermin free energy:         -193.2753167696 H        -5259.2890 eV
Force related energy:             -193.2753167696 H        -5259.2890 eV

Volume:                              0.112228E+05 au^3   0.166305E+04 A^3
Pressure:                           -0.275768E-07 au    -0.811337E+06 Pa
>> Charges saved for restart in charges.bin

total energy  -1.9327532E+02 H       energy change -2.6573218E-07 H
gradient norm  4.7140068E-04 H/a0    max. gradient  1.0065665E-04 H/a0
step length    8.3303406E-04 a0      max. step      2.1471977E-04 a0

--------------------------------------------------------------------------------

***  Geometry step: 171

 iSCC Total electronic   Diff electronic      SCC error    
    1   -0.19518300E+03    0.00000000E+00    0.17095455E-03
    2   -0.19518285E+03    0.15289848E-03    0.76774432E-04
    3   -0.19518285E+03   -0.22567605E-07    0.23634192E-04
    4   -0.19518285E+03   -0.36745007E-08    0.27537667E-05
    5   -0.19518285E+03   -0.57553962E-10    0.82386292E-06
    6   -0.19518285E+03   -0.38937742E-11    0.25110005E-06
    7   -0.19518285E+03    0.28421709E-13    0.46394707E-07
    8   -0.19518285E+03   -0.14210855E-12    0.54730687E-08

Total Energy:                     -193.2753174706 H        -5259.2890 eV
Extrapolated to 0K:               -193.2753174706 H        -5259.2890 eV
Total Mermin free energy:         -193.2753174706 H        -5259.2890 eV
Force related energy:             -193.2753174706 H        -5259.2890 eV

Volume:                              0.112228E+05 au^3   0.166305E+04 A^3
Pressure:                           -0.894762E-07 au    -0.263248E+07 Pa
>> Charges saved for restart in charges.bin

total energy  -1.9327532E+02 H       energy change -7.0103798E-07 H
gradient norm  5.9481288E-04 H/a0    max. gradient  1.4459003E-04 H/a0
step length    2.8037790E-03 a0      max. step      7.6770248E-04 a0

--------------------------------------------------------------------------------

***  Geometry step: 172

 iSCC Total electronic   Diff electronic      SCC error    
    1   -0.19518285E+03    0.00000000E+00    0.14230543E-03
    2   -0.19518279E+03    0.63544066E-04    0.61279520E-04
    3   -0.19518279E+03   -0.19211797E-07    0.18689995E-04
    4   -0.19518279E+03   -0.30230751E-08    0.28420293E-05
    5   -0.19518279E+03   -0.52295945E-10    0.72848077E-06
    6   -0.19518279E+03   -0.44053650E-11    0.25305515E-06
    7   -0.19518279E+03   -0.14210855E-12    0.44780225E-07
    8   -0.19518279E+03    0.00000000E+00    0.53706612E-08

Total Energy:                     -193.2753183815 H        -5259.2890 eV
Extrapolated to 0K:               -193.2753183815 H        -5259.2890 eV
Total Mermin free energy:         -193.2753183815 H        -5259.2890 eV
Force related energy:             -193.2753183815 H        -5259.2890 eV

Volume:                              0.112227E+05 au^3   0.166303E+04 A^3
Pressure:                           -0.955889E-07 au    -0.281232E+07 Pa
>> Charges saved for restart in charges.bin

total energy  -1.9327532E+02 H       energy change -9.1092542E-07 H
gradient norm  7.2281512E-04 H/a0    max. gradient  2.1002086E-04 H/a0
step length    6.0845020E-03 a0      max. step      1.4047225E-03 a0

--------------------------------------------------------------------------------

***  Geometry step: 173

 iSCC Total electronic   Diff electronic      SCC error    
    1   -0.19518279E+03    0.00000000E+00    0.25177117E-03
    2   -0.19518282E+03   -0.38948333E-04    0.88006693E-04
    3   -0.19518282E+03   -0.41737650E-07    0.22292684E-04
    4   -0.19518282E+03   -0.54686780E-08    0.41802403E-05
    5   -0.19518282E+03   -0.96861186E-10    0.43185633E-06
    6   -0.19518282E+03   -0.84128260E-11    0.16094666E-06
    7   -0.19518282E+03   -0.22737368E-12    0.34106052E-07
    8   -0.19518282E+03    0.56843419E-13    0.70950952E-08

Total Energy:                     -193.2753194610 H        -5259.2890 eV
Extrapolated to 0K:               -193.2753194610 H        -5259.2890 eV
Total Mermin free energy:         -193.2753194610 H        -5259.2890 eV
Force related energy:             -193.2753194610 H        -5259.2890 eV

Volume:                              0.112227E+05 au^3   0.166304E+04 A^3
Pressure:                           -0.840854E-07 au    -0.247388E+07 Pa
>> Charges saved for restart in charges.bin

total energy  -1.9327532E+02 H       energy change -1.0794640E-06 H
gradient norm  7.4156152E-04 H/a0    max. gradient  1.9278837E-04 H/a0
step length    1.1175666E-02 a0      max. step      2.3862766E-03 a0

--------------------------------------------------------------------------------

***  Geometry step: 174

 iSCC Total electronic   Diff electronic      SCC error    
    1   -0.19518282E+03    0.00000000E+00    0.13522329E-03
    2   -0.19518291E+03   -0.84564169E-04    0.45920256E-04
    3   -0.19518291E+03   -0.13246421E-07    0.13424022E-04
    4   -0.19518291E+03   -0.18298749E-08    0.16080762E-05
    5   -0.19518291E+03   -0.34447112E-10    0.47399346E-06
    6   -0.19518291E+03   -0.16484591E-11    0.14450576E-06
    7   -0.19518291E+03   -0.85265128E-13    0.20330435E-07
    8   -0.19518291E+03    0.28421709E-13    0.28607245E-08

Total Energy:                     -193.2753200744 H        -5259.2890 eV
Extrapolated to 0K:               -193.2753200744 H        -5259.2890 eV
Total Mermin free energy:         -193.2753200744 H        -5259.2890 eV
Force related energy:             -193.2753200744 H        -5259.2890 eV

Volume:                              0.112227E+05 au^3   0.166303E+04 A^3
Pressure:                           -0.339501E-07 au    -0.998845E+06 Pa
>> Charges saved for restart in charges.bin

total energy  -1.9327532E+02 H       energy change -6.1336291E-07 H
gradient norm  6.1508866E-04 H/a0    max. gradient  1.4801323E-04 H/a0
step length    3.2890237E-03 a0      max. step      6.5611518E-04 a0

--------------------------------------------------------------------------------

***  Geometry step: 175

 iSCC Total electronic   Diff electronic      SCC error    
    1   -0.19518291E+03    0.00000000E+00    0.29435390E-03
    2   -0.19518309E+03   -0.18104515E-03    0.13196746E-03
    3   -0.19518309E+03   -0.49949193E-07    0.41754807E-04
    4   -0.19518309E+03   -0.67997803E-08    0.44430294E-05
    5   -0.19518309E+03   -0.16586910E-09    0.10369768E-05
    6   -0.19518309E+03   -0.10771828E-10    0.37910221E-06
    7   -0.19518309E+03   -0.11368684E-12    0.71293227E-07
    8   -0.19518309E+03   -0.85265128E-13    0.63449401E-08

Total Energy:                     -193.2753210084 H        -5259.2891 eV
Extrapolated to 0K:               -193.2753210084 H        -5259.2891 eV
Total Mermin free energy:         -193.2753210084 H        -5259.2891 eV
Force related energy:             -193.2753210084 H        -5259.2891 eV

Volume:                              0.112236E+05 au^3   0.166317E+04 A^3
Pressure:                           -0.188669E-07 au    -0.555083E+06 Pa
>> Charges saved for restart in charges.bin

total energy  -1.9327532E+02 H       energy change -9.3404623E-07 H
gradient norm  4.8339598E-04 H/a0    max. gradient  1.2230721E-04 H/a0
step length    1.5490210E-02 a0      max. step      3.6089535E-03 a0

--------------------------------------------------------------------------------

***  Geometry step: 176

 iSCC Total electronic   Diff electronic      SCC error    
    1   -0.19518309E+03    0.00000000E+00    0.55117947E-04
    2   -0.19518313E+03   -0.38358269E-04    0.33275258E-04
    3   -0.19518313E+03   -0.28628335E-08    0.97131461E-05
    4   -0.19518313E+03   -0.49726623E-09    0.14771356E-05
    5   -0.19518313E+03   -0.15404567E-10    0.49598734E-06
    6   -0.19518313E+03   -0.68212103E-12    0.13083354E-06
    7   -0.19518313E+03   -0.11368684E-12    0.13434925E-07
    8   -0.19518313E+03    0.85265128E-13    0.15107045E-08

Total Energy:                     -193.2753212065 H        -5259.2891 eV
Extrapolated to 0K:               -193.2753212065 H        -5259.2891 eV
Total Mermin free energy:         -193.2753212065 H        -5259.2891 eV
Force related energy:             -193.2753212065 H        -5259.2891 eV

Volume:                              0.112236E+05 au^3   0.166317E+04 A^3
Pressure:                           -0.125069E-07 au    -0.367966E+06 Pa
>> Charges saved for restart in charges.bin

total energy  -1.9327532E+02 H       energy change -1.9813029E-07 H
gradient norm  3.6772012E-04 H/a0    max. gradient  8.0931707E-05 H/a0
step length    7.0368210E-04 a0      max. step      1.3492847E-04 a0

Geometry converged

--------------------------------------------------------------------------------
DFTB+ running times                          cpu [s]             wall clock [s]
--------------------------------------------------------------------------------
Pre-SCC initialisation                 +      18.22 (  1.1%)       2.39 (  1.2%)
SCC                                    +    1473.78 ( 89.0%)     186.10 ( 90.1%)
Post-SCC processing                    +     163.05 (  9.9%)      17.95 (  8.7%)
--------------------------------------------------------------------------------
Missing                                +       0.04 (  0.0%)       0.01 (  0.0%)
Total                                  =    1655.09 (100.0%)     206.45 (100.0%)
--------------------------------------------------------------------------------
