|===============================================================================
|
|  DFTB+ release 24.1
|
|  Copyright (C) 2006 - 2024  DFTB+ developers group
|
|===============================================================================
|
|  When publishing results obtained with DFTB+, please cite the following
|  reference:
|
|  * DFTB+, a software package for efficient approximate density functional
|    theory based atomistic simulations, J. Chem. Phys. 152, 124101 (2020).
|    [doi: 10.1063/1.5143190]
|
|  You should also cite additional publications crediting the parametrization
|  data you use. Please consult the documentation of the SK-files for the
|  references.
|
|===============================================================================

Reading input file 'dftb_in.hsd'
Parser version: 14

--------------------------------------------------------------------------------
Reading SK-files:
./SKFiles/Si-Si.skf
./SKFiles/Si-Ge.skf
./SKFiles/Si-O.skf
./SKFiles/Ge-Ge.skf
./SKFiles/Ge-O.skf
./SKFiles/O-O.skf
Done.


Processed input in HSD format written to 'dftb_pin.hsd'

Starting initialization...
--------------------------------------------------------------------------------
WARNING!
-> Dipole printed for extended system : value printed is not well defined
MPI processes:               1
OpenMP threads:              8
BLACS orbital grid size:     1 x 1
BLACS atom grid size:        1 x 1
Chosen random seed:          143694804
Current stacksize:           unlimited
Mode:                        Static calculation
Self consistent charges:     Yes
SCC-tolerance:                 0.100000E-07
Max. scc iterations:                    500
Shell resolved Hubbard:      No
Spin polarisation:           No
Nr. of up electrons:           192.000000
Nr. of down electrons:         192.000000
Periodic boundaries:         Yes
Electronic solver:           Relatively robust
Mixer:                       Broyden mixer
Mixing parameter:                  0.200000
Maximal SCC-cycles:                     500
Nr. of chrg. vec. in memory:            500
Electronic temperature:              0.100000E-07 H      0.272114E-06 eV
Initial charges:             Set automatically (system chrg:   0.000E+00)
Included shells:            Si:  s, p, d
                            Ge:  s, p, d
                             O:  s, p
K-points and weights:           1:  0.500000  0.500000  0.500000     1.000000

K-points in absolute space:     1:  0.025319  0.017606  0.037774

Extra options:
                             Mulliken analysis
Force type                   original

--------------------------------------------------------------------------------

***  Geometry step: 0

 iSCC Total electronic   Diff electronic      SCC error    
    1    0.00000000E+00    0.00000000E+00    0.14337768E+01
    2   -0.19732202E+03   -0.19732202E+03    0.98357367E+00
    3   -0.19766519E+03   -0.34316884E+00    0.38393321E-01
    4   -0.19795385E+03   -0.28866284E+00    0.32949623E-01
    5   -0.19795557E+03   -0.17175504E-02    0.49481099E-02
    6   -0.19795569E+03   -0.11935925E-03    0.14769796E-02
    7   -0.19795569E+03   -0.47681620E-05    0.34350699E-03
    8   -0.19795570E+03   -0.71921374E-06    0.54739824E-04
    9   -0.19795570E+03   -0.51466742E-07    0.21009498E-04
   10   -0.19795570E+03   -0.45545789E-09    0.50573870E-05
   11   -0.19795570E+03   -0.85691454E-10    0.37889156E-06
   12   -0.19795570E+03   -0.79012352E-11    0.15187223E-06
   13   -0.19795570E+03   -0.85265128E-13    0.20086587E-07
   14   -0.19795570E+03    0.28421709E-13    0.44271822E-08

Total Energy:                     -190.4256327828 H        -5181.7451 eV
Extrapolated to 0K:               -190.4256327828 H        -5181.7451 eV
Total Mermin free energy:         -190.4256327828 H        -5181.7451 eV
Force related energy:             -190.4256327828 H        -5181.7451 eV

Volume:                              0.913789E+04 au^3   0.135410E+04 A^3
Pressure:                            0.249153E-02 au     0.733034E+11 Pa
>> Charges saved for restart in charges.bin

total energy  -1.9042563E+02 H       energy change -1.9042563E+02 H
gradient norm  2.2366024E+00 H/a0    max. gradient  1.3923681E+00 H/a0
step length    0.0000000E+00 a0      max. step      0.0000000E+00 a0

--------------------------------------------------------------------------------

***  Geometry step: 1

 iSCC Total electronic   Diff electronic      SCC error    
    1   -0.19795570E+03    0.00000000E+00    0.13655520E+00
    2   -0.19727550E+03    0.68019289E+00    0.64029876E-01
    3   -0.19729189E+03   -0.16382648E-01    0.20374866E-01
    4   -0.19729488E+03   -0.29917674E-02    0.28686810E-02
    5   -0.19729495E+03   -0.77886962E-04    0.80067600E-03
    6   -0.19729496E+03   -0.47541695E-05    0.24251303E-03
    7   -0.19729496E+03   -0.15101202E-06    0.38689669E-04
    8   -0.19729496E+03   -0.19897300E-07    0.91479234E-05
    9   -0.19729496E+03   -0.11580994E-08    0.36378282E-05
   10   -0.19729496E+03   -0.22652102E-10    0.97311777E-06
   11   -0.19729496E+03   -0.96633812E-12    0.16080338E-06
   12   -0.19729496E+03   -0.25579538E-12    0.35715003E-07
   13   -0.19729496E+03   -0.28421709E-13    0.38146193E-08

Total Energy:                     -191.1179308639 H        -5200.5835 eV
Extrapolated to 0K:               -191.1179308639 H        -5200.5835 eV
Total Mermin free energy:         -191.1179308639 H        -5200.5835 eV
Force related energy:             -191.1179308639 H        -5200.5835 eV

Volume:                              0.969506E+04 au^3   0.143666E+04 A^3
Pressure:                            0.178909E-02 au     0.526368E+11 Pa
>> Charges saved for restart in charges.bin

total energy  -1.9111793E+02 H       energy change -6.9229808E-01 H
gradient norm  1.4618820E+00 H/a0    max. gradient  2.7887534E-01 H/a0
step length    8.0113005E-01 a0      max. step      4.9873324E-01 a0

--------------------------------------------------------------------------------

***  Geometry step: 2

 iSCC Total electronic   Diff electronic      SCC error    
    1   -0.19729496E+03    0.00000000E+00    0.50000646E-01
    2   -0.19694114E+03    0.35381521E+00    0.26462545E-01
    3   -0.19694453E+03   -0.33813243E-02    0.61632485E-02
    4   -0.19694520E+03   -0.67395364E-03    0.98888870E-03
    5   -0.19694522E+03   -0.19308568E-04    0.23303658E-03
    6   -0.19694522E+03   -0.12486939E-05    0.12064748E-03
    7   -0.19694522E+03   -0.21395579E-07    0.18746687E-04
    8   -0.19694522E+03   -0.24068640E-08    0.21442161E-05
    9   -0.19694522E+03   -0.20986590E-09    0.68989691E-06
   10   -0.19694522E+03   -0.29274361E-11    0.21012551E-06
   11   -0.19694522E+03   -0.11368684E-12    0.30018367E-07
   12   -0.19694522E+03    0.00000000E+00    0.83358924E-08

Total Energy:                     -191.9081749380 H        -5222.0871 eV
Extrapolated to 0K:               -191.9081749380 H        -5222.0871 eV
Total Mermin free energy:         -191.9081749380 H        -5222.0871 eV
Force related energy:             -191.9081749380 H        -5222.0871 eV

Volume:                              0.984312E+04 au^3   0.145860E+04 A^3
Pressure:                            0.132298E-02 au     0.389234E+11 Pa
>> Charges saved for restart in charges.bin

total energy  -1.9190817E+02 H       energy change -7.9024407E-01 H
gradient norm  9.4784889E-01 H/a0    max. gradient  1.8687553E-01 H/a0
step length    7.4449884E-01 a0      max. step      1.2468536E-01 a0

--------------------------------------------------------------------------------

***  Geometry step: 3

 iSCC Total electronic   Diff electronic      SCC error    
    1   -0.19694522E+03    0.00000000E+00    0.76924603E-01
    2   -0.19658095E+03    0.36426860E+00    0.28260333E-01
    3   -0.19658542E+03   -0.44667998E-02    0.88170678E-02
    4   -0.19658619E+03   -0.77126615E-03    0.20109410E-02
    5   -0.19658622E+03   -0.33624576E-04    0.25870017E-03
    6   -0.19658623E+03   -0.19642728E-05    0.12086338E-03
    7   -0.19658623E+03   -0.36216363E-07    0.25202085E-04
    8   -0.19658623E+03   -0.32001708E-08    0.35397667E-05
    9   -0.19658623E+03   -0.36669690E-09    0.70124920E-06
   10   -0.19658623E+03   -0.92370556E-11    0.26545822E-06
   11   -0.19658623E+03   -0.17053026E-12    0.35593465E-07
   12   -0.19658623E+03    0.00000000E+00    0.11630036E-07
   13   -0.19658623E+03   -0.28421709E-13    0.32008214E-08

Total Energy:                     -192.4654377901 H        -5237.2510 eV
Extrapolated to 0K:               -192.4654377901 H        -5237.2510 eV
Total Mermin free energy:         -192.4654377901 H        -5237.2510 eV
Force related energy:             -192.4654377901 H        -5237.2510 eV

Volume:                              0.995308E+04 au^3   0.147490E+04 A^3
Pressure:                            0.954707E-03 au     0.280884E+11 Pa
>> Charges saved for restart in charges.bin

total energy  -1.9246544E+02 H       energy change -5.5726285E-01 H
gradient norm  5.9802856E-01 H/a0    max. gradient  1.2965961E-01 H/a0
step length    7.8821896E-01 a0      max. step      1.4174196E-01 a0

--------------------------------------------------------------------------------

***  Geometry step: 4

 iSCC Total electronic   Diff electronic      SCC error    
    1   -0.19658623E+03    0.00000000E+00    0.60625813E-01
    2   -0.19618752E+03    0.39870481E+00    0.33998939E-01
    3   -0.19619008E+03   -0.25580149E-02    0.67516440E-02
    4   -0.19619069E+03   -0.60690767E-03    0.12434461E-02
    5   -0.19619072E+03   -0.35662815E-04    0.32307921E-03
    6   -0.19619072E+03   -0.17062457E-05    0.84695953E-04
    7   -0.19619072E+03   -0.30490042E-07    0.19866866E-04
    8   -0.19619072E+03   -0.21731523E-08    0.31178901E-05
    9   -0.19619072E+03   -0.28941827E-09    0.75048477E-06
   10   -0.19619072E+03   -0.59969807E-11    0.21807050E-06
   11   -0.19619072E+03   -0.22737368E-12    0.50049471E-07
   12   -0.19619072E+03    0.17053026E-12    0.16971122E-07
   13   -0.19619072E+03   -0.11368684E-12    0.49027156E-08

Total Energy:                     -192.7969942785 H        -5246.2731 eV
Extrapolated to 0K:               -192.7969942785 H        -5246.2731 eV
Total Mermin free energy:         -192.7969942785 H        -5246.2731 eV
Force related energy:             -192.7969942785 H        -5246.2731 eV

Volume:                              0.100814E+05 au^3   0.149392E+04 A^3
Pressure:                            0.661461E-03 au     0.194609E+11 Pa
>> Charges saved for restart in charges.bin

total energy  -1.9279699E+02 H       energy change -3.3155649E-01 H
gradient norm  4.5168445E-01 H/a0    max. gradient  2.1873861E-01 H/a0
step length    7.5066807E-01 a0      max. step      1.3104949E-01 a0

--------------------------------------------------------------------------------

***  Geometry step: 5

 iSCC Total electronic   Diff electronic      SCC error    
    1   -0.19619072E+03    0.00000000E+00    0.64213539E-01
    2   -0.19574381E+03    0.44691185E+00    0.39189903E-01
    3   -0.19574559E+03   -0.17764591E-02    0.74394469E-02
    4   -0.19574606E+03   -0.47351211E-03    0.15453780E-02
    5   -0.19574609E+03   -0.27338478E-04    0.32860507E-03
    6   -0.19574609E+03   -0.85949196E-06    0.11365479E-03
    7   -0.19574609E+03   -0.17914772E-07    0.38010498E-04
    8   -0.19574609E+03   -0.12981047E-08    0.84195025E-05
    9   -0.19574609E+03   -0.18400215E-09    0.21245206E-05
   10   -0.19574609E+03   -0.74749096E-11    0.20162103E-06
   11   -0.19574609E+03   -0.45474735E-12    0.38165461E-07
   12   -0.19574609E+03    0.28421709E-13    0.12536108E-07
   13   -0.19574609E+03    0.28421709E-13    0.23092173E-08

Total Energy:                     -192.9952827616 H        -5251.6688 eV
Extrapolated to 0K:               -192.9952827616 H        -5251.6688 eV
Total Mermin free energy:         -192.9952827616 H        -5251.6688 eV
Force related energy:             -192.9952827616 H        -5251.6688 eV

Volume:                              0.102801E+05 au^3   0.152335E+04 A^3
Pressure:                            0.397944E-03 au     0.117079E+11 Pa
>> Charges saved for restart in charges.bin

total energy  -1.9299528E+02 H       energy change -1.9828848E-01 H
gradient norm  3.1609107E-01 H/a0    max. gradient  1.5242866E-01 H/a0
step length    7.2001701E-01 a0      max. step      2.2772187E-01 a0

--------------------------------------------------------------------------------

***  Geometry step: 6

 iSCC Total electronic   Diff electronic      SCC error    
    1   -0.19574609E+03    0.00000000E+00    0.56276324E-01
    2   -0.19541324E+03    0.33285000E+00    0.31153673E-01
    3   -0.19541494E+03   -0.16986365E-02    0.37927224E-02
    4   -0.19541533E+03   -0.38784714E-03    0.10445245E-02
    5   -0.19541534E+03   -0.16155857E-04    0.20083303E-03
    6   -0.19541534E+03   -0.65633176E-06    0.85933049E-04
    7   -0.19541534E+03   -0.92304333E-08    0.23216517E-04
    8   -0.19541534E+03   -0.67436190E-09    0.54219547E-05
    9   -0.19541534E+03   -0.96832764E-10    0.15026721E-05
   10   -0.19541534E+03   -0.39506176E-11    0.16813424E-06
   11   -0.19541534E+03   -0.11368684E-12    0.32080623E-07
   12   -0.19541534E+03   -0.56843419E-13    0.99819744E-08

Total Energy:                     -193.0859044838 H        -5254.1348 eV
Extrapolated to 0K:               -193.0859044838 H        -5254.1348 eV
Total Mermin free energy:         -193.0859044838 H        -5254.1348 eV
Force related energy:             -193.0859044838 H        -5254.1348 eV

Volume:                              0.104198E+05 au^3   0.154406E+04 A^3
Pressure:                            0.223509E-03 au     0.657587E+10 Pa
>> Charges saved for restart in charges.bin

total energy  -1.9308590E+02 H       energy change -9.0621722E-02 H
gradient norm  1.9808843E-01 H/a0    max. gradient  1.0814406E-01 H/a0
step length    5.9029206E-01 a0      max. step      1.0845953E-01 a0

--------------------------------------------------------------------------------

***  Geometry step: 7

 iSCC Total electronic   Diff electronic      SCC error    
    1   -0.19541534E+03    0.00000000E+00    0.39706652E-01
    2   -0.19521157E+03    0.20376795E+00    0.20660351E-01
    3   -0.19521257E+03   -0.99904106E-03    0.36107157E-02
    4   -0.19521276E+03   -0.18821742E-03    0.51861257E-03
    5   -0.19521277E+03   -0.71553146E-05    0.17172619E-03
    6   -0.19521277E+03   -0.30946896E-06    0.65798101E-04
    7   -0.19521277E+03   -0.64982544E-08    0.18104358E-04
    8   -0.19521277E+03   -0.41197268E-09    0.42092309E-05
    9   -0.19521277E+03   -0.44678927E-10    0.12796714E-05
   10   -0.19521277E+03   -0.31832315E-11    0.16431409E-06
   11   -0.19521277E+03   -0.14210855E-12    0.18491405E-07
   12   -0.19521277E+03   -0.56843419E-13    0.47129518E-08

Total Energy:                     -193.1205311024 H        -5255.0770 eV
Extrapolated to 0K:               -193.1205311024 H        -5255.0770 eV
Total Mermin free energy:         -193.1205311024 H        -5255.0770 eV
Force related energy:             -193.1205311024 H        -5255.0770 eV

Volume:                              0.105055E+05 au^3   0.155676E+04 A^3
Pressure:                            0.134021E-03 au     0.394305E+10 Pa
>> Charges saved for restart in charges.bin

total energy  -1.9312053E+02 H       energy change -3.4626619E-02 H
gradient norm  1.5472566E-01 H/a0    max. gradient  8.3615826E-02 H/a0
step length    4.4341705E-01 a0      max. step      9.0687046E-02 a0

--------------------------------------------------------------------------------

***  Geometry step: 8

 iSCC Total electronic   Diff electronic      SCC error    
    1   -0.19521277E+03    0.00000000E+00    0.19836493E-01
    2   -0.19510899E+03    0.10377475E+00    0.10149681E-01
    3   -0.19510930E+03   -0.30507385E-03    0.17560816E-02
    4   -0.19510936E+03   -0.61444869E-04    0.47528205E-03
    5   -0.19510936E+03   -0.16972173E-05    0.13276307E-03
    6   -0.19510936E+03   -0.88553236E-07    0.40412956E-04
    7   -0.19510936E+03   -0.51278732E-08    0.13155360E-04
    8   -0.19510936E+03   -0.20131097E-09    0.31173566E-05
    9   -0.19510936E+03   -0.15148771E-10    0.73628186E-06
   10   -0.19510936E+03   -0.18474111E-11    0.10831931E-06
   11   -0.19510936E+03   -0.14210855E-12    0.17323631E-07
   12   -0.19510936E+03   -0.28421709E-13    0.34581666E-08

Total Energy:                     -193.1401557852 H        -5255.6110 eV
Extrapolated to 0K:               -193.1401557852 H        -5255.6110 eV
Total Mermin free energy:         -193.1401557852 H        -5255.6110 eV
Force related energy:             -193.1401557852 H        -5255.6110 eV

Volume:                              0.105598E+05 au^3   0.156480E+04 A^3
Pressure:                            0.798001E-04 au     0.234780E+10 Pa
>> Charges saved for restart in charges.bin

total energy  -1.9314016E+02 H       energy change -1.9624683E-02 H
gradient norm  1.1195895E-01 H/a0    max. gradient  2.8055922E-02 H/a0
step length    3.2622894E-01 a0      max. step      7.0437172E-02 a0

--------------------------------------------------------------------------------

***  Geometry step: 9

 iSCC Total electronic   Diff electronic      SCC error    
    1   -0.19510936E+03    0.00000000E+00    0.17929479E-01
    2   -0.19510016E+03    0.92038302E-02    0.10640169E-01
    3   -0.19510048E+03   -0.32184528E-03    0.31436199E-02
    4   -0.19510053E+03   -0.53196443E-04    0.44396182E-03
    5   -0.19510054E+03   -0.17656549E-05    0.50774598E-04
    6   -0.19510054E+03   -0.20969802E-06    0.16747255E-04
    7   -0.19510054E+03   -0.29232865E-08    0.46952017E-05
    8   -0.19510054E+03   -0.11800694E-09    0.12626424E-05
    9   -0.19510054E+03   -0.63948846E-11    0.25919727E-06
   10   -0.19510054E+03   -0.68212103E-12    0.75226762E-07
   11   -0.19510054E+03   -0.85265128E-13    0.17099849E-07
   12   -0.19510054E+03    0.85265128E-13    0.18686377E-08

Total Energy:                     -193.1578458051 H        -5256.0924 eV
Extrapolated to 0K:               -193.1578458051 H        -5256.0924 eV
Total Mermin free energy:         -193.1578458051 H        -5256.0924 eV
Force related energy:             -193.1578458051 H        -5256.0924 eV

Volume:                              0.105780E+05 au^3   0.156750E+04 A^3
Pressure:                            0.642274E-04 au     0.188963E+10 Pa
>> Charges saved for restart in charges.bin

total energy  -1.9315785E+02 H       energy change -1.7690020E-02 H
gradient norm  1.0135600E-01 H/a0    max. gradient  2.2835490E-02 H/a0
step length    3.1010835E-01 a0      max. step      5.7020766E-02 a0

--------------------------------------------------------------------------------

***  Geometry step: 10

 iSCC Total electronic   Diff electronic      SCC error    
    1   -0.19510054E+03    0.00000000E+00    0.30260792E-01
    2   -0.19513935E+03   -0.38818158E-01    0.17934239E-01
    3   -0.19513996E+03   -0.60901870E-03    0.32415897E-02
    4   -0.19514009E+03   -0.12757444E-03    0.38092307E-03
    5   -0.19514010E+03   -0.66388915E-05    0.77452254E-04
    6   -0.19514010E+03   -0.19914373E-06    0.28799117E-04
    7   -0.19514010E+03   -0.42950035E-08    0.59789507E-05
    8   -0.19514010E+03   -0.19406343E-09    0.19949055E-05
    9   -0.19514010E+03   -0.17507773E-10    0.65495930E-06
   10   -0.19514010E+03   -0.14779289E-11    0.17492791E-06
   11   -0.19514010E+03   -0.28421709E-13    0.24159116E-07
   12   -0.19514010E+03    0.00000000E+00    0.43792410E-08

Total Energy:                     -193.1790973324 H        -5256.6707 eV
Extrapolated to 0K:               -193.1790973324 H        -5256.6707 eV
Total Mermin free energy:         -193.1790973324 H        -5256.6707 eV
Force related energy:             -193.1790973324 H        -5256.6707 eV

Volume:                              0.105965E+05 au^3   0.157024E+04 A^3
Pressure:                            0.681907E-04 au     0.200624E+10 Pa
>> Charges saved for restart in charges.bin

total energy  -1.9317910E+02 H       energy change -2.1251527E-02 H
gradient norm  1.1053777E-01 H/a0    max. gradient  4.7451591E-02 H/a0
step length    4.4743557E-01 a0      max. step      7.2685757E-02 a0

--------------------------------------------------------------------------------

***  Geometry step: 11

 iSCC Total electronic   Diff electronic      SCC error    
    1   -0.19514010E+03    0.00000000E+00    0.26728609E-01
    2   -0.19518389E+03   -0.43793344E-01    0.14681641E-01
    3   -0.19518437E+03   -0.48197347E-03    0.26752966E-02
    4   -0.19518448E+03   -0.10669574E-03    0.46520334E-03
    5   -0.19518448E+03   -0.50571632E-05    0.78583901E-04
    6   -0.19518449E+03   -0.26197247E-06    0.23594455E-04
    7   -0.19518449E+03   -0.51829261E-08    0.53849822E-05
    8   -0.19518449E+03   -0.14418333E-09    0.11915729E-05
    9   -0.19518449E+03   -0.16285640E-10    0.21374003E-06
   10   -0.19518449E+03   -0.15916157E-11    0.61135865E-07
   11   -0.19518449E+03   -0.28421709E-13    0.79584379E-08

Total Energy:                     -193.1934842440 H        -5257.0622 eV
Extrapolated to 0K:               -193.1934842440 H        -5257.0622 eV
Total Mermin free energy:         -193.1934842440 H        -5257.0622 eV
Force related energy:             -193.1934842440 H        -5257.0622 eV

Volume:                              0.106099E+05 au^3   0.157223E+04 A^3
Pressure:                            0.749050E-04 au     0.220378E+10 Pa
>> Charges saved for restart in charges.bin

total energy  -1.9319348E+02 H       energy change -1.4386912E-02 H
gradient norm  8.9686794E-02 H/a0    max. gradient  2.3689653E-02 H/a0
step length    3.8117422E-01 a0      max. step      5.5708789E-02 a0

--------------------------------------------------------------------------------

***  Geometry step: 12

 iSCC Total electronic   Diff electronic      SCC error    
    1   -0.19518449E+03    0.00000000E+00    0.22129665E-01
    2   -0.19520551E+03   -0.21024980E-01    0.13206484E-01
    3   -0.19520570E+03   -0.19083759E-03    0.15002874E-02
    4   -0.19520575E+03   -0.51318523E-04    0.26525076E-03
    5   -0.19520575E+03   -0.25220142E-05    0.45732265E-04
    6   -0.19520575E+03   -0.37535330E-07    0.13627813E-04
    7   -0.19520575E+03   -0.10528538E-08    0.33673125E-05
    8   -0.19520575E+03   -0.32883918E-10    0.70089913E-06
    9   -0.19520575E+03   -0.29842795E-11    0.12064412E-06
   10   -0.19520575E+03   -0.39790393E-12    0.37419635E-07
   11   -0.19520575E+03    0.56843419E-13    0.65027383E-08

Total Energy:                     -193.2044547549 H        -5257.3607 eV
Extrapolated to 0K:               -193.2044547549 H        -5257.3607 eV
Total Mermin free energy:         -193.2044547549 H        -5257.3607 eV
Force related energy:             -193.2044547549 H        -5257.3607 eV

Volume:                              0.106369E+05 au^3   0.157623E+04 A^3
Pressure:                            0.734281E-04 au     0.216033E+10 Pa
>> Charges saved for restart in charges.bin

total energy  -1.9320445E+02 H       energy change -1.0970511E-02 H
gradient norm  7.2741597E-02 H/a0    max. gradient  1.7522345E-02 H/a0
step length    3.2769373E-01 a0      max. step      5.6176483E-02 a0

--------------------------------------------------------------------------------

***  Geometry step: 13

 iSCC Total electronic   Diff electronic      SCC error    
    1   -0.19520575E+03    0.00000000E+00    0.22943121E-01
    2   -0.19521243E+03   -0.66753599E-02    0.13310250E-01
    3   -0.19521259E+03   -0.16015143E-03    0.16222253E-02
    4   -0.19521264E+03   -0.46898278E-04    0.30063300E-03
    5   -0.19521264E+03   -0.20190354E-05    0.33810265E-04
    6   -0.19521264E+03   -0.39399026E-07    0.94222636E-05
    7   -0.19521264E+03   -0.49178084E-09    0.33068756E-05
    8   -0.19521264E+03   -0.22907898E-10    0.81332913E-06
    9   -0.19521264E+03   -0.17337243E-11    0.20032382E-06
   10   -0.19521264E+03   -0.14210855E-12    0.41203954E-07
   11   -0.19521264E+03   -0.56843419E-13    0.47124260E-08

Total Energy:                     -193.2139186507 H        -5257.6182 eV
Extrapolated to 0K:               -193.2139186507 H        -5257.6182 eV
Total Mermin free energy:         -193.2139186507 H        -5257.6182 eV
Force related energy:             -193.2139186507 H        -5257.6182 eV

Volume:                              0.106787E+05 au^3   0.158242E+04 A^3
Pressure:                            0.666736E-04 au     0.196160E+10 Pa
>> Charges saved for restart in charges.bin

total energy  -1.9321392E+02 H       energy change -9.4638957E-03 H
gradient norm  6.3470695E-02 H/a0    max. gradient  1.3781573E-02 H/a0
step length    3.2024477E-01 a0      max. step      6.0891566E-02 a0

--------------------------------------------------------------------------------

***  Geometry step: 14

 iSCC Total electronic   Diff electronic      SCC error    
    1   -0.19521264E+03    0.00000000E+00    0.15467454E-01
    2   -0.19519819E+03    0.14450817E-01    0.88033719E-02
    3   -0.19519828E+03   -0.91527005E-04    0.11769615E-02
    4   -0.19519830E+03   -0.24626007E-04    0.22800531E-03
    5   -0.19519831E+03   -0.10568661E-05    0.31330204E-04
    6   -0.19519831E+03   -0.47086274E-07    0.61505950E-05
    7   -0.19519831E+03   -0.89366381E-09    0.21631526E-05
    8   -0.19519831E+03   -0.15944579E-10    0.65548447E-06
    9   -0.19519831E+03   -0.10516032E-11    0.15750644E-06
   10   -0.19519831E+03   -0.85265128E-13    0.41383507E-07
   11   -0.19519831E+03    0.00000000E+00    0.50761986E-08

Total Energy:                     -193.2200171062 H        -5257.7842 eV
Extrapolated to 0K:               -193.2200171062 H        -5257.7842 eV
Total Mermin free energy:         -193.2200171062 H        -5257.7842 eV
Force related energy:             -193.2200171062 H        -5257.7842 eV

Volume:                              0.107264E+05 au^3   0.158949E+04 A^3
Pressure:                            0.554106E-04 au     0.163024E+10 Pa
>> Charges saved for restart in charges.bin

total energy  -1.9322002E+02 H       energy change -6.0984556E-03 H
gradient norm  5.5890962E-02 H/a0    max. gradient  1.1209350E-02 H/a0
step length    2.5562123E-01 a0      max. step      4.9692448E-02 a0

--------------------------------------------------------------------------------

***  Geometry step: 15

 iSCC Total electronic   Diff electronic      SCC error    
    1   -0.19519831E+03    0.00000000E+00    0.91850903E-02
    2   -0.19517252E+03    0.25788407E-01    0.53358592E-02
    3   -0.19517256E+03   -0.45823105E-04    0.82135339E-03
    4   -0.19517257E+03   -0.10882853E-04    0.13614602E-03
    5   -0.19517257E+03   -0.51397703E-06    0.20059929E-04
    6   -0.19517257E+03   -0.25065731E-07    0.80292957E-05
    7   -0.19517257E+03   -0.51613824E-09    0.29397884E-05
    8   -0.19517257E+03   -0.10430767E-10    0.82481967E-06
    9   -0.19517257E+03   -0.10516032E-11    0.19744329E-06
   10   -0.19517257E+03   -0.14210855E-12    0.28926467E-07
   11   -0.19517257E+03    0.00000000E+00    0.46255950E-08

Total Energy:                     -193.2244201818 H        -5257.9040 eV
Extrapolated to 0K:               -193.2244201818 H        -5257.9040 eV
Total Mermin free energy:         -193.2244201818 H        -5257.9040 eV
Force related energy:             -193.2244201818 H        -5257.9040 eV

Volume:                              0.107748E+05 au^3   0.159666E+04 A^3
Pressure:                            0.409052E-04 au     0.120347E+10 Pa
>> Charges saved for restart in charges.bin

total energy  -1.9322442E+02 H       energy change -4.4030756E-03 H
gradient norm  4.8380556E-02 H/a0    max. gradient  8.4381750E-03 H/a0
step length    2.2510756E-01 a0      max. step      4.3113282E-02 a0

--------------------------------------------------------------------------------

***  Geometry step: 16

 iSCC Total electronic   Diff electronic      SCC error    
    1   -0.19517257E+03    0.00000000E+00    0.76447597E-02
    2   -0.19514788E+03    0.24696459E-01    0.42994642E-02
    3   -0.19514791E+03   -0.31299088E-04    0.87391229E-03
    4   -0.19514791E+03   -0.55286449E-05    0.15197881E-03
    5   -0.19514792E+03   -0.28651078E-06    0.52932102E-04
    6   -0.19514792E+03   -0.17336191E-07    0.17294766E-04
    7   -0.19514792E+03   -0.42928150E-09    0.34488618E-05
    8   -0.19514792E+03   -0.21742608E-10    0.59001896E-06
    9   -0.19514792E+03   -0.21032065E-11    0.20950658E-06
   10   -0.19514792E+03   -0.11368684E-12    0.29299037E-07
   11   -0.19514792E+03    0.28421709E-13    0.43936392E-08

Total Energy:                     -193.2284915339 H        -5258.0148 eV
Extrapolated to 0K:               -193.2284915339 H        -5258.0148 eV
Total Mermin free energy:         -193.2284915339 H        -5258.0148 eV
Force related energy:             -193.2284915339 H        -5258.0148 eV

Volume:                              0.108203E+05 au^3   0.160340E+04 A^3
Pressure:                            0.266265E-04 au     0.783378E+09 Pa
>> Charges saved for restart in charges.bin

total energy  -1.9322849E+02 H       energy change -4.0713521E-03 H
gradient norm  4.8106644E-02 H/a0    max. gradient  8.5947865E-03 H/a0
step length    2.1681843E-01 a0      max. step      4.3343026E-02 a0

--------------------------------------------------------------------------------

***  Geometry step: 17

 iSCC Total electronic   Diff electronic      SCC error    
    1   -0.19514792E+03    0.00000000E+00    0.10607697E-01
    2   -0.19513756E+03    0.10359177E-01    0.59102580E-02
    3   -0.19513761E+03   -0.53821301E-04    0.13767983E-02
    4   -0.19513762E+03   -0.90050728E-05    0.24483089E-03
    5   -0.19513762E+03   -0.43633980E-06    0.90078913E-04
    6   -0.19513762E+03   -0.29441168E-07    0.25389820E-04
    7   -0.19513762E+03   -0.96324015E-09    0.40531406E-05
    8   -0.19513762E+03   -0.58747673E-10    0.84632269E-06
    9   -0.19513762E+03   -0.37800874E-11    0.12531596E-06
   10   -0.19513762E+03   -0.39790393E-12    0.24773759E-07
   11   -0.19513762E+03   -0.85265128E-13    0.43514081E-08

Total Energy:                     -193.2332861465 H        -5258.1452 eV
Extrapolated to 0K:               -193.2332861465 H        -5258.1452 eV
Total Mermin free energy:         -193.2332861465 H        -5258.1452 eV
Force related energy:             -193.2332861465 H        -5258.1452 eV

Volume:                              0.108651E+05 au^3   0.161004E+04 A^3
Pressure:                            0.176251E-04 au     0.518547E+09 Pa
>> Charges saved for restart in charges.bin

total energy  -1.9323329E+02 H       energy change -4.7946126E-03 H
gradient norm  5.4857007E-02 H/a0    max. gradient  1.3769441E-02 H/a0
step length    2.6929915E-01 a0      max. step      5.1751986E-02 a0

--------------------------------------------------------------------------------

***  Geometry step: 18

 iSCC Total electronic   Diff electronic      SCC error    
    1   -0.19513762E+03    0.00000000E+00    0.14285212E-01
    2   -0.19514527E+03   -0.76498193E-02    0.81126121E-02
    3   -0.19514535E+03   -0.79223581E-04    0.22265882E-02
    4   -0.19514536E+03   -0.12088705E-04    0.34267259E-03
    5   -0.19514536E+03   -0.66673411E-06    0.11068936E-03
    6   -0.19514536E+03   -0.41097081E-07    0.32635257E-04
    7   -0.19514536E+03   -0.13561987E-08    0.51779467E-05
    8   -0.19514536E+03   -0.82820861E-10    0.12453164E-05
    9   -0.19514536E+03   -0.55138116E-11    0.24347695E-06
   10   -0.19514536E+03   -0.45474735E-12    0.34896821E-07
   11   -0.19514536E+03   -0.85265128E-13    0.56470619E-08

Total Energy:                     -193.2381977219 H        -5258.2789 eV
Extrapolated to 0K:               -193.2381977219 H        -5258.2789 eV
Total Mermin free energy:         -193.2381977219 H        -5258.2789 eV
Force related energy:             -193.2381977219 H        -5258.2789 eV

Volume:                              0.109022E+05 au^3   0.161555E+04 A^3
Pressure:                            0.171044E-04 au     0.503230E+09 Pa
>> Charges saved for restart in charges.bin

total energy  -1.9323820E+02 H       energy change -4.9115754E-03 H
gradient norm  5.5784727E-02 H/a0    max. gradient  1.4346027E-02 H/a0
step length    2.9278923E-01 a0      max. step      5.0858579E-02 a0

--------------------------------------------------------------------------------

***  Geometry step: 19

 iSCC Total electronic   Diff electronic      SCC error    
    1   -0.19514536E+03    0.00000000E+00    0.15339429E-01
    2   -0.19516254E+03   -0.17181540E-01    0.90255732E-02
    3   -0.19516266E+03   -0.11889896E-03    0.27907709E-02
    4   -0.19516268E+03   -0.16592108E-04    0.37541771E-03
    5   -0.19516268E+03   -0.82971235E-06    0.11251389E-03
    6   -0.19516268E+03   -0.57568201E-07    0.37568212E-04
    7   -0.19516268E+03   -0.18534081E-08    0.70854009E-05
    8   -0.19516268E+03   -0.90665253E-10    0.17290717E-05
    9   -0.19516268E+03   -0.77875484E-11    0.30025182E-06
   10   -0.19516268E+03   -0.79580786E-12    0.45796999E-07
   11   -0.19516268E+03    0.56843419E-13    0.61258763E-08

Total Energy:                     -193.2429404470 H        -5258.4080 eV
Extrapolated to 0K:               -193.2429404470 H        -5258.4080 eV
Total Mermin free energy:         -193.2429404470 H        -5258.4080 eV
Force related energy:             -193.2429404470 H        -5258.4080 eV

Volume:                              0.109367E+05 au^3   0.162065E+04 A^3
Pressure:                            0.200547E-04 au     0.590030E+09 Pa
>> Charges saved for restart in charges.bin

total energy  -1.9324294E+02 H       energy change -4.7427251E-03 H
gradient norm  4.8636462E-02 H/a0    max. gradient  9.7209727E-03 H/a0
step length    3.1872307E-01 a0      max. step      5.8041170E-02 a0

--------------------------------------------------------------------------------

***  Geometry step: 20

 iSCC Total electronic   Diff electronic      SCC error    
    1   -0.19516268E+03    0.00000000E+00    0.10966520E-01
    2   -0.19518038E+03   -0.17697033E-01    0.63064713E-02
    3   -0.19518049E+03   -0.11371098E-03    0.20220472E-02
    4   -0.19518050E+03   -0.13689622E-04    0.28079978E-03
    5   -0.19518050E+03   -0.66545320E-06    0.92295051E-04
    6   -0.19518050E+03   -0.42822876E-07    0.32092098E-04
    7   -0.19518050E+03   -0.12351791E-08    0.61891732E-05
    8   -0.19518050E+03   -0.60538241E-10    0.14735285E-05
    9   -0.19518050E+03   -0.54001248E-11    0.35271079E-06
   10   -0.19518050E+03   -0.54001248E-12    0.51782038E-07
   11   -0.19518050E+03   -0.56843419E-13    0.59679355E-08

Total Energy:                     -193.2468259481 H        -5258.5137 eV
Extrapolated to 0K:               -193.2468259481 H        -5258.5137 eV
Total Mermin free energy:         -193.2468259481 H        -5258.5137 eV
Force related energy:             -193.2468259481 H        -5258.5137 eV

Volume:                              0.109695E+05 au^3   0.162551E+04 A^3
Pressure:                            0.236406E-04 au     0.695531E+09 Pa
>> Charges saved for restart in charges.bin

total energy  -1.9324683E+02 H       energy change -3.8855011E-03 H
gradient norm  3.9846754E-02 H/a0    max. gradient  7.9408350E-03 H/a0
step length    3.0259867E-01 a0      max. step      5.5952585E-02 a0

--------------------------------------------------------------------------------

***  Geometry step: 21

 iSCC Total electronic   Diff electronic      SCC error    
    1   -0.19518050E+03    0.00000000E+00    0.89132201E-02
    2   -0.19519027E+03   -0.97620644E-02    0.49929230E-02
    3   -0.19519035E+03   -0.86072416E-04    0.15373399E-02
    4   -0.19519036E+03   -0.10290202E-04    0.22596500E-03
    5   -0.19519036E+03   -0.55983347E-06    0.75937868E-04
    6   -0.19519036E+03   -0.30097766E-07    0.26835076E-04
    7   -0.19519036E+03   -0.70585315E-09    0.46567637E-05
    8   -0.19519036E+03   -0.37232439E-10    0.10206196E-05
    9   -0.19519036E+03   -0.33821834E-11    0.25268617E-06
   10   -0.19519036E+03   -0.34106051E-12    0.32668792E-07
   11   -0.19519036E+03    0.56843419E-13    0.76540472E-08

Total Energy:                     -193.2499191048 H        -5258.5979 eV
Extrapolated to 0K:               -193.2499191048 H        -5258.5979 eV
Total Mermin free energy:         -193.2499191048 H        -5258.5979 eV
Force related energy:             -193.2499191048 H        -5258.5979 eV

Volume:                              0.110050E+05 au^3   0.163078E+04 A^3
Pressure:                            0.238290E-04 au     0.701072E+09 Pa
>> Charges saved for restart in charges.bin

total energy  -1.9324992E+02 H       energy change -3.0931567E-03 H
gradient norm  3.5862521E-02 H/a0    max. gradient  8.3464362E-03 H/a0
step length    2.8037655E-01 a0      max. step      5.3368371E-02 a0

--------------------------------------------------------------------------------

***  Geometry step: 22

 iSCC Total electronic   Diff electronic      SCC error    
    1   -0.19519036E+03    0.00000000E+00    0.10181221E-01
    2   -0.19519015E+03    0.21048469E-03    0.56834182E-02
    3   -0.19519021E+03   -0.54370970E-04    0.12115072E-02
    4   -0.19519022E+03   -0.89043293E-05    0.14515740E-03
    5   -0.19519022E+03   -0.45677282E-06    0.48871146E-04
    6   -0.19519022E+03   -0.22528582E-07    0.18682734E-04
    7   -0.19519022E+03   -0.58420824E-09    0.50220458E-05
    8   -0.19519022E+03   -0.19412028E-10    0.11938716E-05
    9   -0.19519022E+03   -0.17905677E-11    0.15866268E-06
   10   -0.19519022E+03   -0.14210855E-12    0.23158753E-07
   11   -0.19519022E+03   -0.85265128E-13    0.58744556E-08

Total Energy:                     -193.2520610747 H        -5258.6561 eV
Extrapolated to 0K:               -193.2520610747 H        -5258.6561 eV
Total Mermin free energy:         -193.2520610747 H        -5258.6561 eV
Force related energy:             -193.2520610747 H        -5258.6561 eV

Volume:                              0.110397E+05 au^3   0.163591E+04 A^3
Pressure:                            0.211713E-04 au     0.622880E+09 Pa
>> Charges saved for restart in charges.bin

total energy  -1.9325206E+02 H       energy change -2.1419699E-03 H
gradient norm  3.4847789E-02 H/a0    max. gradient  8.6625294E-03 H/a0
step length    2.2388557E-01 a0      max. step      4.2988019E-02 a0

--------------------------------------------------------------------------------

***  Geometry step: 23

 iSCC Total electronic   Diff electronic      SCC error    
    1   -0.19519022E+03    0.00000000E+00    0.66528414E-02
    2   -0.19518243E+03    0.77864288E-02    0.36521695E-02
    3   -0.19518245E+03   -0.22900207E-04    0.74363787E-03
    4   -0.19518246E+03   -0.49306545E-05    0.10183886E-03
    5   -0.19518246E+03   -0.20768269E-06    0.27855093E-04
    6   -0.19518246E+03   -0.85692022E-08    0.93974025E-05
    7   -0.19518246E+03   -0.29925218E-09    0.31252163E-05
    8   -0.19518246E+03   -0.57127636E-11    0.62809333E-06
    9   -0.19518246E+03   -0.68212103E-12    0.94851763E-07
   10   -0.19518246E+03   -0.85265128E-13    0.15426255E-07
   11   -0.19518246E+03   -0.56843419E-13    0.19553044E-08

Total Energy:                     -193.2533597668 H        -5258.6915 eV
Extrapolated to 0K:               -193.2533597668 H        -5258.6915 eV
Total Mermin free energy:         -193.2533597668 H        -5258.6915 eV
Force related energy:             -193.2533597668 H        -5258.6915 eV

Volume:                              0.110662E+05 au^3   0.163985E+04 A^3
Pressure:                            0.167658E-04 au     0.493267E+09 Pa
>> Charges saved for restart in charges.bin

total energy  -1.9325336E+02 H       energy change -1.2986921E-03 H
gradient norm  2.6875879E-02 H/a0    max. gradient  8.0636974E-03 H/a0
step length    1.3418235E-01 a0      max. step      2.3522146E-02 a0

--------------------------------------------------------------------------------

***  Geometry step: 24

 iSCC Total electronic   Diff electronic      SCC error    
    1   -0.19518246E+03    0.00000000E+00    0.62716574E-02
    2   -0.19517255E+03    0.99072709E-02    0.35889558E-02
    3   -0.19517257E+03   -0.20121154E-04    0.86543625E-03
    4   -0.19517257E+03   -0.36176224E-05    0.98400220E-04
    5   -0.19517257E+03   -0.14076932E-06    0.17851315E-04
    6   -0.19517257E+03   -0.69276780E-08    0.62066815E-05
    7   -0.19517257E+03   -0.12406076E-09    0.21697173E-05
    8   -0.19517257E+03   -0.33537617E-11    0.42236237E-06
    9   -0.19517257E+03   -0.36948222E-12    0.81400470E-07
   10   -0.19517257E+03   -0.85265128E-13    0.11374158E-07
   11   -0.19517257E+03   -0.28421709E-13    0.18794988E-08

Total Energy:                     -193.2542908947 H        -5258.7168 eV
Extrapolated to 0K:               -193.2542908947 H        -5258.7168 eV
Total Mermin free energy:         -193.2542908947 H        -5258.7168 eV
Force related energy:             -193.2542908947 H        -5258.7168 eV

Volume:                              0.110878E+05 au^3   0.164305E+04 A^3
Pressure:                            0.115378E-04 au     0.339454E+09 Pa
>> Charges saved for restart in charges.bin

total energy  -1.9325429E+02 H       energy change -9.3112794E-04 H
gradient norm  2.0818445E-02 H/a0    max. gradient  6.4577107E-03 H/a0
step length    9.1851195E-02 a0      max. step      2.0052940E-02 a0

--------------------------------------------------------------------------------

***  Geometry step: 25

 iSCC Total electronic   Diff electronic      SCC error    
    1   -0.19517257E+03    0.00000000E+00    0.39917772E-02
    2   -0.19516929E+03    0.32836536E-02    0.16937947E-02
    3   -0.19516931E+03   -0.15210057E-04    0.58410143E-03
    4   -0.19516931E+03   -0.18597638E-05    0.65360496E-04
    5   -0.19516931E+03   -0.55929206E-07    0.17811444E-04
    6   -0.19516931E+03   -0.33826666E-08    0.67096385E-05
    7   -0.19516931E+03   -0.51585403E-10    0.14517668E-05
    8   -0.19516931E+03   -0.26716407E-11    0.32295433E-06
    9   -0.19516931E+03   -0.17053026E-12    0.73660944E-07
   10   -0.19516931E+03   -0.85265128E-13    0.16359595E-07
   11   -0.19516931E+03    0.56843419E-13    0.20237509E-08

Total Energy:                     -193.2549396377 H        -5258.7345 eV
Extrapolated to 0K:               -193.2549396377 H        -5258.7345 eV
Total Mermin free energy:         -193.2549396377 H        -5258.7345 eV
Force related energy:             -193.2549396377 H        -5258.7345 eV

Volume:                              0.111019E+05 au^3   0.164513E+04 A^3
Pressure:                            0.914699E-05 au     0.269114E+09 Pa
>> Charges saved for restart in charges.bin

total energy  -1.9325494E+02 H       energy change -6.4874294E-04 H
gradient norm  2.2082211E-02 H/a0    max. gradient  6.5648644E-03 H/a0
step length    6.8901480E-02 a0      max. step      2.0768332E-02 a0

--------------------------------------------------------------------------------

***  Geometry step: 26

 iSCC Total electronic   Diff electronic      SCC error    
    1   -0.19516931E+03    0.00000000E+00    0.49048551E-02
    2   -0.19516997E+03   -0.66341550E-03    0.20606213E-02
    3   -0.19517000E+03   -0.28879579E-04    0.65140043E-03
    4   -0.19517000E+03   -0.33779131E-05    0.91045111E-04
    5   -0.19517000E+03   -0.11199046E-06    0.25267008E-04
    6   -0.19517000E+03   -0.54818656E-08    0.10774553E-04
    7   -0.19517000E+03   -0.62271965E-10    0.20508962E-05
    8   -0.19517000E+03   -0.46895821E-11    0.39059606E-06
    9   -0.19517000E+03   -0.34106051E-12    0.86596797E-07
   10   -0.19517000E+03   -0.28421709E-13    0.14780615E-07
   11   -0.19517000E+03    0.28421709E-13    0.32652752E-08

Total Energy:                     -193.2558633061 H        -5258.7596 eV
Extrapolated to 0K:               -193.2558633061 H        -5258.7596 eV
Total Mermin free energy:         -193.2558633061 H        -5258.7596 eV
Force related energy:             -193.2558633061 H        -5258.7596 eV

Volume:                              0.111240E+05 au^3   0.164841E+04 A^3
Pressure:                            0.781204E-05 au     0.229838E+09 Pa
>> Charges saved for restart in charges.bin

total energy  -1.9325586E+02 H       energy change -9.2366839E-04 H
gradient norm  2.4229627E-02 H/a0    max. gradient  5.0973202E-03 H/a0
step length    1.1403028E-01 a0      max. step      3.5704017E-02 a0

--------------------------------------------------------------------------------

***  Geometry step: 27

 iSCC Total electronic   Diff electronic      SCC error    
    1   -0.19517000E+03    0.00000000E+00    0.49989463E-02
    2   -0.19517382E+03   -0.38178416E-02    0.23919460E-02
    3   -0.19517385E+03   -0.24606250E-04    0.69633478E-03
    4   -0.19517385E+03   -0.34711872E-05    0.84715471E-04
    5   -0.19517385E+03   -0.17537531E-06    0.21610395E-04
    6   -0.19517385E+03   -0.48558491E-08    0.89989277E-05
    7   -0.19517385E+03   -0.55848659E-10    0.21752457E-05
    8   -0.19517385E+03   -0.41211479E-11    0.51822917E-06
    9   -0.19517385E+03   -0.45474735E-12    0.86049244E-07
   10   -0.19517385E+03   -0.19895197E-12    0.11928094E-07
   11   -0.19517385E+03    0.85265128E-13    0.26633118E-08

Total Energy:                     -193.2567590403 H        -5258.7840 eV
Extrapolated to 0K:               -193.2567590403 H        -5258.7840 eV
Total Mermin free energy:         -193.2567590403 H        -5258.7840 eV
Force related energy:             -193.2567590403 H        -5258.7840 eV

Volume:                              0.111511E+05 au^3   0.165243E+04 A^3
Pressure:                            0.750846E-05 au     0.220906E+09 Pa
>> Charges saved for restart in charges.bin

total energy  -1.9325676E+02 H       energy change -8.9573426E-04 H
gradient norm  2.2064732E-02 H/a0    max. gradient  5.6911850E-03 H/a0
step length    1.4158891E-01 a0      max. step      3.9985054E-02 a0

--------------------------------------------------------------------------------

***  Geometry step: 28

 iSCC Total electronic   Diff electronic      SCC error    
    1   -0.19517385E+03    0.00000000E+00    0.40491991E-02
    2   -0.19517876E+03   -0.49136444E-02    0.23606405E-02
    3   -0.19517878E+03   -0.13452490E-04    0.45261161E-03
    4   -0.19517878E+03   -0.26925873E-05    0.58511309E-04
    5   -0.19517878E+03   -0.14141159E-06    0.12889879E-04
    6   -0.19517878E+03   -0.34134189E-08    0.54607703E-05
    7   -0.19517878E+03   -0.47890580E-10    0.17110436E-05
    8   -0.19517878E+03   -0.25011104E-11    0.39061867E-06
    9   -0.19517878E+03   -0.48316906E-12    0.71280935E-07
   10   -0.19517878E+03   -0.85265128E-13    0.87833913E-08

Total Energy:                     -193.2574478930 H        -5258.8027 eV
Extrapolated to 0K:               -193.2574478930 H        -5258.8027 eV
Total Mermin free energy:         -193.2574478930 H        -5258.8027 eV
Force related energy:             -193.2574478930 H        -5258.8027 eV

Volume:                              0.111760E+05 au^3   0.165612E+04 A^3
Pressure:                            0.797381E-05 au     0.234597E+09 Pa
>> Charges saved for restart in charges.bin

total energy  -1.9325745E+02 H       energy change -6.8885265E-04 H
gradient norm  1.7659738E-02 H/a0    max. gradient  4.5806478E-03 H/a0
step length    1.3715632E-01 a0      max. step      3.2643930E-02 a0

--------------------------------------------------------------------------------

***  Geometry step: 29

 iSCC Total electronic   Diff electronic      SCC error    
    1   -0.19517878E+03    0.00000000E+00    0.46561232E-02
    2   -0.19518174E+03   -0.29573078E-02    0.26416702E-02
    3   -0.19518175E+03   -0.96356305E-05    0.48149607E-03
    4   -0.19518175E+03   -0.19541400E-05    0.42695702E-04
    5   -0.19518175E+03   -0.88515918E-07    0.85562893E-05
    6   -0.19518175E+03   -0.20318112E-08    0.28699572E-05
    7   -0.19518175E+03   -0.25011104E-10    0.11089981E-05
    8   -0.19518175E+03   -0.82422957E-12    0.27099736E-06
    9   -0.19518175E+03   -0.14210855E-12    0.46720788E-07
   10   -0.19518175E+03   -0.56843419E-13    0.56154308E-08

Total Energy:                     -193.2579216889 H        -5258.8156 eV
Extrapolated to 0K:               -193.2579216889 H        -5258.8156 eV
Total Mermin free energy:         -193.2579216889 H        -5258.8156 eV
Force related energy:             -193.2579216889 H        -5258.8156 eV

Volume:                              0.111949E+05 au^3   0.165891E+04 A^3
Pressure:                            0.822467E-05 au     0.241978E+09 Pa
>> Charges saved for restart in charges.bin

total energy  -1.9325792E+02 H       energy change -4.7379589E-04 H
gradient norm  1.5293768E-02 H/a0    max. gradient  5.2059562E-03 H/a0
step length    1.1038078E-01 a0      max. step      2.2880290E-02 a0

--------------------------------------------------------------------------------

***  Geometry step: 30

 iSCC Total electronic   Diff electronic      SCC error    
    1   -0.19518175E+03    0.00000000E+00    0.38987176E-02
    2   -0.19518210E+03   -0.35360681E-03    0.21848894E-02
    3   -0.19518211E+03   -0.72925557E-05    0.44507160E-03
    4   -0.19518211E+03   -0.13565202E-05    0.37531666E-04
    5   -0.19518211E+03   -0.54786454E-07    0.53584471E-05
    6   -0.19518211E+03   -0.14342163E-08    0.20181159E-05
    7   -0.19518211E+03   -0.19554136E-10    0.69326620E-06
    8   -0.19518211E+03   -0.42632564E-12    0.15480618E-06
    9   -0.19518211E+03   -0.56843419E-13    0.46532148E-07
   10   -0.19518211E+03    0.00000000E+00    0.75667335E-08

Total Energy:                     -193.2582896264 H        -5258.8256 eV
Extrapolated to 0K:               -193.2582896264 H        -5258.8256 eV
Total Mermin free energy:         -193.2582896264 H        -5258.8256 eV
Force related energy:             -193.2582896264 H        -5258.8256 eV

Volume:                              0.112080E+05 au^3   0.166086E+04 A^3
Pressure:                            0.805143E-05 au     0.236881E+09 Pa
>> Charges saved for restart in charges.bin

total energy  -1.9325829E+02 H       energy change -3.6793748E-04 H
gradient norm  1.4576362E-02 H/a0    max. gradient  5.6774928E-03 H/a0
step length    8.2175221E-02 a0      max. step      1.5539985E-02 a0

--------------------------------------------------------------------------------

***  Geometry step: 31

 iSCC Total electronic   Diff electronic      SCC error    
    1   -0.19518211E+03    0.00000000E+00    0.34864837E-02
    2   -0.19517920E+03    0.29097416E-02    0.19597082E-02
    3   -0.19517921E+03   -0.59800981E-05    0.34577749E-03
    4   -0.19517921E+03   -0.11341282E-05    0.42897582E-04
    5   -0.19517921E+03   -0.52931853E-07    0.12006346E-04
    6   -0.19517921E+03   -0.17006130E-08    0.45093356E-05
    7   -0.19517921E+03   -0.37999826E-10    0.11645548E-05
    8   -0.19517921E+03   -0.11652901E-11    0.25446422E-06
    9   -0.19517921E+03    0.00000000E+00    0.66821735E-07
   10   -0.19517921E+03   -0.28421709E-13    0.87796872E-08

Total Energy:                     -193.2586649325 H        -5258.8358 eV
Extrapolated to 0K:               -193.2586649325 H        -5258.8358 eV
Total Mermin free energy:         -193.2586649325 H        -5258.8358 eV
Force related energy:             -193.2586649325 H        -5258.8358 eV

Volume:                              0.112183E+05 au^3   0.166238E+04 A^3
Pressure:                            0.654008E-05 au     0.192416E+09 Pa
>> Charges saved for restart in charges.bin

total energy  -1.9325866E+02 H       energy change -3.7530617E-04 H
gradient norm  1.4696903E-02 H/a0    max. gradient  4.7028509E-03 H/a0
step length    7.7941796E-02 a0      max. step      1.5803048E-02 a0

--------------------------------------------------------------------------------

***  Geometry step: 32

 iSCC Total electronic   Diff electronic      SCC error    
    1   -0.19517921E+03    0.00000000E+00    0.32800988E-02
    2   -0.19517560E+03    0.36129152E-02    0.18848782E-02
    3   -0.19517560E+03   -0.56099007E-05    0.38898445E-03
    4   -0.19517560E+03   -0.10073620E-05    0.43998626E-04
    5   -0.19517560E+03   -0.52176404E-07    0.15573469E-04
    6   -0.19517560E+03   -0.20128539E-08    0.53707308E-05
    7   -0.19517560E+03   -0.54455995E-10    0.11708541E-05
    8   -0.19517560E+03   -0.21600499E-11    0.28607099E-06
    9   -0.19517560E+03   -0.14210855E-12    0.55886300E-07
   10   -0.19517560E+03   -0.11368684E-12    0.83002645E-08

Total Energy:                     -193.2590556552 H        -5258.8465 eV
Extrapolated to 0K:               -193.2590556552 H        -5258.8465 eV
Total Mermin free energy:         -193.2590556552 H        -5258.8465 eV
Force related energy:             -193.2590556552 H        -5258.8465 eV

Volume:                              0.112261E+05 au^3   0.166354E+04 A^3
Pressure:                            0.492670E-05 au     0.144948E+09 Pa
>> Charges saved for restart in charges.bin

total energy  -1.9325906E+02 H       energy change -3.9072271E-04 H
gradient norm  1.5901897E-02 H/a0    max. gradient  4.4084380E-03 H/a0
step length    8.5054122E-02 a0      max. step      1.9522358E-02 a0

--------------------------------------------------------------------------------

***  Geometry step: 33

 iSCC Total electronic   Diff electronic      SCC error    
    1   -0.19517560E+03    0.00000000E+00    0.31672972E-02
    2   -0.19517231E+03    0.32905464E-02    0.15847524E-02
    3   -0.19517232E+03   -0.70253447E-05    0.40018607E-03
    4   -0.19517232E+03   -0.12032106E-05    0.46252925E-04
    5   -0.19517232E+03   -0.58699300E-07    0.16764471E-04
    6   -0.19517232E+03   -0.26362272E-08    0.60655845E-05
    7   -0.19517232E+03   -0.78387075E-10    0.12961620E-05
    8   -0.19517232E+03   -0.30695446E-11    0.32739522E-06
    9   -0.19517232E+03   -0.25579538E-12    0.61193743E-07
   10   -0.19517232E+03    0.28421709E-13    0.11394452E-07
   11   -0.19517232E+03    0.28421709E-13    0.22742284E-08

Total Energy:                     -193.2595238138 H        -5258.8592 eV
Extrapolated to 0K:               -193.2595238138 H        -5258.8592 eV
Total Mermin free energy:         -193.2595238138 H        -5258.8592 eV
Force related energy:             -193.2595238138 H        -5258.8592 eV

Volume:                              0.112332E+05 au^3   0.166459E+04 A^3
Pressure:                            0.317170E-05 au     0.933145E+08 Pa
>> Charges saved for restart in charges.bin

total energy  -1.9325952E+02 H       energy change -4.6815860E-04 H
gradient norm  1.6794204E-02 H/a0    max. gradient  2.9980728E-03 H/a0
step length    1.0697896E-01 a0      max. step      2.5793947E-02 a0

--------------------------------------------------------------------------------

***  Geometry step: 34

 iSCC Total electronic   Diff electronic      SCC error    
    1   -0.19517232E+03    0.00000000E+00    0.32787360E-02
    2   -0.19517246E+03   -0.13888569E-03    0.15786244E-02
    3   -0.19517247E+03   -0.10214016E-04    0.41003479E-03
    4   -0.19517247E+03   -0.15726027E-05    0.55862120E-04
    5   -0.19517247E+03   -0.60000644E-07    0.11868074E-04
    6   -0.19517247E+03   -0.28632883E-08    0.48451452E-05
    7   -0.19517247E+03   -0.82167162E-10    0.12627136E-05
    8   -0.19517247E+03   -0.36379788E-11    0.37153230E-06
    9   -0.19517247E+03   -0.28421709E-13    0.51150105E-07
   10   -0.19517247E+03   -0.14210855E-12    0.96549853E-08

Total Energy:                     -193.2600509606 H        -5258.8736 eV
Extrapolated to 0K:               -193.2600509606 H        -5258.8736 eV
Total Mermin free energy:         -193.2600509606 H        -5258.8736 eV
Force related energy:             -193.2600509606 H        -5258.8736 eV

Volume:                              0.112400E+05 au^3   0.166559E+04 A^3
Pressure:                            0.265394E-05 au     0.780816E+08 Pa
>> Charges saved for restart in charges.bin

total energy  -1.9326005E+02 H       energy change -5.2714680E-04 H
gradient norm  1.6913870E-02 H/a0    max. gradient  2.8764396E-03 H/a0
step length    1.3302692E-01 a0      max. step      3.1910849E-02 a0

--------------------------------------------------------------------------------

***  Geometry step: 35

 iSCC Total electronic   Diff electronic      SCC error    
    1   -0.19517247E+03    0.00000000E+00    0.37669609E-02
    2   -0.19517690E+03   -0.44290970E-02    0.19653913E-02
    3   -0.19517691E+03   -0.10324393E-04    0.51786628E-03
    4   -0.19517691E+03   -0.15666412E-05    0.59802837E-04
    5   -0.19517691E+03   -0.54929956E-07    0.11079826E-04
    6   -0.19517691E+03   -0.24428175E-08    0.47152223E-05
    7   -0.19517691E+03   -0.37857717E-10    0.12225212E-05
    8   -0.19517691E+03   -0.19042545E-11    0.32722453E-06
    9   -0.19517691E+03   -0.11368684E-12    0.48465799E-07
   10   -0.19517691E+03    0.28421709E-13    0.79334930E-08

Total Energy:                     -193.2605436021 H        -5258.8870 eV
Extrapolated to 0K:               -193.2605436021 H        -5258.8870 eV
Total Mermin free energy:         -193.2605436021 H        -5258.8870 eV
Force related energy:             -193.2605436021 H        -5258.8870 eV

Volume:                              0.112470E+05 au^3   0.166663E+04 A^3
Pressure:                            0.350783E-05 au     0.103204E+09 Pa
>> Charges saved for restart in charges.bin

total energy  -1.9326054E+02 H       energy change -4.9264145E-04 H
gradient norm  1.5731003E-02 H/a0    max. gradient  4.6750089E-03 H/a0
step length    1.4052022E-01 a0      max. step      3.2155139E-02 a0

--------------------------------------------------------------------------------

***  Geometry step: 36

 iSCC Total electronic   Diff electronic      SCC error    
    1   -0.19517691E+03    0.00000000E+00    0.37480222E-02
    2   -0.19518365E+03   -0.67408440E-02    0.21126989E-02
    3   -0.19518366E+03   -0.89669646E-05    0.47857399E-03
    4   -0.19518366E+03   -0.15163357E-05    0.43498459E-04
    5   -0.19518366E+03   -0.63974142E-07    0.72443584E-05
    6   -0.19518366E+03   -0.23376288E-08    0.24690219E-05
    7   -0.19518366E+03   -0.20691004E-10    0.75439006E-06
    8   -0.19518366E+03   -0.71054274E-12    0.17493153E-06
    9   -0.19518366E+03   -0.19895197E-12    0.49393140E-07
   10   -0.19518366E+03    0.85265128E-13    0.87877194E-08

Total Energy:                     -193.2609525544 H        -5258.8981 eV
Extrapolated to 0K:               -193.2609525544 H        -5258.8981 eV
Total Mermin free energy:         -193.2609525544 H        -5258.8981 eV
Force related energy:             -193.2609525544 H        -5258.8981 eV

Volume:                              0.112545E+05 au^3   0.166775E+04 A^3
Pressure:                            0.526367E-05 au     0.154863E+09 Pa
>> Charges saved for restart in charges.bin

total energy  -1.9326095E+02 H       energy change -4.0895236E-04 H
gradient norm  1.4251293E-02 H/a0    max. gradient  5.2480243E-03 H/a0
step length    1.2728165E-01 a0      max. step      2.7127722E-02 a0

--------------------------------------------------------------------------------

***  Geometry step: 37

 iSCC Total electronic   Diff electronic      SCC error    
    1   -0.19518366E+03    0.00000000E+00    0.29479083E-02
    2   -0.19518917E+03   -0.55089782E-02    0.17197613E-02
    3   -0.19518918E+03   -0.68368822E-05    0.41203865E-03
    4   -0.19518918E+03   -0.11858647E-05    0.67992785E-04
    5   -0.19518918E+03   -0.55112707E-07    0.90561490E-05
    6   -0.19518918E+03   -0.23784139E-08    0.33013157E-05
    7   -0.19518918E+03   -0.35328185E-10    0.89145516E-06
    8   -0.19518918E+03   -0.11084467E-11    0.25980253E-06
    9   -0.19518918E+03   -0.11368684E-12    0.58160118E-07
   10   -0.19518918E+03   -0.56843419E-13    0.69583965E-08

Total Energy:                     -193.2612981472 H        -5258.9075 eV
Extrapolated to 0K:               -193.2612981472 H        -5258.9075 eV
Total Mermin free energy:         -193.2612981472 H        -5258.9075 eV
Force related energy:             -193.2612981472 H        -5258.9075 eV

Volume:                              0.112633E+05 au^3   0.166904E+04 A^3
Pressure:                            0.697235E-05 au     0.205134E+09 Pa
>> Charges saved for restart in charges.bin

total energy  -1.9326130E+02 H       energy change -3.4559273E-04 H
gradient norm  1.4247832E-02 H/a0    max. gradient  4.4527731E-03 H/a0
step length    1.1362749E-01 a0      max. step      2.2480692E-02 a0

--------------------------------------------------------------------------------

***  Geometry step: 38

 iSCC Total electronic   Diff electronic      SCC error    
    1   -0.19518918E+03    0.00000000E+00    0.35580844E-02
    2   -0.19519115E+03   -0.19692981E-02    0.20474443E-02
    3   -0.19519116E+03   -0.84205995E-05    0.53520187E-03
    4   -0.19519116E+03   -0.13470199E-05    0.72445174E-04
    5   -0.19519116E+03   -0.52935803E-07    0.10705253E-04
    6   -0.19519116E+03   -0.29367300E-08    0.29552090E-05
    7   -0.19519116E+03   -0.52580162E-10    0.90304957E-06
    8   -0.19519116E+03   -0.12789769E-11    0.25882371E-06
    9   -0.19519116E+03   -0.56843419E-13    0.44256090E-07
   10   -0.19519116E+03   -0.28421709E-13    0.62266992E-08

Total Energy:                     -193.2616816535 H        -5258.9179 eV
Extrapolated to 0K:               -193.2616816535 H        -5258.9179 eV
Total Mermin free energy:         -193.2616816535 H        -5258.9179 eV
Force related energy:             -193.2616816535 H        -5258.9179 eV

Volume:                              0.112740E+05 au^3   0.167063E+04 A^3
Pressure:                            0.699925E-05 au     0.205925E+09 Pa
>> Charges saved for restart in charges.bin

total energy  -1.9326168E+02 H       energy change -3.8350635E-04 H
gradient norm  1.5242132E-02 H/a0    max. gradient  3.4702312E-03 H/a0
step length    1.1830001E-01 a0      max. step      2.3025853E-02 a0

--------------------------------------------------------------------------------

***  Geometry step: 39

 iSCC Total electronic   Diff electronic      SCC error    
    1   -0.19519116E+03    0.00000000E+00    0.46921214E-02
    2   -0.19519091E+03    0.24959750E-03    0.26898822E-02
    3   -0.19519092E+03   -0.14101768E-04    0.72459638E-03
    4   -0.19519093E+03   -0.21138731E-05    0.66703067E-04
    5   -0.19519093E+03   -0.86180108E-07    0.15114894E-04
    6   -0.19519093E+03   -0.45264983E-08    0.62213937E-05
    7   -0.19519093E+03   -0.77989171E-10    0.19841106E-05
    8   -0.19519093E+03   -0.25295321E-11    0.43758391E-06
    9   -0.19519093E+03   -0.14210855E-12    0.54895045E-07
   10   -0.19519093E+03   -0.11368684E-12    0.13454022E-07
   11   -0.19519093E+03    0.85265128E-13    0.26447573E-08

Total Energy:                     -193.2621846186 H        -5258.9316 eV
Extrapolated to 0K:               -193.2621846186 H        -5258.9316 eV
Total Mermin free energy:         -193.2621846186 H        -5258.9316 eV
Force related energy:             -193.2621846186 H        -5258.9316 eV

Volume:                              0.112862E+05 au^3   0.167244E+04 A^3
Pressure:                            0.615352E-05 au     0.181043E+09 Pa
>> Charges saved for restart in charges.bin

total energy  -1.9326218E+02 H       energy change -5.0296507E-04 H
gradient norm  1.6490657E-02 H/a0    max. gradient  3.1911296E-03 H/a0
step length    1.5242858E-01 a0      max. step      3.1572960E-02 a0

--------------------------------------------------------------------------------

***  Geometry step: 40

 iSCC Total electronic   Diff electronic      SCC error    
    1   -0.19519093E+03    0.00000000E+00    0.40949973E-02
    2   -0.19518804E+03    0.28832071E-02    0.22674050E-02
    3   -0.19518806E+03   -0.15323071E-04    0.64913256E-03
    4   -0.19518806E+03   -0.19784613E-05    0.67335027E-04
    5   -0.19518806E+03   -0.98227588E-07    0.21110931E-04
    6   -0.19518806E+03   -0.41841020E-08    0.81646792E-05
    7   -0.19518806E+03   -0.58889782E-10    0.18559705E-05
    8   -0.19518806E+03   -0.26716407E-11    0.25336511E-06
    9   -0.19518806E+03   -0.39790393E-12    0.59898385E-07
   10   -0.19518806E+03   -0.56843419E-13    0.14533610E-07
   11   -0.19518806E+03    0.14210855E-12    0.19462485E-08

Total Energy:                     -193.2626933362 H        -5258.9455 eV
Extrapolated to 0K:               -193.2626933362 H        -5258.9455 eV
Total Mermin free energy:         -193.2626933362 H        -5258.9455 eV
Force related energy:             -193.2626933362 H        -5258.9455 eV

Volume:                              0.112969E+05 au^3   0.167403E+04 A^3
Pressure:                            0.461461E-05 au     0.135767E+09 Pa
>> Charges saved for restart in charges.bin

total energy  -1.9326269E+02 H       energy change -5.0871757E-04 H
gradient norm  1.6230223E-02 H/a0    max. gradient  4.2706286E-03 H/a0
step length    1.5983406E-01 a0      max. step      3.7922046E-02 a0

--------------------------------------------------------------------------------

***  Geometry step: 41

 iSCC Total electronic   Diff electronic      SCC error    
    1   -0.19518806E+03    0.00000000E+00    0.44943686E-02
    2   -0.19518393E+03    0.41267292E-02    0.18395152E-02
    3   -0.19518395E+03   -0.14392525E-04    0.58694089E-03
    4   -0.19518395E+03   -0.16632758E-05    0.63937853E-04
    5   -0.19518395E+03   -0.86702471E-07    0.19406415E-04
    6   -0.19518395E+03   -0.33363960E-08    0.62066043E-05
    7   -0.19518395E+03   -0.34674486E-10    0.13261021E-05
    8   -0.19518395E+03   -0.22737368E-11    0.18640433E-06
    9   -0.19518395E+03   -0.22737368E-12    0.45714746E-07
   10   -0.19518395E+03   -0.11368684E-12    0.47413682E-08

Total Energy:                     -193.2631479452 H        -5258.9578 eV
Extrapolated to 0K:               -193.2631479452 H        -5258.9578 eV
Total Mermin free energy:         -193.2631479452 H        -5258.9578 eV
Force related energy:             -193.2631479452 H        -5258.9578 eV

Volume:                              0.113070E+05 au^3   0.167553E+04 A^3
Pressure:                            0.257569E-05 au     0.757795E+08 Pa
>> Charges saved for restart in charges.bin

total energy  -1.9326315E+02 H       energy change -4.5460901E-04 H
gradient norm  1.4469126E-02 H/a0    max. gradient  4.0989327E-03 H/a0
step length    1.5650508E-01 a0      max. step      3.8933869E-02 a0

--------------------------------------------------------------------------------

***  Geometry step: 42

 iSCC Total electronic   Diff electronic      SCC error    
    1   -0.19518395E+03    0.00000000E+00    0.33093139E-02
    2   -0.19518302E+03    0.93412148E-03    0.16099595E-02
    3   -0.19518303E+03   -0.95096688E-05    0.53335329E-03
    4   -0.19518303E+03   -0.12313158E-05    0.69447594E-04
    5   -0.19518303E+03   -0.47953733E-07    0.14650032E-04
    6   -0.19518303E+03   -0.28792897E-08    0.54474467E-05
    7   -0.19518303E+03   -0.42234660E-10    0.12271150E-05
    8   -0.19518303E+03   -0.17905677E-11    0.21405332E-06
    9   -0.19518303E+03   -0.22737368E-12    0.70435128E-07
   10   -0.19518303E+03    0.00000000E+00    0.13889468E-07
   11   -0.19518303E+03   -0.85265128E-13    0.15082580E-08

Total Energy:                     -193.2634843638 H        -5258.9670 eV
Extrapolated to 0K:               -193.2634843638 H        -5258.9670 eV
Total Mermin free energy:         -193.2634843638 H        -5258.9670 eV
Force related energy:             -193.2634843638 H        -5258.9670 eV

Volume:                              0.113135E+05 au^3   0.167649E+04 A^3
Pressure:                            0.200023E-05 au     0.588488E+08 Pa
>> Charges saved for restart in charges.bin

total energy  -1.9326348E+02 H       energy change -3.3641862E-04 H
gradient norm  1.3003391E-02 H/a0    max. gradient  2.7941249E-03 H/a0
step length    1.2381239E-01 a0      max. step      3.0937390E-02 a0

--------------------------------------------------------------------------------

***  Geometry step: 43

 iSCC Total electronic   Diff electronic      SCC error    
    1   -0.19518303E+03    0.00000000E+00    0.27458514E-02
    2   -0.19518464E+03   -0.16124810E-02    0.15612026E-02
    3   -0.19518465E+03   -0.62144869E-05    0.44585336E-03
    4   -0.19518465E+03   -0.93932195E-06    0.57225080E-04
    5   -0.19518465E+03   -0.29100136E-07    0.79247806E-05
    6   -0.19518465E+03   -0.20517064E-08    0.28911993E-05
    7   -0.19518465E+03   -0.37971404E-10    0.87282301E-06
    8   -0.19518465E+03   -0.88107299E-12    0.23215655E-06
    9   -0.19518465E+03   -0.14210855E-12    0.54414992E-07
   10   -0.19518465E+03    0.56843419E-13    0.79060669E-08

Total Energy:                     -193.2637658879 H        -5258.9746 eV
Extrapolated to 0K:               -193.2637658879 H        -5258.9746 eV
Total Mermin free energy:         -193.2637658879 H        -5258.9746 eV
Force related energy:             -193.2637658879 H        -5258.9746 eV

Volume:                              0.113200E+05 au^3   0.167745E+04 A^3
Pressure:                            0.233947E-05 au     0.688295E+08 Pa
>> Charges saved for restart in charges.bin

total energy  -1.9326377E+02 H       energy change -2.8152410E-04 H
gradient norm  1.2516255E-02 H/a0    max. gradient  3.0440316E-03 H/a0
step length    1.0454171E-01 a0      max. step      2.4058912E-02 a0

--------------------------------------------------------------------------------

***  Geometry step: 44

 iSCC Total electronic   Diff electronic      SCC error    
    1   -0.19518465E+03    0.00000000E+00    0.34782957E-02
    2   -0.19518831E+03   -0.36587785E-02    0.20186737E-02
    3   -0.19518831E+03   -0.74943405E-05    0.56356883E-03
    4   -0.19518831E+03   -0.11981170E-05    0.63900304E-04
    5   -0.19518831E+03   -0.39037872E-07    0.15411121E-04
    6   -0.19518831E+03   -0.28898910E-08    0.59001550E-05
    7   -0.19518831E+03   -0.55337068E-10    0.13170159E-05
    8   -0.19518831E+03   -0.13926638E-11    0.25282399E-06
    9   -0.19518831E+03   -0.85265128E-13    0.54759325E-07
   10   -0.19518831E+03    0.00000000E+00    0.97687578E-08

Total Energy:                     -193.2640803353 H        -5258.9832 eV
Extrapolated to 0K:               -193.2640803353 H        -5258.9832 eV
Total Mermin free energy:         -193.2640803353 H        -5258.9832 eV
Force related energy:             -193.2640803353 H        -5258.9832 eV

Volume:                              0.113287E+05 au^3   0.167873E+04 A^3
Pressure:                            0.312263E-05 au     0.918708E+08 Pa
>> Charges saved for restart in charges.bin

total energy  -1.9326408E+02 H       energy change -3.1444738E-04 H
gradient norm  1.3233327E-02 H/a0    max. gradient  2.9733459E-03 H/a0
step length    1.2762780E-01 a0      max. step      2.6544875E-02 a0

--------------------------------------------------------------------------------

***  Geometry step: 45

 iSCC Total electronic   Diff electronic      SCC error    
    1   -0.19518831E+03    0.00000000E+00    0.29526899E-02
    2   -0.19519304E+03   -0.47245149E-02    0.17809073E-02
    3   -0.19519305E+03   -0.71494787E-05    0.52695270E-03
    4   -0.19519305E+03   -0.10462128E-05    0.75148030E-04
    5   -0.19519305E+03   -0.49832209E-07    0.28208911E-04
    6   -0.19519305E+03   -0.32961793E-08    0.86031754E-05
    7   -0.19519305E+03   -0.60879302E-10    0.83795992E-06
    8   -0.19519305E+03   -0.42916781E-11    0.19623068E-06
    9   -0.19519305E+03   -0.22737368E-12    0.49525211E-07
   10   -0.19519305E+03    0.00000000E+00    0.10320980E-07
   11   -0.19519305E+03    0.56843419E-13    0.21586519E-08

Total Energy:                     -193.2644116237 H        -5258.9922 eV
Extrapolated to 0K:               -193.2644116237 H        -5258.9922 eV
Total Mermin free energy:         -193.2644116237 H        -5258.9922 eV
Force related energy:             -193.2644116237 H        -5258.9922 eV

Volume:                              0.113382E+05 au^3   0.168015E+04 A^3
Pressure:                            0.403281E-05 au     0.118649E+09 Pa
>> Charges saved for restart in charges.bin

total energy  -1.9326441E+02 H       energy change -3.3128845E-04 H
gradient norm  1.3923647E-02 H/a0    max. gradient  3.0204478E-03 H/a0
step length    1.4386957E-01 a0      max. step      2.8830351E-02 a0

--------------------------------------------------------------------------------

***  Geometry step: 46

 iSCC Total electronic   Diff electronic      SCC error    
    1   -0.19519305E+03    0.00000000E+00    0.29553127E-02
    2   -0.19519756E+03   -0.45179466E-02    0.17784101E-02
    3   -0.19519757E+03   -0.83037822E-05    0.53149178E-03
    4   -0.19519757E+03   -0.10917578E-05    0.97283991E-04
    5   -0.19519757E+03   -0.65052802E-07    0.35773175E-04
    6   -0.19519757E+03   -0.35433914E-08    0.85379902E-05
    7   -0.19519757E+03   -0.73697493E-10    0.74513434E-06
    8   -0.19519757E+03   -0.72475359E-11    0.20329526E-06
    9   -0.19519757E+03   -0.28421709E-12    0.36072591E-07
   10   -0.19519757E+03   -0.14210855E-12    0.96103232E-08

Total Energy:                     -193.2647590529 H        -5259.0017 eV
Extrapolated to 0K:               -193.2647590529 H        -5259.0017 eV
Total Mermin free energy:         -193.2647590529 H        -5259.0017 eV
Force related energy:             -193.2647590529 H        -5259.0017 eV

Volume:                              0.113482E+05 au^3   0.168163E+04 A^3
Pressure:                            0.497468E-05 au     0.146360E+09 Pa
>> Charges saved for restart in charges.bin

total energy  -1.9326476E+02 H       energy change -3.4742916E-04 H
gradient norm  1.3131014E-02 H/a0    max. gradient  2.5634761E-03 H/a0
step length    1.6332821E-01 a0      max. step      3.4124077E-02 a0

--------------------------------------------------------------------------------

***  Geometry step: 47

 iSCC Total electronic   Diff electronic      SCC error    
    1   -0.19519757E+03    0.00000000E+00    0.29017054E-02
    2   -0.19519831E+03   -0.73115515E-03    0.17149552E-02
    3   -0.19519831E+03   -0.65921481E-05    0.46363838E-03
    4   -0.19519831E+03   -0.10034584E-05    0.79689282E-04
    5   -0.19519831E+03   -0.48211234E-07    0.28091013E-04
    6   -0.19519831E+03   -0.29503155E-08    0.67622546E-05
    7   -0.19519831E+03   -0.56758154E-10    0.72825969E-06
    8   -0.19519831E+03   -0.46895821E-11    0.12878194E-06
    9   -0.19519831E+03   -0.22737368E-12    0.48150694E-07
   10   -0.19519831E+03   -0.28421709E-13    0.65853771E-08

Total Energy:                     -193.2650217007 H        -5259.0088 eV
Extrapolated to 0K:               -193.2650217007 H        -5259.0088 eV
Total Mermin free energy:         -193.2650217007 H        -5259.0088 eV
Force related energy:             -193.2650217007 H        -5259.0088 eV

Volume:                              0.113547E+05 au^3   0.168260E+04 A^3
Pressure:                            0.475608E-05 au     0.139929E+09 Pa
>> Charges saved for restart in charges.bin

total energy  -1.9326502E+02 H       energy change -2.6264777E-04 H
gradient norm  1.0948431E-02 H/a0    max. gradient  2.1783915E-03 H/a0
step length    1.2127082E-01 a0      max. step      2.8121448E-02 a0

--------------------------------------------------------------------------------

***  Geometry step: 48

 iSCC Total electronic   Diff electronic      SCC error    
    1   -0.19519831E+03    0.00000000E+00    0.31866685E-02
    2   -0.19519650E+03    0.18105932E-02    0.18529416E-02
    3   -0.19519651E+03   -0.57784324E-05    0.43435746E-03
    4   -0.19519651E+03   -0.10528342E-05    0.80609626E-04
    5   -0.19519651E+03   -0.41254594E-07    0.19302925E-04
    6   -0.19519651E+03   -0.23245548E-08    0.51517274E-05
    7   -0.19519651E+03   -0.56047611E-10    0.87369504E-06
    8   -0.19519651E+03   -0.24442670E-11    0.17222216E-06
    9   -0.19519651E+03   -0.17053026E-12    0.46668484E-07
   10   -0.19519651E+03   -0.56843419E-13    0.61070278E-08

Total Energy:                     -193.2652074367 H        -5259.0139 eV
Extrapolated to 0K:               -193.2652074367 H        -5259.0139 eV
Total Mermin free energy:         -193.2652074367 H        -5259.0139 eV
Force related energy:             -193.2652074367 H        -5259.0139 eV

Volume:                              0.113587E+05 au^3   0.168319E+04 A^3
Pressure:                            0.378891E-05 au     0.111474E+09 Pa
>> Charges saved for restart in charges.bin

total energy  -1.9326521E+02 H       energy change -1.8573608E-04 H
gradient norm  8.6624297E-03 H/a0    max. gradient  1.6492529E-03 H/a0
step length    8.3601578E-02 a0      max. step      2.1300729E-02 a0

--------------------------------------------------------------------------------

***  Geometry step: 49

 iSCC Total electronic   Diff electronic      SCC error    
    1   -0.19519651E+03    0.00000000E+00    0.26216255E-02
    2   -0.19519443E+03    0.20783994E-02    0.14966822E-02
    3   -0.19519443E+03   -0.25709617E-05    0.29849854E-03
    4   -0.19519443E+03   -0.51660936E-06    0.47289043E-04
    5   -0.19519443E+03   -0.19055108E-07    0.11050221E-04
    6   -0.19519443E+03   -0.84779117E-09    0.33922879E-05
    7   -0.19519443E+03   -0.24414248E-10    0.75345627E-06
    8   -0.19519443E+03   -0.71054274E-12    0.16181254E-06
    9   -0.19519443E+03    0.00000000E+00    0.27335434E-07
   10   -0.19519443E+03   -0.85265128E-13    0.47680997E-08

Total Energy:                     -193.2653266863 H        -5259.0171 eV
Extrapolated to 0K:               -193.2653266863 H        -5259.0171 eV
Total Mermin free energy:         -193.2653266863 H        -5259.0171 eV
Force related energy:             -193.2653266863 H        -5259.0171 eV

Volume:                              0.113599E+05 au^3   0.168337E+04 A^3
Pressure:                            0.293935E-05 au     0.864785E+08 Pa
>> Charges saved for restart in charges.bin

total energy  -1.9326533E+02 H       energy change -1.1924953E-04 H
gradient norm  8.2705703E-03 H/a0    max. gradient  1.6586315E-03 H/a0
step length    4.6250176E-02 a0      max. step      1.2124474E-02 a0

--------------------------------------------------------------------------------

***  Geometry step: 50

 iSCC Total electronic   Diff electronic      SCC error    
    1   -0.19519443E+03    0.00000000E+00    0.24695784E-02
    2   -0.19519264E+03    0.17946603E-02    0.14418786E-02
    3   -0.19519264E+03   -0.29132200E-05    0.35680752E-03
    4   -0.19519264E+03   -0.53887621E-06    0.23672158E-04
    5   -0.19519264E+03   -0.17025485E-07    0.62621903E-05
    6   -0.19519264E+03   -0.56101612E-09    0.20374514E-05
    7   -0.19519264E+03   -0.11993961E-10    0.56809563E-06
    8   -0.19519264E+03   -0.48316906E-12    0.11016111E-06
    9   -0.19519264E+03   -0.56843419E-13    0.25928433E-07
   10   -0.19519264E+03    0.19895197E-12    0.38109453E-08

Total Energy:                     -193.2654573213 H        -5259.0207 eV
Extrapolated to 0K:               -193.2654573213 H        -5259.0207 eV
Total Mermin free energy:         -193.2654573213 H        -5259.0207 eV
Force related energy:             -193.2654573213 H        -5259.0207 eV

Volume:                              0.113600E+05 au^3   0.168338E+04 A^3
Pressure:                            0.198795E-05 au     0.584875E+08 Pa
>> Charges saved for restart in charges.bin

total energy  -1.9326546E+02 H       energy change -1.3063503E-04 H
[...]
gradient norm  1.1040594E-03 H/a0    max. gradient  2.9950098E-04 H/a0
step length    6.8006621E-03 a0      max. step      1.8642697E-03 a0

--------------------------------------------------------------------------------

***  Geometry step: 194

 iSCC Total electronic   Diff electronic      SCC error    
    1   -0.19518528E+03    0.00000000E+00    0.25725032E-03
    2   -0.19518552E+03   -0.23950830E-03    0.14004939E-03
    3   -0.19518552E+03   -0.53861584E-07    0.38328590E-04
    4   -0.19518552E+03   -0.75320656E-08    0.33854406E-05
    5   -0.19518552E+03   -0.19934987E-09    0.11246394E-05
    6   -0.19518552E+03   -0.10032863E-10    0.34692042E-06
    7   -0.19518552E+03   -0.11368684E-12    0.52607242E-07
    8   -0.19518552E+03    0.00000000E+00    0.10384490E-07
    9   -0.19518552E+03    0.28421709E-13    0.20575333E-08

Total Energy:                     -193.2756542426 H        -5259.2981 eV
Extrapolated to 0K:               -193.2756542426 H        -5259.2981 eV
Total Mermin free energy:         -193.2756542426 H        -5259.2981 eV
Force related energy:             -193.2756542426 H        -5259.2981 eV

Volume:                              0.111607E+05 au^3   0.165385E+04 A^3
Pressure:                            0.148311E-06 au     0.436346E+07 Pa
>> Charges saved for restart in charges.bin

total energy  -1.9327565E+02 H       energy change -1.5684541E-06 H
gradient norm  9.3972874E-04 H/a0    max. gradient  1.8862067E-04 H/a0
step length    5.6645303E-03 a0      max. step      1.6404244E-03 a0

--------------------------------------------------------------------------------

***  Geometry step: 195

 iSCC Total electronic   Diff electronic      SCC error    
    1   -0.19518552E+03    0.00000000E+00    0.16718684E-03
    2   -0.19518552E+03    0.46950244E-05    0.91761884E-04
    3   -0.19518552E+03   -0.25756748E-07    0.25801530E-04
    4   -0.19518552E+03   -0.38024552E-08    0.29425636E-05
    5   -0.19518552E+03   -0.95496944E-10    0.50634855E-06
    6   -0.19518552E+03   -0.53148597E-11    0.16043825E-06
    7   -0.19518552E+03   -0.11368684E-12    0.47787587E-07
    8   -0.19518552E+03    0.56843419E-13    0.71125639E-08

Total Energy:                     -193.2756554633 H        -5259.2982 eV
Extrapolated to 0K:               -193.2756554633 H        -5259.2982 eV
Total Mermin free energy:         -193.2756554633 H        -5259.2982 eV
Force related energy:             -193.2756554633 H        -5259.2982 eV

Volume:                              0.111607E+05 au^3   0.165384E+04 A^3
Pressure:                            0.126804E-06 au     0.373070E+07 Pa
>> Charges saved for restart in charges.bin

total energy  -1.9327566E+02 H       energy change -1.2206470E-06 H
gradient norm  8.8910560E-04 H/a0    max. gradient  1.6318780E-04 H/a0
step length    4.6937876E-03 a0      max. step      1.1840171E-03 a0

--------------------------------------------------------------------------------

***  Geometry step: 196

 iSCC Total electronic   Diff electronic      SCC error    
    1   -0.19518552E+03    0.00000000E+00    0.19265568E-03
    2   -0.19518548E+03    0.34295803E-04    0.10225401E-03
    3   -0.19518548E+03   -0.50904362E-07    0.28153358E-04
    4   -0.19518548E+03   -0.82962401E-08    0.30799062E-05
    5   -0.19518548E+03   -0.21304913E-09    0.46102366E-06
    6   -0.19518548E+03   -0.88959951E-11    0.12382325E-06
    7   -0.19518548E+03   -0.19895197E-12    0.37815950E-07
    8   -0.19518548E+03    0.28421709E-13    0.58379825E-08

Total Energy:                     -193.2756572608 H        -5259.2982 eV
Extrapolated to 0K:               -193.2756572608 H        -5259.2982 eV
Total Mermin free energy:         -193.2756572608 H        -5259.2982 eV
Force related energy:             -193.2756572608 H        -5259.2982 eV

Volume:                              0.111610E+05 au^3   0.165388E+04 A^3
Pressure:                            0.807182E-07 au     0.237481E+07 Pa
>> Charges saved for restart in charges.bin

total energy  -1.9327566E+02 H       energy change -1.7975050E-06 H
gradient norm  1.0794185E-03 H/a0    max. gradient  2.1125174E-04 H/a0
step length    7.2626923E-03 a0      max. step      1.6779972E-03 a0

--------------------------------------------------------------------------------

***  Geometry step: 197

 iSCC Total electronic   Diff electronic      SCC error    
    1   -0.19518548E+03    0.00000000E+00    0.36307606E-03
    2   -0.19518538E+03    0.97521532E-04    0.11421807E-03
    3   -0.19518538E+03   -0.87572175E-07    0.38307958E-04
    4   -0.19518538E+03   -0.99535669E-08    0.49025727E-05
    5   -0.19518538E+03   -0.21680080E-09    0.14572357E-05
    6   -0.19518538E+03   -0.12192913E-10    0.44809953E-06
    7   -0.19518538E+03   -0.39790393E-12    0.71474421E-07
    8   -0.19518538E+03    0.56843419E-13    0.71930675E-08

Total Energy:                     -193.2756596084 H        -5259.2983 eV
Extrapolated to 0K:               -193.2756596084 H        -5259.2983 eV
Total Mermin free energy:         -193.2756596084 H        -5259.2983 eV
Force related energy:             -193.2756596084 H        -5259.2983 eV

Volume:                              0.111604E+05 au^3   0.165380E+04 A^3
Pressure:                            0.263063E-07 au     0.773958E+06 Pa
>> Charges saved for restart in charges.bin

total energy  -1.9327566E+02 H       energy change -2.3476350E-06 H
gradient norm  1.2282638E-03 H/a0    max. gradient  2.5462431E-04 H/a0
step length    1.9796885E-02 a0      max. step      3.7224789E-03 a0

--------------------------------------------------------------------------------

***  Geometry step: 198

 iSCC Total electronic   Diff electronic      SCC error    
    1   -0.19518538E+03    0.00000000E+00    0.49324883E-03
    2   -0.19518502E+03    0.36124334E-03    0.17086773E-03
    3   -0.19518502E+03   -0.15925733E-06    0.45848805E-04
    4   -0.19518502E+03   -0.17751631E-07    0.62555051E-05
    5   -0.19518502E+03   -0.37704240E-09    0.18955111E-05
    6   -0.19518502E+03   -0.21941560E-10    0.58650303E-06
    7   -0.19518502E+03   -0.62527761E-12    0.58474605E-07
    8   -0.19518502E+03    0.56843419E-13    0.12475733E-07
    9   -0.19518502E+03   -0.56843419E-13    0.39430978E-08

Total Energy:                     -193.2756626212 H        -5259.2984 eV
Extrapolated to 0K:               -193.2756626212 H        -5259.2984 eV
Total Mermin free energy:         -193.2756626212 H        -5259.2984 eV
Force related energy:             -193.2756626212 H        -5259.2984 eV

Volume:                              0.111587E+05 au^3   0.165356E+04 A^3
Pressure:                           -0.111925E-06 au    -0.329295E+07 Pa
>> Charges saved for restart in charges.bin

total energy  -1.9327566E+02 H       energy change -3.0127575E-06 H
gradient norm  1.2562699E-03 H/a0    max. gradient  2.8022331E-04 H/a0
step length    3.3432374E-02 a0      max. step      6.4203214E-03 a0

--------------------------------------------------------------------------------

***  Geometry step: 199

 iSCC Total electronic   Diff electronic      SCC error    
    1   -0.19518502E+03    0.00000000E+00    0.27382554E-03
    2   -0.19518515E+03   -0.12626511E-03    0.12711414E-03
    3   -0.19518515E+03   -0.48670756E-07    0.34177650E-04
    4   -0.19518515E+03   -0.71971726E-08    0.33032842E-05
    5   -0.19518515E+03   -0.25266900E-09    0.87736950E-06
    6   -0.19518515E+03   -0.11453949E-10    0.31739007E-06
    7   -0.19518515E+03   -0.28421709E-12    0.63393586E-07
    8   -0.19518515E+03   -0.56843419E-13    0.99063509E-08

Total Energy:                     -193.2756648279 H        -5259.2984 eV
Extrapolated to 0K:               -193.2756648279 H        -5259.2984 eV
Total Mermin free energy:         -193.2756648279 H        -5259.2984 eV
Force related energy:             -193.2756648279 H        -5259.2984 eV

Volume:                              0.111588E+05 au^3   0.165356E+04 A^3
Pressure:                           -0.754155E-07 au    -0.221880E+07 Pa
>> Charges saved for restart in charges.bin

total energy  -1.9327566E+02 H       energy change -2.2066916E-06 H
gradient norm  9.9985103E-04 H/a0    max. gradient  2.2054363E-04 H/a0
step length    7.0868518E-03 a0      max. step      1.7918365E-03 a0

--------------------------------------------------------------------------------

***  Geometry step: 200

 iSCC Total electronic   Diff electronic      SCC error    
    1   -0.19518515E+03    0.00000000E+00    0.35663260E-03
    2   -0.19518521E+03   -0.56240074E-04    0.19928731E-03
    3   -0.19518521E+03   -0.81707611E-07    0.50624466E-04
    4   -0.19518521E+03   -0.13069183E-07    0.48294904E-05
    5   -0.19518521E+03   -0.43291948E-09    0.14662099E-05
    6   -0.19518521E+03   -0.19980462E-10    0.54755818E-06
    7   -0.19518521E+03   -0.34106051E-12    0.98804502E-07
    8   -0.19518521E+03   -0.14210855E-12    0.12510724E-07
    9   -0.19518521E+03    0.11368684E-12    0.39633967E-08

Total Energy:                     -193.2756664312 H        -5259.2985 eV
Extrapolated to 0K:               -193.2756664312 H        -5259.2985 eV
Total Mermin free energy:         -193.2756664312 H        -5259.2985 eV
Force related energy:             -193.2756664312 H        -5259.2985 eV

Volume:                              0.111588E+05 au^3   0.165356E+04 A^3
Pressure:                           -0.235762E-07 au    -0.693636E+06 Pa
>> Charges saved for restart in charges.bin

total energy  -1.9327567E+02 H       energy change -1.6033387E-06 H
gradient norm  6.6872962E-04 H/a0    max. gradient  1.7446664E-04 H/a0
step length    7.6017436E-03 a0      max. step      1.8334982E-03 a0

--------------------------------------------------------------------------------

***  Geometry step: 201

 iSCC Total electronic   Diff electronic      SCC error    
    1   -0.19518521E+03    0.00000000E+00    0.76207332E-04
    2   -0.19518522E+03   -0.16298061E-04    0.42506544E-04
    3   -0.19518522E+03   -0.66773396E-08    0.11450535E-04
    4   -0.19518522E+03   -0.12059047E-08    0.12733758E-05
    5   -0.19518522E+03   -0.27910119E-10    0.43623474E-06
    6   -0.19518522E+03   -0.13073986E-11    0.11043402E-06
    7   -0.19518522E+03   -0.85265128E-13    0.15516813E-07
    8   -0.19518522E+03    0.28421709E-13    0.21400757E-08

Total Energy:                     -193.2756668319 H        -5259.2985 eV
Extrapolated to 0K:               -193.2756668319 H        -5259.2985 eV
Total Mermin free energy:         -193.2756668319 H        -5259.2985 eV
Force related energy:             -193.2756668319 H        -5259.2985 eV

Volume:                              0.111588E+05 au^3   0.165356E+04 A^3
Pressure:                           -0.371723E-07 au    -0.109365E+07 Pa
>> Charges saved for restart in charges.bin

total energy  -1.9327567E+02 H       energy change -4.0072962E-07 H
gradient norm  5.6730300E-04 H/a0    max. gradient  2.1361016E-04 H/a0
step length    1.0082844E-03 a0      max. step      2.0043836E-04 a0

--------------------------------------------------------------------------------

***  Geometry step: 202

 iSCC Total electronic   Diff electronic      SCC error    
    1   -0.19518522E+03    0.00000000E+00    0.12665541E-03
    2   -0.19518535E+03   -0.12473970E-03    0.73790915E-04
    3   -0.19518535E+03   -0.19197586E-07    0.21289320E-04
    4   -0.19518535E+03   -0.34345646E-08    0.20785206E-05
    5   -0.19518535E+03   -0.73640649E-10    0.74114595E-06
    6   -0.19518535E+03   -0.37232439E-11    0.25432956E-06
    7   -0.19518535E+03   -0.17053026E-12    0.39765653E-07
    8   -0.19518535E+03    0.56843419E-13    0.39369348E-08

Total Energy:                     -193.2756673589 H        -5259.2985 eV
Extrapolated to 0K:               -193.2756673589 H        -5259.2985 eV
Total Mermin free energy:         -193.2756673589 H        -5259.2985 eV
Force related energy:             -193.2756673589 H        -5259.2985 eV

Volume:                              0.111587E+05 au^3   0.165355E+04 A^3
Pressure:                            0.221889E-07 au     0.652819E+06 Pa
>> Charges saved for restart in charges.bin

total energy  -1.9327567E+02 H       energy change -5.2694858E-07 H
gradient norm  5.7214252E-04 H/a0    max. gradient  1.1471893E-04 H/a0
step length    2.0415344E-03 a0      max. step      3.8952601E-04 a0

--------------------------------------------------------------------------------

***  Geometry step: 203

 iSCC Total electronic   Diff electronic      SCC error    
    1   -0.19518535E+03    0.00000000E+00    0.11391039E-03
    2   -0.19518540E+03   -0.51295849E-04    0.62520119E-04
    3   -0.19518540E+03   -0.83513214E-08    0.16955349E-04
    4   -0.19518540E+03   -0.13398562E-08    0.17885633E-05
    5   -0.19518540E+03   -0.26005864E-10    0.37178273E-06
    6   -0.19518540E+03   -0.14495072E-11    0.12561816E-06
    7   -0.19518540E+03   -0.14210855E-12    0.27466239E-07
    8   -0.19518540E+03    0.11368684E-12    0.28193661E-08

Total Energy:                     -193.2756678601 H        -5259.2985 eV
Extrapolated to 0K:               -193.2756678601 H        -5259.2985 eV
Total Mermin free energy:         -193.2756678601 H        -5259.2985 eV
Force related energy:             -193.2756678601 H        -5259.2985 eV

Volume:                              0.111586E+05 au^3   0.165354E+04 A^3
Pressure:                            0.359233E-07 au     0.105690E+07 Pa
>> Charges saved for restart in charges.bin

total energy  -1.9327567E+02 H       energy change -5.0121005E-07 H
gradient norm  6.5491807E-04 H/a0    max. gradient  2.0682467E-04 H/a0
step length    1.9824265E-03 a0      max. step      5.2760029E-04 a0

--------------------------------------------------------------------------------

***  Geometry step: 204

 iSCC Total electronic   Diff electronic      SCC error    
    1   -0.19518540E+03    0.00000000E+00    0.27193262E-03
    2   -0.19518545E+03   -0.48653464E-04    0.14544606E-03
    3   -0.19518545E+03   -0.39222584E-07    0.37944685E-04
    4   -0.19518545E+03   -0.57593468E-08    0.30082654E-05
    5   -0.19518545E+03   -0.13739054E-09    0.11108989E-05
    6   -0.19518545E+03   -0.84412477E-11    0.39303059E-06
    7   -0.19518545E+03   -0.28421709E-12    0.65618044E-07
    8   -0.19518545E+03    0.28421709E-13    0.54449156E-08

Total Energy:                     -193.2756691383 H        -5259.2985 eV
Extrapolated to 0K:               -193.2756691383 H        -5259.2985 eV
Total Mermin free energy:         -193.2756691383 H        -5259.2985 eV
Force related energy:             -193.2756691383 H        -5259.2985 eV

Volume:                              0.111586E+05 au^3   0.165354E+04 A^3
Pressure:                            0.448307E-07 au     0.131897E+07 Pa
>> Charges saved for restart in charges.bin

total energy  -1.9327567E+02 H       energy change -1.2782451E-06 H
gradient norm  8.6130074E-04 H/a0    max. gradient  2.8883647E-04 H/a0
step length    9.0144763E-03 a0      max. step      3.0223183E-03 a0

--------------------------------------------------------------------------------

***  Geometry step: 205

 iSCC Total electronic   Diff electronic      SCC error    
    1   -0.19518545E+03    0.00000000E+00    0.21989276E-03
    2   -0.19518545E+03   -0.17448691E-05    0.99843581E-04
    3   -0.19518545E+03   -0.59016827E-07    0.31568497E-04
    4   -0.19518545E+03   -0.68106374E-08    0.33740219E-05
    5   -0.19518545E+03   -0.12241230E-09    0.52374247E-06
    6   -0.19518545E+03   -0.72759576E-11    0.12111645E-06
    7   -0.19518545E+03   -0.17053026E-12    0.37717325E-07
    8   -0.19518545E+03   -0.28421709E-13    0.62699033E-08

Total Energy:                     -193.2756704741 H        -5259.2986 eV
Extrapolated to 0K:               -193.2756704741 H        -5259.2986 eV
Total Mermin free energy:         -193.2756704741 H        -5259.2986 eV
Force related energy:             -193.2756704741 H        -5259.2986 eV

Volume:                              0.111576E+05 au^3   0.165339E+04 A^3
Pressure:                            0.478965E-07 au     0.140916E+07 Pa
>> Charges saved for restart in charges.bin

total energy  -1.9327567E+02 H       energy change -1.3357517E-06 H
gradient norm  8.3939111E-04 H/a0    max. gradient  2.3378857E-04 H/a0
step length    2.2005120E-02 a0      max. step      4.8055540E-03 a0

--------------------------------------------------------------------------------

***  Geometry step: 206

 iSCC Total electronic   Diff electronic      SCC error    
    1   -0.19518545E+03    0.00000000E+00    0.12604281E-03
    2   -0.19518544E+03    0.10171207E-04    0.76226935E-04
    3   -0.19518544E+03   -0.13595582E-07    0.22056165E-04
    4   -0.19518544E+03   -0.22072584E-08    0.15812649E-05
    5   -0.19518544E+03   -0.85066176E-10    0.50031768E-06
    6   -0.19518544E+03   -0.25579538E-11    0.13215680E-06
    7   -0.19518544E+03    0.28421709E-13    0.21923470E-07
    8   -0.19518544E+03   -0.85265128E-13    0.43047281E-08

Total Energy:                     -193.2756713217 H        -5259.2986 eV
Extrapolated to 0K:               -193.2756713217 H        -5259.2986 eV
Total Mermin free energy:         -193.2756713217 H        -5259.2986 eV
Force related energy:             -193.2756713217 H        -5259.2986 eV

Volume:                              0.111576E+05 au^3   0.165338E+04 A^3
Pressure:                            0.455986E-07 au     0.134156E+07 Pa
>> Charges saved for restart in charges.bin

total energy  -1.9327567E+02 H       energy change -8.4758861E-07 H
gradient norm  6.4948518E-04 H/a0    max. gradient  1.4263572E-04 H/a0
step length    4.4684341E-03 a0      max. step      9.7020178E-04 a0

--------------------------------------------------------------------------------

***  Geometry step: 207

 iSCC Total electronic   Diff electronic      SCC error    
    1   -0.19518544E+03    0.00000000E+00    0.16772031E-03
    2   -0.19518535E+03    0.93242806E-04    0.98562612E-04
    3   -0.19518535E+03   -0.25929040E-07    0.28484464E-04
    4   -0.19518535E+03   -0.42172417E-08    0.26626027E-05
    5   -0.19518535E+03   -0.14441071E-09    0.55316699E-06
    6   -0.19518535E+03   -0.50022209E-11    0.21545843E-06
    7   -0.19518535E+03    0.00000000E+00    0.48793923E-07
    8   -0.19518535E+03   -0.85265128E-13    0.81429468E-08

Total Energy:                     -193.2756720587 H        -5259.2986 eV
Extrapolated to 0K:               -193.2756720587 H        -5259.2986 eV
Total Mermin free energy:         -193.2756720587 H        -5259.2986 eV
Force related energy:             -193.2756720587 H        -5259.2986 eV

Volume:                              0.111576E+05 au^3   0.165338E+04 A^3
Pressure:                            0.184251E-07 au     0.542086E+06 Pa
>> Charges saved for restart in charges.bin

total energy  -1.9327567E+02 H       energy change -7.3697007E-07 H
gradient norm  4.9710038E-04 H/a0    max. gradient  9.8852175E-05 H/a0
step length    4.7092255E-03 a0      max. step      9.2783315E-04 a0

Geometry converged

--------------------------------------------------------------------------------
DFTB+ running times                          cpu [s]             wall clock [s]
--------------------------------------------------------------------------------
Pre-SCC initialisation                 +       6.83 (  0.2%)       3.37 (  0.8%)
SCC                                    +    2944.99 ( 92.7%)     388.43 ( 90.9%)
Post-SCC processing                    +     224.91 (  7.1%)      35.59 (  8.3%)
--------------------------------------------------------------------------------
Missing                                +       0.46 (  0.0%)       0.01 (  0.0%)
Total                                  =    3177.19 (100.0%)     427.40 (100.0%)
--------------------------------------------------------------------------------
