|===============================================================================
|
|  DFTB+ release 24.1
|
|  Copyright (C) 2006 - 2024  DFTB+ developers group
|
|===============================================================================
|
|  When publishing results obtained with DFTB+, please cite the following
|  reference:
|
|  * DFTB+, a software package for efficient approximate density functional
|    theory based atomistic simulations, J. Chem. Phys. 152, 124101 (2020).
|    [doi: 10.1063/1.5143190]
|
|  You should also cite additional publications crediting the parametrization
|  data you use. Please consult the documentation of the SK-files for the
|  references.
|
|===============================================================================

Reading input file 'dftb_in.hsd'
Parser version: 14

--------------------------------------------------------------------------------
Reading SK-files:
./SKFiles/Si-Si.skf
./SKFiles/Si-Ge.skf
./SKFiles/Si-O.skf
./SKFiles/Ge-Ge.skf
./SKFiles/Ge-O.skf
./SKFiles/O-O.skf
Done.


Processed input in HSD format written to 'dftb_pin.hsd'

Starting initialization...
--------------------------------------------------------------------------------
WARNING!
-> Dipole printed for extended system : value printed is not well defined
MPI processes:               1
OpenMP threads:              8
BLACS orbital grid size:     1 x 1
BLACS atom grid size:        1 x 1
Chosen random seed:          160440182
Current stacksize:           unlimited
Mode:                        Static calculation
Self consistent charges:     Yes
SCC-tolerance:                 0.100000E-07
Max. scc iterations:                    500
Shell resolved Hubbard:      No
Spin polarisation:           No
Nr. of up electrons:           192.000000
Nr. of down electrons:         192.000000
Periodic boundaries:         Yes
Electronic solver:           Relatively robust
Mixer:                       Broyden mixer
Mixing parameter:                  0.200000
Maximal SCC-cycles:                     500
Nr. of chrg. vec. in memory:            500
Electronic temperature:              0.100000E-07 H      0.272114E-06 eV
Initial charges:             Set automatically (system chrg:   0.000E+00)
Included shells:            Si:  s, p, d
                            Ge:  s, p, d
                             O:  s, p
K-points and weights:           1:  0.500000  0.500000  0.500000     1.000000

K-points in absolute space:     1:  0.025319  0.017606  0.037774

Extra options:
                             Mulliken analysis
Force type                   original

--------------------------------------------------------------------------------

***  Geometry step: 0

 iSCC Total electronic   Diff electronic      SCC error    
    1    0.00000000E+00    0.00000000E+00    0.14248991E+01
    2   -0.19732535E+03   -0.19732535E+03    0.96510946E+00
    3   -0.19766803E+03   -0.34268343E+00    0.38596199E-01
    4   -0.19795681E+03   -0.28878244E+00    0.22897851E-01
    5   -0.19795834E+03   -0.15289944E-02    0.34611353E-02
    6   -0.19795845E+03   -0.10596776E-03    0.12411469E-02
    7   -0.19795845E+03   -0.23275226E-05    0.30258808E-03
    8   -0.19795845E+03   -0.55541270E-06    0.36388509E-04
    9   -0.19795845E+03   -0.33840422E-07    0.16958451E-04
   10   -0.19795845E+03   -0.18286528E-09    0.24026455E-05
   11   -0.19795845E+03   -0.67473138E-10    0.26490119E-06
   12   -0.19795845E+03   -0.28990144E-11    0.11498660E-06
   13   -0.19795845E+03   -0.28421709E-13    0.14300996E-07
   14   -0.19795845E+03    0.28421709E-13    0.35237675E-08

Total Energy:                     -190.4242756361 H        -5181.7082 eV
Extrapolated to 0K:               -190.4242756361 H        -5181.7082 eV
Total Mermin free energy:         -190.4242756361 H        -5181.7082 eV
Force related energy:             -190.4242756361 H        -5181.7082 eV

Volume:                              0.913789E+04 au^3   0.135410E+04 A^3
Pressure:                            0.249573E-02 au     0.734269E+11 Pa
>> Charges saved for restart in charges.bin

total energy  -1.9042428E+02 H       energy change -1.9042428E+02 H
gradient norm  2.2284505E+00 H/a0    max. gradient  1.1973343E+00 H/a0
step length    0.0000000E+00 a0      max. step      0.0000000E+00 a0

--------------------------------------------------------------------------------

***  Geometry step: 1

 iSCC Total electronic   Diff electronic      SCC error    
    1   -0.19795845E+03    0.00000000E+00    0.13581913E+00
    2   -0.19727518E+03    0.68327642E+00    0.61116399E-01
    3   -0.19729058E+03   -0.15407492E-01    0.19132211E-01
    4   -0.19729334E+03   -0.27598076E-02    0.18650642E-02
    5   -0.19729341E+03   -0.69225544E-04    0.81502926E-03
    6   -0.19729342E+03   -0.35315724E-05    0.22836598E-03
    7   -0.19729342E+03   -0.12511427E-06    0.27192492E-04
    8   -0.19729342E+03   -0.18539254E-07    0.60587206E-05
    9   -0.19729342E+03   -0.71241857E-09    0.20624760E-05
   10   -0.19729342E+03   -0.12562396E-10    0.55051353E-06
   11   -0.19729342E+03   -0.51159077E-12    0.13545862E-06
   12   -0.19729342E+03   -0.11368684E-12    0.31646799E-07
   13   -0.19729342E+03   -0.11368684E-12    0.43890416E-08

Total Energy:                     -191.1566674908 H        -5201.6376 eV
Extrapolated to 0K:               -191.1566674908 H        -5201.6376 eV
Total Mermin free energy:         -191.1566674908 H        -5201.6376 eV
Force related energy:             -191.1566674908 H        -5201.6376 eV

Volume:                              0.971099E+04 au^3   0.143902E+04 A^3
Pressure:                            0.176933E-02 au     0.520555E+11 Pa
>> Charges saved for restart in charges.bin

total energy  -1.9115667E+02 H       energy change -7.3239185E-01 H
gradient norm  1.4568024E+00 H/a0    max. gradient  2.7456540E-01 H/a0
step length    8.0049100E-01 a0      max. step      4.3009945E-01 a0

--------------------------------------------------------------------------------

***  Geometry step: 2

 iSCC Total electronic   Diff electronic      SCC error    
    1   -0.19729342E+03    0.00000000E+00    0.52597800E-01
    2   -0.19694372E+03    0.34969387E+00    0.26868693E-01
    3   -0.19694690E+03   -0.31774968E-02    0.68255364E-02
    4   -0.19694756E+03   -0.65717939E-03    0.14845461E-02
    5   -0.19694758E+03   -0.19154694E-04    0.32431635E-03
    6   -0.19694758E+03   -0.13105480E-05    0.13498917E-03
    7   -0.19694758E+03   -0.20784228E-07    0.35375183E-04
    8   -0.19694758E+03   -0.27217482E-08    0.73769536E-05
    9   -0.19694758E+03   -0.27227998E-09    0.17668388E-05
   10   -0.19694758E+03   -0.42348347E-11    0.45760049E-06
   11   -0.19694758E+03   -0.28421709E-12    0.81288011E-07
   12   -0.19694758E+03    0.56843419E-13    0.16162061E-07
   13   -0.19694758E+03   -0.85265128E-13    0.20514230E-08

Total Energy:                     -191.9365446628 H        -5222.8591 eV
Extrapolated to 0K:               -191.9365446628 H        -5222.8591 eV
Total Mermin free energy:         -191.9365446628 H        -5222.8591 eV
Force related energy:             -191.9365446628 H        -5222.8591 eV

Volume:                              0.986648E+04 au^3   0.146206E+04 A^3
Pressure:                            0.130919E-02 au     0.385176E+11 Pa
>> Charges saved for restart in charges.bin

total energy  -1.9193654E+02 H       energy change -7.7987717E-01 H
gradient norm  9.1950565E-01 H/a0    max. gradient  1.6184124E-01 H/a0
step length    7.4737049E-01 a0      max. step      1.5030131E-01 a0

--------------------------------------------------------------------------------

***  Geometry step: 3

 iSCC Total electronic   Diff electronic      SCC error    
    1   -0.19694758E+03    0.00000000E+00    0.71951804E-01
    2   -0.19656460E+03    0.38298063E+00    0.31034840E-01
    3   -0.19656842E+03   -0.38193351E-02    0.10208643E-01
    4   -0.19656915E+03   -0.73260292E-03    0.11379487E-02
    5   -0.19656919E+03   -0.36539887E-04    0.26799739E-03
    6   -0.19656919E+03   -0.18013288E-05    0.12065059E-03
    7   -0.19656919E+03   -0.23705212E-07    0.13877735E-04
    8   -0.19656919E+03   -0.28749128E-08    0.45868892E-05
    9   -0.19656919E+03   -0.33605829E-09    0.16545585E-05
   10   -0.19656919E+03   -0.59969807E-11    0.51270930E-06
   11   -0.19656919E+03   -0.11368684E-12    0.12760255E-06
   12   -0.19656919E+03   -0.85265128E-13    0.27625873E-07
   13   -0.19656919E+03    0.00000000E+00    0.22566180E-08

Total Energy:                     -192.4767127705 H        -5237.5578 eV
Extrapolated to 0K:               -192.4767127705 H        -5237.5578 eV
Total Mermin free energy:         -192.4767127705 H        -5237.5578 eV
Force related energy:             -192.4767127705 H        -5237.5578 eV

Volume:                              0.999358E+04 au^3   0.148090E+04 A^3
Pressure:                            0.941903E-03 au     0.277117E+11 Pa
>> Charges saved for restart in charges.bin

total energy  -1.9247671E+02 H       energy change -5.4016811E-01 H
gradient norm  5.9185739E-01 H/a0    max. gradient  1.4983724E-01 H/a0
step length    7.8665663E-01 a0      max. step      1.7430061E-01 a0

--------------------------------------------------------------------------------

***  Geometry step: 4

 iSCC Total electronic   Diff electronic      SCC error    
    1   -0.19656919E+03    0.00000000E+00    0.68241614E-01
    2   -0.19615813E+03    0.41105408E+00    0.35699334E-01
    3   -0.19616040E+03   -0.22669833E-02    0.71795903E-02
    4   -0.19616094E+03   -0.54209885E-03    0.82383930E-03
    5   -0.19616098E+03   -0.33533389E-04    0.36575402E-03
    6   -0.19616098E+03   -0.95670964E-06    0.13573557E-03
    7   -0.19616098E+03   -0.22228306E-07    0.42950007E-04
    8   -0.19616098E+03   -0.20750690E-08    0.11481676E-04
    9   -0.19616098E+03   -0.30291858E-09    0.22524462E-05
   10   -0.19616098E+03   -0.68496320E-11    0.30460453E-06
   11   -0.19616098E+03   -0.68212103E-12    0.89878762E-07
   12   -0.19616098E+03    0.85265128E-13    0.22560195E-07
   13   -0.19616098E+03   -0.11368684E-12    0.36631396E-08

Total Energy:                     -192.7983538875 H        -5246.3101 eV
Extrapolated to 0K:               -192.7983538875 H        -5246.3101 eV
Total Mermin free energy:         -192.7983538875 H        -5246.3101 eV
Force related energy:             -192.7983538875 H        -5246.3101 eV

Volume:                              0.101405E+05 au^3   0.150267E+04 A^3
Pressure:                            0.647945E-03 au     0.190632E+11 Pa
>> Charges saved for restart in charges.bin

total energy  -1.9279835E+02 H       energy change -3.2164112E-01 H
gradient norm  4.5753133E-01 H/a0    max. gradient  2.5589935E-01 H/a0
step length    7.5126102E-01 a0      max. step      1.4512341E-01 a0

--------------------------------------------------------------------------------

***  Geometry step: 5

 iSCC Total electronic   Diff electronic      SCC error    
    1   -0.19616098E+03    0.00000000E+00    0.67751411E-01
    2   -0.19571704E+03    0.44393347E+00    0.41441042E-01
    3   -0.19571918E+03   -0.21370733E-02    0.71496724E-02
    4   -0.19571969E+03   -0.50748368E-03    0.12281301E-02
    5   -0.19571972E+03   -0.32577937E-04    0.29947037E-03
    6   -0.19571972E+03   -0.70328656E-06    0.82302932E-04
    7   -0.19571972E+03   -0.16619197E-07    0.29590036E-04
    8   -0.19571972E+03   -0.14720172E-08    0.85111046E-05
    9   -0.19571972E+03   -0.12525447E-09    0.24501467E-05
   10   -0.19571972E+03   -0.69064754E-11    0.29201512E-06
   11   -0.19571972E+03   -0.36948222E-12    0.39215366E-07
   12   -0.19571972E+03   -0.11368684E-12    0.13955021E-07
   13   -0.19571972E+03    0.14210855E-12    0.47116226E-08

Total Energy:                     -192.9860182720 H        -5251.4167 eV
Extrapolated to 0K:               -192.9860182720 H        -5251.4167 eV
Total Mermin free energy:         -192.9860182720 H        -5251.4167 eV
Force related energy:             -192.9860182720 H        -5251.4167 eV

Volume:                              0.103370E+05 au^3   0.153178E+04 A^3
Pressure:                            0.389647E-03 au     0.114638E+11 Pa
>> Charges saved for restart in charges.bin

total energy  -1.9298602E+02 H       energy change -1.8766438E-01 H
gradient norm  3.1418195E-01 H/a0    max. gradient  1.3991253E-01 H/a0
step length    7.1354897E-01 a0      max. step      2.4474856E-01 a0

--------------------------------------------------------------------------------

***  Geometry step: 6

 iSCC Total electronic   Diff electronic      SCC error    
    1   -0.19571972E+03    0.00000000E+00    0.50687200E-01
    2   -0.19539155E+03    0.32816863E+00    0.27572357E-01
    3   -0.19539289E+03   -0.13345109E-02    0.37622510E-02
    4   -0.19539320E+03   -0.31088016E-03    0.61917412E-03
    5   -0.19539321E+03   -0.14471520E-04    0.28214275E-03
    6   -0.19539321E+03   -0.45768090E-06    0.11578935E-03
    7   -0.19539321E+03   -0.75710886E-08    0.28197980E-04
    8   -0.19539321E+03   -0.71369755E-09    0.68649192E-05
    9   -0.19539321E+03   -0.94871666E-10    0.18808335E-05
   10   -0.19539321E+03   -0.30411229E-11    0.17149787E-06
   11   -0.19539321E+03   -0.34106051E-12    0.26118772E-07
   12   -0.19539321E+03   -0.56843419E-13    0.60427956E-08

Total Energy:                     -193.0728991500 H        -5253.7809 eV
Extrapolated to 0K:               -193.0728991500 H        -5253.7809 eV
Total Mermin free energy:         -193.0728991500 H        -5253.7809 eV
Force related energy:             -193.0728991500 H        -5253.7809 eV

Volume:                              0.104836E+05 au^3   0.155351E+04 A^3
Pressure:                            0.222804E-03 au     0.655513E+10 Pa
>> Charges saved for restart in charges.bin

total energy  -1.9307290E+02 H       energy change -8.6880878E-02 H
gradient norm  1.8269466E-01 H/a0    max. gradient  7.8209561E-02 H/a0
step length    5.6767414E-01 a0      max. step      1.0320113E-01 a0

--------------------------------------------------------------------------------

***  Geometry step: 7

 iSCC Total electronic   Diff electronic      SCC error    
    1   -0.19539321E+03    0.00000000E+00    0.35641159E-01
    2   -0.19520500E+03    0.18821626E+00    0.19420302E-01
    3   -0.19520595E+03   -0.95798194E-03    0.35756795E-02
    4   -0.19520612E+03   -0.16834395E-03    0.74918747E-03
    5   -0.19520613E+03   -0.54713815E-05    0.29599888E-03
    6   -0.19520613E+03   -0.26200959E-06    0.10298721E-03
    7   -0.19520613E+03   -0.66192456E-08    0.22304356E-04
    8   -0.19520613E+03   -0.44875037E-09    0.37634971E-05
    9   -0.19520613E+03   -0.58889782E-10    0.11359414E-05
   10   -0.19520613E+03   -0.27284841E-11    0.14103696E-06
   11   -0.19520613E+03   -0.56843419E-13    0.13159597E-07
   12   -0.19520613E+03   -0.85265128E-13    0.34909591E-08

Total Energy:                     -193.1103836459 H        -5254.8009 eV
Extrapolated to 0K:               -193.1103836459 H        -5254.8009 eV
Total Mermin free energy:         -193.1103836459 H        -5254.8009 eV
Force related energy:             -193.1103836459 H        -5254.8009 eV

Volume:                              0.105624E+05 au^3   0.156519E+04 A^3
Pressure:                            0.136592E-03 au     0.401867E+10 Pa
>> Charges saved for restart in charges.bin

total energy  -1.9311038E+02 H       energy change -3.7484496E-02 H
gradient norm  1.3863580E-01 H/a0    max. gradient  4.1919979E-02 H/a0
step length    4.4382683E-01 a0      max. step      7.6593116E-02 a0

--------------------------------------------------------------------------------

***  Geometry step: 8

 iSCC Total electronic   Diff electronic      SCC error    
    1   -0.19520613E+03    0.00000000E+00    0.18280490E-01
    2   -0.19509800E+03    0.10813289E+00    0.80370027E-02
    3   -0.19509835E+03   -0.35024977E-03    0.23717795E-02
    4   -0.19509840E+03   -0.57510962E-04    0.40776202E-03
    5   -0.19509841E+03   -0.18726879E-05    0.84044351E-04
    6   -0.19509841E+03   -0.92298507E-07    0.13879114E-04
    7   -0.19509841E+03   -0.44036028E-08    0.50199595E-05
    8   -0.19509841E+03   -0.14253487E-09    0.19022448E-05
    9   -0.19509841E+03   -0.88959951E-11    0.55041390E-06
   10   -0.19509841E+03   -0.76738615E-12    0.92324458E-07
   11   -0.19509841E+03   -0.28421709E-13    0.12480883E-07
   12   -0.19509841E+03   -0.28421709E-13    0.36169312E-08

Total Energy:                     -193.1325418239 H        -5255.4039 eV
Extrapolated to 0K:               -193.1325418239 H        -5255.4039 eV
Total Mermin free energy:         -193.1325418239 H        -5255.4039 eV
Force related energy:             -193.1325418239 H        -5255.4039 eV

Volume:                              0.106228E+05 au^3   0.157413E+04 A^3
Pressure:                            0.809074E-04 au     0.238038E+10 Pa
>> Charges saved for restart in charges.bin

total energy  -1.9313254E+02 H       energy change -2.2158178E-02 H
gradient norm  1.1433418E-01 H/a0    max. gradient  2.8360586E-02 H/a0
step length    3.6209598E-01 a0      max. step      7.1621058E-02 a0

--------------------------------------------------------------------------------

***  Geometry step: 9

 iSCC Total electronic   Diff electronic      SCC error    
    1   -0.19509841E+03    0.00000000E+00    0.21139864E-01
    2   -0.19507466E+03    0.23743165E-01    0.12205137E-01
    3   -0.19507505E+03   -0.38742470E-03    0.35230296E-02
    4   -0.19507511E+03   -0.58247273E-04    0.48640156E-03
    5   -0.19507511E+03   -0.22049738E-05    0.15390372E-03
    6   -0.19507511E+03   -0.22246161E-06    0.57239552E-04
    7   -0.19507511E+03   -0.42969646E-08    0.12281198E-04
    8   -0.19507511E+03   -0.15515411E-09    0.20831225E-05
    9   -0.19507511E+03   -0.15290880E-10    0.27953416E-06
   10   -0.19507511E+03   -0.17337243E-11    0.54889609E-07
   11   -0.19507511E+03   -0.25579538E-12    0.11919584E-07
   12   -0.19507511E+03    0.56843419E-13    0.17493429E-08

Total Energy:                     -193.1532888528 H        -5255.9684 eV
Extrapolated to 0K:               -193.1532888528 H        -5255.9684 eV
Total Mermin free energy:         -193.1532888528 H        -5255.9684 eV
Force related energy:             -193.1532888528 H        -5255.9684 eV

Volume:                              0.106532E+05 au^3   0.157864E+04 A^3
Pressure:                            0.574521E-04 au     0.169030E+10 Pa
>> Charges saved for restart in charges.bin

total energy  -1.9315329E+02 H       energy change -2.0747029E-02 H
gradient norm  1.0009883E-01 H/a0    max. gradient  2.3349652E-02 H/a0
step length    3.7200087E-01 a0      max. step      6.4086319E-02 a0

--------------------------------------------------------------------------------

***  Geometry step: 10

 iSCC Total electronic   Diff electronic      SCC error    
    1   -0.19507511E+03    0.00000000E+00    0.29087977E-01
    2   -0.19511369E+03   -0.38576311E-01    0.16981568E-01
    3   -0.19511427E+03   -0.58246358E-03    0.29596503E-02
    4   -0.19511439E+03   -0.12531762E-03    0.68985193E-03
    5   -0.19511440E+03   -0.64236267E-05    0.28717600E-03
    6   -0.19511440E+03   -0.21418285E-06    0.85206950E-04
    7   -0.19511440E+03   -0.62896959E-08    0.13018416E-04
    8   -0.19511440E+03   -0.41009685E-09    0.28824720E-05
    9   -0.19511440E+03   -0.42291504E-10    0.55288902E-06
   10   -0.19511440E+03   -0.27284841E-11    0.93461960E-07
   11   -0.19511440E+03   -0.28421709E-13    0.14439888E-07
   12   -0.19511440E+03    0.00000000E+00    0.40211248E-08

Total Energy:                     -193.1740534446 H        -5256.5334 eV
Extrapolated to 0K:               -193.1740534446 H        -5256.5334 eV
Total Mermin free energy:         -193.1740534446 H        -5256.5334 eV
Force related energy:             -193.1740534446 H        -5256.5334 eV

Volume:                              0.106719E+05 au^3   0.158141E+04 A^3
Pressure:                            0.599251E-04 au     0.176306E+10 Pa
>> Charges saved for restart in charges.bin

total energy  -1.9317405E+02 H       energy change -2.0764592E-02 H
gradient norm  9.3772505E-02 H/a0    max. gradient  2.9742522E-02 H/a0
step length    4.4143033E-01 a0      max. step      6.7616692E-02 a0

--------------------------------------------------------------------------------

***  Geometry step: 11

 iSCC Total electronic   Diff electronic      SCC error    
    1   -0.19511440E+03    0.00000000E+00    0.25091846E-01
    2   -0.19516991E+03   -0.55507892E-01    0.15187513E-01
    3   -0.19517032E+03   -0.41357860E-03    0.28720472E-02
    4   -0.19517042E+03   -0.95098314E-04    0.54891471E-03
    5   -0.19517042E+03   -0.48003218E-05    0.21284878E-03
    6   -0.19517042E+03   -0.18722071E-06    0.57719979E-04
    7   -0.19517042E+03   -0.64818551E-08    0.88573009E-05
    8   -0.19517042E+03   -0.28006752E-09    0.21491430E-05
    9   -0.19517042E+03   -0.27426950E-10    0.42058184E-06
   10   -0.19517042E+03   -0.29842795E-11    0.86877414E-07
   11   -0.19517042E+03   -0.11368684E-12    0.20652942E-07
   12   -0.19517042E+03   -0.56843419E-13    0.40337218E-08

Total Energy:                     -193.1865744431 H        -5256.8742 eV
Extrapolated to 0K:               -193.1865744431 H        -5256.8742 eV
Total Mermin free energy:         -193.1865744431 H        -5256.8742 eV
Force related energy:             -193.1865744431 H        -5256.8742 eV

Volume:                              0.106764E+05 au^3   0.158208E+04 A^3
Pressure:                            0.717457E-04 au     0.211083E+10 Pa
>> Charges saved for restart in charges.bin

total energy  -1.9318657E+02 H       energy change -1.2520999E-02 H
gradient norm  8.1166592E-02 H/a0    max. gradient  1.7241471E-02 H/a0
step length    3.4358752E-01 a0      max. step      5.0396494E-02 a0

--------------------------------------------------------------------------------

***  Geometry step: 12

 iSCC Total electronic   Diff electronic      SCC error    
    1   -0.19517042E+03    0.00000000E+00    0.22857319E-01
    2   -0.19520439E+03   -0.33962682E-01    0.13509093E-01
    3   -0.19520454E+03   -0.15739442E-03    0.17934186E-02
    4   -0.19520459E+03   -0.45545726E-04    0.52478573E-03
    5   -0.19520459E+03   -0.20613660E-05    0.20351647E-03
    6   -0.19520459E+03   -0.43589154E-07    0.44416895E-04
    7   -0.19520459E+03   -0.19013555E-08    0.51597286E-05
    8   -0.19520459E+03   -0.18980018E-09    0.77873430E-06
    9   -0.19520459E+03   -0.10288659E-10    0.18360647E-06
   10   -0.19520459E+03   -0.59685590E-12    0.45305677E-07
   11   -0.19520459E+03    0.56843419E-13    0.10641350E-07
   12   -0.19520459E+03    0.28421709E-13    0.28336054E-08

Total Energy:                     -193.1967406495 H        -5257.1508 eV
Extrapolated to 0K:               -193.1967406495 H        -5257.1508 eV
Total Mermin free energy:         -193.1967406495 H        -5257.1508 eV
Force related energy:             -193.1967406495 H        -5257.1508 eV

Volume:                              0.106946E+05 au^3   0.158478E+04 A^3
Pressure:                            0.760091E-04 au     0.223626E+10 Pa
>> Charges saved for restart in charges.bin

total energy  -1.9319674E+02 H       energy change -1.0166206E-02 H
gradient norm  7.2865298E-02 H/a0    max. gradient  1.2786560E-02 H/a0
step length    2.9950813E-01 a0      max. step      4.7644825E-02 a0

--------------------------------------------------------------------------------

***  Geometry step: 13

 iSCC Total electronic   Diff electronic      SCC error    
    1   -0.19520459E+03    0.00000000E+00    0.24008130E-01
    2   -0.19522011E+03   -0.15519687E-01    0.13860135E-01
    3   -0.19522027E+03   -0.16022337E-03    0.22218546E-02
    4   -0.19522032E+03   -0.47286607E-04    0.60701621E-03
    5   -0.19522032E+03   -0.21421756E-05    0.19500414E-03
    6   -0.19522032E+03   -0.54418848E-07    0.54377870E-04
    7   -0.19522032E+03   -0.11705481E-08    0.48431693E-05
    8   -0.19522032E+03   -0.20139623E-09    0.80754837E-06
    9   -0.19522032E+03   -0.12562396E-10    0.15760082E-06
   10   -0.19522032E+03   -0.36948222E-12    0.33666335E-07
   11   -0.19522032E+03    0.28421709E-13    0.48110911E-08

Total Energy:                     -193.2072325969 H        -5257.4363 eV
Extrapolated to 0K:               -193.2072325969 H        -5257.4363 eV
Total Mermin free energy:         -193.2072325969 H        -5257.4363 eV
Force related energy:             -193.2072325969 H        -5257.4363 eV

Volume:                              0.107328E+05 au^3   0.159043E+04 A^3
Pressure:                            0.730394E-04 au     0.214889E+10 Pa
>> Charges saved for restart in charges.bin

total energy  -1.9320723E+02 H       energy change -1.0491947E-02 H
gradient norm  6.2626117E-02 H/a0    max. gradient  1.2913279E-02 H/a0
step length    3.3629638E-01 a0      max. step      5.8137371E-02 a0

--------------------------------------------------------------------------------

***  Geometry step: 14

 iSCC Total electronic   Diff electronic      SCC error    
    1   -0.19522032E+03    0.00000000E+00    0.16190821E-01
    2   -0.19520201E+03    0.18309781E-01    0.93145978E-02
    3   -0.19520210E+03   -0.87084757E-04    0.17434244E-02
    4   -0.19520212E+03   -0.22441139E-04    0.47129429E-03
    5   -0.19520212E+03   -0.11542482E-05    0.18411888E-03
    6   -0.19520212E+03   -0.43900883E-07    0.44784766E-04
    7   -0.19520212E+03   -0.12173018E-08    0.42903701E-05
    8   -0.19520212E+03   -0.13014301E-09    0.82121523E-06
    9   -0.19520212E+03   -0.68780537E-11    0.25741444E-06
   10   -0.19520212E+03   -0.48316906E-12    0.30005656E-07
   11   -0.19520212E+03    0.28421709E-13    0.42256691E-08

Total Energy:                     -193.2139929570 H        -5257.6203 eV
Extrapolated to 0K:               -193.2139929570 H        -5257.6203 eV
Total Mermin free energy:         -193.2139929570 H        -5257.6203 eV
Force related energy:             -193.2139929570 H        -5257.6203 eV

Volume:                              0.107840E+05 au^3   0.159802E+04 A^3
Pressure:                            0.603046E-04 au     0.177422E+10 Pa
>> Charges saved for restart in charges.bin

total energy  -1.9321399E+02 H       energy change -6.7603602E-03 H
gradient norm  5.4893548E-02 H/a0    max. gradient  1.1168474E-02 H/a0
step length    2.7973600E-01 a0      max. step      5.0531694E-02 a0

--------------------------------------------------------------------------------

***  Geometry step: 15

 iSCC Total electronic   Diff electronic      SCC error    
    1   -0.19520212E+03    0.00000000E+00    0.95216964E-02
    2   -0.19516793E+03    0.34190329E-01    0.54756570E-02
    3   -0.19516797E+03   -0.43211408E-04    0.12866485E-02
    4   -0.19516798E+03   -0.98969325E-05    0.32161025E-03
    5   -0.19516798E+03   -0.53470549E-06    0.13085942E-03
    6   -0.19516798E+03   -0.22538075E-07    0.33021898E-04
    7   -0.19516798E+03   -0.71852924E-09    0.32768855E-05
    8   -0.19516798E+03   -0.62243544E-10    0.69478119E-06
    9   -0.19516798E+03   -0.41495696E-11    0.20388805E-06
   10   -0.19516798E+03   -0.31263880E-12    0.21493765E-07
   11   -0.19516798E+03   -0.56843419E-13    0.35449608E-08

Total Energy:                     -193.2189525042 H        -5257.7552 eV
Extrapolated to 0K:               -193.2189525042 H        -5257.7552 eV
Total Mermin free energy:         -193.2189525042 H        -5257.7552 eV
Force related energy:             -193.2189525042 H        -5257.7552 eV

Volume:                              0.108392E+05 au^3   0.160620E+04 A^3
Pressure:                            0.415574E-04 au     0.122266E+10 Pa
>> Charges saved for restart in charges.bin

total energy  -1.9321895E+02 H       energy change -4.9595472E-03 H
gradient norm  4.9729347E-02 H/a0    max. gradient  8.5293072E-03 H/a0
step length    2.5235025E-01 a0      max. step      4.7466368E-02 a0

--------------------------------------------------------------------------------

***  Geometry step: 16

 iSCC Total electronic   Diff electronic      SCC error    
    1   -0.19516798E+03    0.00000000E+00    0.85975970E-02
    2   -0.19514038E+03    0.27607285E-01    0.48353369E-02
    3   -0.19514041E+03   -0.34801928E-04    0.10349078E-02
    4   -0.19514042E+03   -0.58650117E-05    0.23130186E-03
    5   -0.19514042E+03   -0.30171506E-06    0.91815900E-04
    6   -0.19514042E+03   -0.18103037E-07    0.27479452E-04
    7   -0.19514042E+03   -0.46901505E-09    0.33249637E-05
    8   -0.19514042E+03   -0.31491254E-10    0.53476104E-06
    9   -0.19514042E+03   -0.21884716E-11    0.12263206E-06
   10   -0.19514042E+03   -0.25579538E-12    0.21146919E-07
   11   -0.19514042E+03    0.56843419E-13    0.33258805E-08

Total Energy:                     -193.2233247846 H        -5257.8742 eV
Extrapolated to 0K:               -193.2233247846 H        -5257.8742 eV
Total Mermin free energy:         -193.2233247846 H        -5257.8742 eV
Force related energy:             -193.2233247846 H        -5257.8742 eV

Volume:                              0.108878E+05 au^3   0.161340E+04 A^3
Pressure:                            0.255174E-04 au     0.750748E+09 Pa
>> Charges saved for restart in charges.bin

total energy  -1.9322332E+02 H       energy change -4.3722803E-03 H
gradient norm  5.0036206E-02 H/a0    max. gradient  9.5619051E-03 H/a0
step length    2.3263561E-01 a0      max. step      4.3602705E-02 a0

--------------------------------------------------------------------------------

***  Geometry step: 17

 iSCC Total electronic   Diff electronic      SCC error    
    1   -0.19514042E+03    0.00000000E+00    0.10350921E-01
    2   -0.19512908E+03    0.11332665E-01    0.60057741E-02
    3   -0.19512914E+03   -0.56139972E-04    0.15369788E-02
    4   -0.19512915E+03   -0.96147419E-05    0.19054013E-03
    5   -0.19512915E+03   -0.44028371E-06    0.56988372E-04
    6   -0.19512915E+03   -0.32260914E-07    0.19541817E-04
    7   -0.19512915E+03   -0.87908347E-09    0.49067145E-05
    8   -0.19512915E+03   -0.25494273E-10    0.13987513E-05
    9   -0.19512915E+03   -0.21884716E-11    0.25279668E-06
   10   -0.19512915E+03   -0.22737368E-12    0.36494246E-07
   11   -0.19512915E+03   -0.56843419E-13    0.48921938E-08

Total Energy:                     -193.2284603885 H        -5258.0139 eV
Extrapolated to 0K:               -193.2284603885 H        -5258.0139 eV
Total Mermin free energy:         -193.2284603885 H        -5258.0139 eV
Force related energy:             -193.2284603885 H        -5258.0139 eV

Volume:                              0.109339E+05 au^3   0.162024E+04 A^3
Pressure:                            0.155474E-04 au     0.457421E+09 Pa
>> Charges saved for restart in charges.bin

total energy  -1.9322846E+02 H       energy change -5.1356039E-03 H
gradient norm  5.5641501E-02 H/a0    max. gradient  1.1700075E-02 H/a0
step length    2.7523053E-01 a0      max. step      4.8068205E-02 a0

--------------------------------------------------------------------------------

***  Geometry step: 18

 iSCC Total electronic   Diff electronic      SCC error    
    1   -0.19512915E+03    0.00000000E+00    0.15561521E-01
    2   -0.19513765E+03   -0.84944129E-02    0.91187554E-02
    3   -0.19513774E+03   -0.98006452E-04    0.25208282E-02
    4   -0.19513776E+03   -0.15074064E-04    0.24157467E-03
    5   -0.19513776E+03   -0.77578656E-06    0.46671617E-04
    6   -0.19513776E+03   -0.52710078E-07    0.10610958E-04
    7   -0.19513776E+03   -0.14512125E-08    0.25424234E-05
    8   -0.19513776E+03   -0.34276582E-10    0.96419787E-06
    9   -0.19513776E+03   -0.23590019E-11    0.29960344E-06
   10   -0.19513776E+03   -0.25579538E-12    0.58724543E-07
   11   -0.19513776E+03    0.00000000E+00    0.50202256E-08

Total Energy:                     -193.2341364725 H        -5258.1684 eV
Extrapolated to 0K:               -193.2341364725 H        -5258.1684 eV
Total Mermin free energy:         -193.2341364725 H        -5258.1684 eV
Force related energy:             -193.2341364725 H        -5258.1684 eV

Volume:                              0.109728E+05 au^3   0.162600E+04 A^3
Pressure:                            0.148124E-04 au     0.435795E+09 Pa
>> Charges saved for restart in charges.bin

total energy  -1.9323414E+02 H       energy change -5.6760841E-03 H
gradient norm  5.6378556E-02 H/a0    max. gradient  1.1359192E-02 H/a0
step length    3.1599947E-01 a0      max. step      5.2971065E-02 a0

--------------------------------------------------------------------------------

***  Geometry step: 19

 iSCC Total electronic   Diff electronic      SCC error    
    1   -0.19513776E+03    0.00000000E+00    0.14486016E-01
    2   -0.19515864E+03   -0.20875740E-01    0.85343732E-02
    3   -0.19515877E+03   -0.13274834E-03    0.26693240E-02
    4   -0.19515879E+03   -0.18057121E-04    0.26762395E-03
    5   -0.19515879E+03   -0.90582785E-06    0.75315160E-04
    6   -0.19515879E+03   -0.55888989E-07    0.28299447E-04
    7   -0.19515879E+03   -0.16994477E-08    0.73361028E-05
    8   -0.19515879E+03   -0.51244342E-10    0.20953364E-05
    9   -0.19515879E+03   -0.36664005E-11    0.37439402E-06
   10   -0.19515879E+03   -0.42632564E-12    0.41292132E-07
   11   -0.19515879E+03   -0.85265128E-13    0.55663523E-08

Total Energy:                     -193.2394593691 H        -5258.3132 eV
Extrapolated to 0K:               -193.2394593691 H        -5258.3132 eV
Total Mermin free energy:         -193.2394593691 H        -5258.3132 eV
Force related energy:             -193.2394593691 H        -5258.3132 eV

Volume:                              0.110056E+05 au^3   0.163087E+04 A^3
Pressure:                            0.194928E-04 au     0.573497E+09 Pa
>> Charges saved for restart in charges.bin

total energy  -1.9323946E+02 H       energy change -5.3228966E-03 H
gradient norm  5.0516532E-02 H/a0    max. gradient  1.1467434E-02 H/a0
step length    3.4076614E-01 a0      max. step      6.2399287E-02 a0

--------------------------------------------------------------------------------

***  Geometry step: 20

 iSCC Total electronic   Diff electronic      SCC error    
    1   -0.19515879E+03    0.00000000E+00    0.10140660E-01
    2   -0.19517912E+03   -0.20332907E-01    0.49307952E-02
    3   -0.19517925E+03   -0.12687599E-03    0.16036199E-02
    4   -0.19517926E+03   -0.14785883E-04    0.32062104E-03
    5   -0.19517926E+03   -0.65272064E-06    0.97695066E-04
    6   -0.19517926E+03   -0.40853706E-07    0.32849472E-04
    7   -0.19517926E+03   -0.12692283E-08    0.68144118E-05
    8   -0.19517926E+03   -0.48402171E-10    0.16114737E-05
    9   -0.19517926E+03   -0.38653525E-11    0.25643868E-06
   10   -0.19517926E+03   -0.48316906E-12    0.35067709E-07
   11   -0.19517926E+03    0.85265128E-13    0.48500519E-08

Total Energy:                     -193.2439898147 H        -5258.4365 eV
Extrapolated to 0K:               -193.2439898147 H        -5258.4365 eV
Total Mermin free energy:         -193.2439898147 H        -5258.4365 eV
Force related energy:             -193.2439898147 H        -5258.4365 eV

Volume:                              0.110372E+05 au^3   0.163554E+04 A^3
Pressure:                            0.241382E-04 au     0.710170E+09 Pa
>> Charges saved for restart in charges.bin

total energy  -1.9324399E+02 H       energy change -4.5304456E-03 H
gradient norm  4.3277255E-02 H/a0    max. gradient  1.0704301E-02 H/a0
step length    3.3297025E-01 a0      max. step      6.2109676E-02 a0

--------------------------------------------------------------------------------

***  Geometry step: 21

 iSCC Total electronic   Diff electronic      SCC error    
    1   -0.19517926E+03    0.00000000E+00    0.11611716E-01
    2   -0.19519097E+03   -0.11708021E-01    0.57373630E-02
    3   -0.19519109E+03   -0.11687191E-03    0.16547584E-02
    4   -0.19519110E+03   -0.14508449E-04    0.38514551E-03
    5   -0.19519110E+03   -0.70283176E-06    0.11724460E-03
    6   -0.19519110E+03   -0.35750162E-07    0.35132384E-04
    7   -0.19519110E+03   -0.10867893E-08    0.56925699E-05
    8   -0.19519110E+03   -0.64545702E-10    0.11048086E-05
    9   -0.19519110E+03   -0.50306426E-11    0.22687676E-06
   10   -0.19519110E+03   -0.54001248E-12    0.30632420E-07
   11   -0.19519110E+03    0.00000000E+00    0.44757487E-08

Total Energy:                     -193.2478495404 H        -5258.5415 eV
Extrapolated to 0K:               -193.2478495404 H        -5258.5415 eV
Total Mermin free energy:         -193.2478495404 H        -5258.5415 eV
Force related energy:             -193.2478495404 H        -5258.5415 eV

Volume:                              0.110730E+05 au^3   0.164085E+04 A^3
Pressure:                            0.253045E-04 au     0.744484E+09 Pa
>> Charges saved for restart in charges.bin

total energy  -1.9324785E+02 H       energy change -3.8597257E-03 H
gradient norm  3.7974193E-02 H/a0    max. gradient  8.7422847E-03 H/a0
step length    3.2679986E-01 a0      max. step      6.0763523E-02 a0

--------------------------------------------------------------------------------

***  Geometry step: 22

 iSCC Total electronic   Diff electronic      SCC error    
    1   -0.19519110E+03    0.00000000E+00    0.10961284E-01
    2   -0.19518857E+03    0.25338926E-02    0.60134720E-02
    3   -0.19518863E+03   -0.56952473E-04    0.11968677E-02
    4   -0.19518864E+03   -0.95239037E-05    0.25755788E-03
    5   -0.19518864E+03   -0.48869535E-06    0.84930420E-04
    6   -0.19518864E+03   -0.21730415E-07    0.24759095E-04
    7   -0.19518864E+03   -0.67066708E-09    0.47213967E-05
    8   -0.19518864E+03   -0.40785153E-10    0.88420289E-06
    9   -0.19518864E+03   -0.34958703E-11    0.11754714E-06
   10   -0.19518864E+03   -0.28421709E-12    0.16051683E-07
   11   -0.19518864E+03    0.56843419E-13    0.28208338E-08

Total Energy:                     -193.2502211080 H        -5258.6061 eV
Extrapolated to 0K:               -193.2502211080 H        -5258.6061 eV
Total Mermin free energy:         -193.2502211080 H        -5258.6061 eV
Force related energy:             -193.2502211080 H        -5258.6061 eV

Volume:                              0.111075E+05 au^3   0.164596E+04 A^3
Pressure:                            0.225973E-04 au     0.664835E+09 Pa
>> Charges saved for restart in charges.bin

total energy  -1.9325022E+02 H       energy change -2.3715676E-03 H
gradient norm  3.4609505E-02 H/a0    max. gradient  7.6495581E-03 H/a0
step length    2.4678034E-01 a0      max. step      4.5402671E-02 a0

--------------------------------------------------------------------------------

***  Geometry step: 23

 iSCC Total electronic   Diff electronic      SCC error    
    1   -0.19518864E+03    0.00000000E+00    0.86557099E-02
    2   -0.19517629E+03    0.12342208E-01    0.47964334E-02
    3   -0.19517632E+03   -0.24453426E-04    0.68721485E-03
    4   -0.19517632E+03   -0.54993405E-05    0.10866658E-03
    5   -0.19517632E+03   -0.24588380E-06    0.40286374E-04
    6   -0.19517632E+03   -0.90697654E-08    0.13319787E-04
    7   -0.19517632E+03   -0.32045477E-09    0.32814180E-05
    8   -0.19517632E+03   -0.98623332E-11    0.60062257E-06
    9   -0.19517632E+03   -0.99475983E-12    0.82077782E-07
   10   -0.19517632E+03   -0.17053026E-12    0.13788380E-07
   11   -0.19517632E+03    0.00000000E+00    0.28437479E-08

Total Energy:                     -193.2516141390 H        -5258.6440 eV
Extrapolated to 0K:               -193.2516141390 H        -5258.6440 eV
Total Mermin free energy:         -193.2516141390 H        -5258.6440 eV
Force related energy:             -193.2516141390 H        -5258.6440 eV

Volume:                              0.111366E+05 au^3   0.165028E+04 A^3
Pressure:                            0.159712E-04 au     0.469889E+09 Pa
>> Charges saved for restart in charges.bin

total energy  -1.9325161E+02 H       energy change -1.3930310E-03 H
gradient norm  2.6511086E-02 H/a0    max. gradient  6.9355732E-03 H/a0
step length    1.5089798E-01 a0      max. step      2.6167319E-02 a0

--------------------------------------------------------------------------------

***  Geometry step: 24

 iSCC Total electronic   Diff electronic      SCC error    
    1   -0.19517632E+03    0.00000000E+00    0.45857215E-02
    2   -0.19516653E+03    0.97937509E-02    0.26752839E-02
    3   -0.19516655E+03   -0.19860453E-04    0.70688595E-03
    4   -0.19516655E+03   -0.36182795E-05    0.95464798E-04
    5   -0.19516655E+03   -0.11478625E-06    0.11833104E-04
    6   -0.19516655E+03   -0.64166272E-08    0.32052969E-05
    7   -0.19516655E+03   -0.85890406E-10    0.12463797E-05
    8   -0.19516655E+03   -0.25295321E-11    0.28704607E-06
    9   -0.19516655E+03   -0.11368684E-12    0.72636556E-07
   10   -0.19516655E+03   -0.11368684E-12    0.15245077E-07
   11   -0.19516655E+03    0.00000000E+00    0.20306281E-08

Total Energy:                     -193.2524730654 H        -5258.6674 eV
Extrapolated to 0K:               -193.2524730654 H        -5258.6674 eV
Total Mermin free energy:         -193.2524730654 H        -5258.6674 eV
Force related energy:             -193.2524730654 H        -5258.6674 eV

Volume:                              0.111555E+05 au^3   0.165307E+04 A^3
Pressure:                            0.106830E-04 au     0.314305E+09 Pa
>> Charges saved for restart in charges.bin

total energy  -1.9325247E+02 H       energy change -8.5892640E-04 H
gradient norm  2.1229805E-02 H/a0    max. gradient  5.0998685E-03 H/a0
step length    8.2313702E-02 a0      max. step      1.7817074E-02 a0

--------------------------------------------------------------------------------

***  Geometry step: 25

 iSCC Total electronic   Diff electronic      SCC error    
    1   -0.19516655E+03    0.00000000E+00    0.39861869E-02
    2   -0.19516236E+03    0.41913698E-02    0.20570111E-02
    3   -0.19516238E+03   -0.16243378E-04    0.69825833E-03
    4   -0.19516238E+03   -0.21717285E-05    0.66603680E-04
    5   -0.19516238E+03   -0.68791081E-07    0.18554730E-04
    6   -0.19516238E+03   -0.40924419E-08    0.67086230E-05
    7   -0.19516238E+03   -0.72446937E-10    0.13344108E-05
    8   -0.19516238E+03   -0.34674486E-11    0.26979311E-06
    9   -0.19516238E+03   -0.25579538E-12    0.43542537E-07
   10   -0.19516238E+03   -0.56843419E-13    0.97394111E-08

Total Energy:                     -193.2531791815 H        -5258.6866 eV
Extrapolated to 0K:               -193.2531791815 H        -5258.6866 eV
Total Mermin free energy:         -193.2531791815 H        -5258.6866 eV
Force related energy:             -193.2531791815 H        -5258.6866 eV

Volume:                              0.111697E+05 au^3   0.165517E+04 A^3
Pressure:                            0.794488E-05 au     0.233746E+09 Pa
>> Charges saved for restart in charges.bin

total energy  -1.9325318E+02 H       energy change -7.0611612E-04 H
gradient norm  2.2598539E-02 H/a0    max. gradient  5.2609690E-03 H/a0
step length    6.9647794E-02 a0      max. step      1.8484877E-02 a0

--------------------------------------------------------------------------------

***  Geometry step: 26

 iSCC Total electronic   Diff electronic      SCC error    
    1   -0.19516238E+03    0.00000000E+00    0.69414918E-02
    2   -0.19516194E+03    0.44054895E-03    0.30702133E-02
    3   -0.19516198E+03   -0.36360992E-04    0.10433625E-02
    4   -0.19516198E+03   -0.45022678E-05    0.15403706E-03
    5   -0.19516198E+03   -0.16885676E-06    0.47212055E-04
    6   -0.19516198E+03   -0.84412193E-08    0.14801289E-04
    7   -0.19516198E+03   -0.19099389E-09    0.15314006E-05
    8   -0.19516198E+03   -0.16143531E-10    0.28111317E-06
    9   -0.19516198E+03   -0.93791641E-12    0.85150602E-07
   10   -0.19516198E+03   -0.14210855E-12    0.15681370E-07
   11   -0.19516198E+03    0.85265128E-13    0.16975052E-08

Total Energy:                     -193.2542238765 H        -5258.7150 eV
Extrapolated to 0K:               -193.2542238765 H        -5258.7150 eV
Total Mermin free energy:         -193.2542238765 H        -5258.7150 eV
Force related energy:             -193.2542238765 H        -5258.7150 eV

Volume:                              0.111939E+05 au^3   0.165877E+04 A^3
Pressure:                            0.607862E-05 au     0.178839E+09 Pa
>> Charges saved for restart in charges.bin

total energy  -1.9325422E+02 H       energy change -1.0446950E-03 H
gradient norm  2.5084694E-02 H/a0    max. gradient  5.7164376E-03 H/a0
step length    1.2766651E-01 a0      max. step      3.4104303E-02 a0

--------------------------------------------------------------------------------

***  Geometry step: 27

 iSCC Total electronic   Diff electronic      SCC error    
    1   -0.19516198E+03    0.00000000E+00    0.60366528E-02
    2   -0.19516599E+03   -0.40058451E-02    0.26892025E-02
    3   -0.19516601E+03   -0.25873718E-04    0.95039100E-03
    4   -0.19516602E+03   -0.35994209E-05    0.16589613E-03
    5   -0.19516602E+03   -0.16974366E-06    0.50251700E-04
    6   -0.19516602E+03   -0.67205406E-08    0.14089910E-04
    7   -0.19516602E+03   -0.15035084E-09    0.18396134E-05
    8   -0.19516602E+03   -0.14210855E-10    0.29820357E-06
    9   -0.19516602E+03   -0.11937118E-11    0.95825135E-07
   10   -0.19516602E+03   -0.28421709E-13    0.12772481E-07
   11   -0.19516602E+03    0.00000000E+00    0.21581914E-08

Total Energy:                     -193.2551389774 H        -5258.7399 eV
Extrapolated to 0K:               -193.2551389774 H        -5258.7399 eV
Total Mermin free energy:         -193.2551389774 H        -5258.7399 eV
Force related energy:             -193.2551389774 H        -5258.7399 eV

Volume:                              0.112196E+05 au^3   0.166257E+04 A^3
Pressure:                            0.586485E-05 au     0.172550E+09 Pa
>> Charges saved for restart in charges.bin

total energy  -1.9325514E+02 H       energy change -9.1510092E-04 H
gradient norm  2.2486840E-02 H/a0    max. gradient  5.5645556E-03 H/a0
step length    1.4101460E-01 a0      max. step      3.7107494E-02 a0

--------------------------------------------------------------------------------

***  Geometry step: 28

 iSCC Total electronic   Diff electronic      SCC error    
    1   -0.19516602E+03    0.00000000E+00    0.52131603E-02
    2   -0.19517380E+03   -0.77873101E-02    0.27940282E-02
    3   -0.19517383E+03   -0.24407846E-04    0.90885280E-03
    4   -0.19517383E+03   -0.41789458E-05    0.17623756E-03
    5   -0.19517383E+03   -0.20458378E-06    0.55651156E-04
    6   -0.19517383E+03   -0.70936323E-08    0.15913395E-04
    7   -0.19517383E+03   -0.15745627E-09    0.25027500E-05
    8   -0.19517383E+03   -0.12221335E-10    0.32456919E-06
    9   -0.19517383E+03   -0.17337243E-11    0.10599931E-06
   10   -0.19517383E+03   -0.11368684E-12    0.12353962E-07
   11   -0.19517383E+03    0.17053026E-12    0.28597031E-08

Total Energy:                     -193.2559384838 H        -5258.7616 eV
Extrapolated to 0K:               -193.2559384838 H        -5258.7616 eV
Total Mermin free energy:         -193.2559384838 H        -5258.7616 eV
Force related energy:             -193.2559384838 H        -5258.7616 eV

Volume:                              0.112453E+05 au^3   0.166638E+04 A^3
Pressure:                            0.729065E-05 au     0.214498E+09 Pa
>> Charges saved for restart in charges.bin

total energy  -1.9325594E+02 H       energy change -7.9950643E-04 H
gradient norm  1.8497952E-02 H/a0    max. gradient  4.4587708E-03 H/a0
step length    1.5649187E-01 a0      max. step      3.6757357E-02 a0

--------------------------------------------------------------------------------

***  Geometry step: 29

 iSCC Total electronic   Diff electronic      SCC error    
    1   -0.19517383E+03    0.00000000E+00    0.45379603E-02
    2   -0.19517922E+03   -0.53850073E-02    0.25878890E-02
    3   -0.19517923E+03   -0.12005788E-04    0.51513633E-03
    4   -0.19517923E+03   -0.22471069E-05    0.84050394E-04
    5   -0.19517923E+03   -0.10122073E-06    0.32232033E-04
    6   -0.19517923E+03   -0.27253577E-08    0.90163983E-05
    7   -0.19517923E+03   -0.53177018E-10    0.17938737E-05
    8   -0.19517923E+03   -0.30695446E-11    0.16361000E-06
    9   -0.19517923E+03   -0.73896445E-12    0.46389895E-07
   10   -0.19517923E+03   -0.56843419E-13    0.51236002E-08

Total Energy:                     -193.2564478006 H        -5258.7755 eV
Extrapolated to 0K:               -193.2564478006 H        -5258.7755 eV
Total Mermin free energy:         -193.2564478006 H        -5258.7755 eV
Force related energy:             -193.2564478006 H        -5258.7755 eV

Volume:                              0.112622E+05 au^3   0.166888E+04 A^3
Pressure:                            0.859928E-05 au     0.252999E+09 Pa
>> Charges saved for restart in charges.bin

total energy  -1.9325645E+02 H       energy change -5.0931674E-04 H
gradient norm  1.6255972E-02 H/a0    max. gradient  5.5314136E-03 H/a0
step length    1.1169266E-01 a0      max. step      2.3822530E-02 a0

--------------------------------------------------------------------------------

***  Geometry step: 30

 iSCC Total electronic   Diff electronic      SCC error    
    1   -0.19517923E+03    0.00000000E+00    0.35941912E-02
    2   -0.19518080E+03   -0.15707742E-02    0.20341601E-02
    3   -0.19518081E+03   -0.67602248E-05    0.38564582E-03
    4   -0.19518081E+03   -0.13143340E-05    0.42608610E-04
    5   -0.19518081E+03   -0.58506572E-07    0.16160058E-04
    6   -0.19518081E+03   -0.13163799E-08    0.44234740E-05
    7   -0.19518081E+03   -0.21429969E-10    0.78682861E-06
    8   -0.19518081E+03   -0.14495072E-11    0.82430533E-07
    9   -0.19518081E+03   -0.31263880E-12    0.31782852E-07
   10   -0.19518081E+03    0.28421709E-13    0.53139337E-08

Total Energy:                     -193.2568432603 H        -5258.7863 eV
Extrapolated to 0K:               -193.2568432603 H        -5258.7863 eV
Total Mermin free energy:         -193.2568432603 H        -5258.7863 eV
Force related energy:             -193.2568432603 H        -5258.7863 eV

Volume:                              0.112744E+05 au^3   0.167069E+04 A^3
Pressure:                            0.891565E-05 au     0.262307E+09 Pa
>> Charges saved for restart in charges.bin

total energy  -1.9325684E+02 H       energy change -3.9545975E-04 H
gradient norm  1.5062420E-02 H/a0    max. gradient  5.3898012E-03 H/a0
step length    8.4615790E-02 a0      max. step      1.6389130E-02 a0

--------------------------------------------------------------------------------

***  Geometry step: 31

 iSCC Total electronic   Diff electronic      SCC error    
    1   -0.19518081E+03    0.00000000E+00    0.33046881E-02
    2   -0.19517811E+03    0.27057792E-02    0.18649719E-02
    3   -0.19517811E+03   -0.42615779E-05    0.31877779E-03
    4   -0.19517811E+03   -0.84124386E-06    0.58225326E-04
    5   -0.19517811E+03   -0.42190095E-07    0.21846341E-04
    6   -0.19517811E+03   -0.10263932E-08    0.56449667E-05
    7   -0.19517811E+03   -0.26346925E-10    0.73983094E-06
    8   -0.19517811E+03   -0.23874236E-11    0.15739984E-06
    9   -0.19517811E+03   -0.85265128E-13    0.31065855E-07
   10   -0.19517811E+03   -0.28421709E-13    0.30958751E-08

Total Energy:                     -193.2572185909 H        -5258.7965 eV
Extrapolated to 0K:               -193.2572185909 H        -5258.7965 eV
Total Mermin free energy:         -193.2572185909 H        -5258.7965 eV
Force related energy:             -193.2572185909 H        -5258.7965 eV

Volume:                              0.112852E+05 au^3   0.167230E+04 A^3
Pressure:                            0.741496E-05 au     0.218155E+09 Pa
>> Charges saved for restart in charges.bin

total energy  -1.9325722E+02 H       energy change -3.7533056E-04 H
gradient norm  1.5025677E-02 H/a0    max. gradient  4.3203463E-03 H/a0
step length    7.5352819E-02 a0      max. step      1.3579421E-02 a0

--------------------------------------------------------------------------------

***  Geometry step: 32

 iSCC Total electronic   Diff electronic      SCC error    
    1   -0.19517811E+03    0.00000000E+00    0.27541321E-02
    2   -0.19517372E+03    0.43898085E-02    0.15401227E-02
    3   -0.19517373E+03   -0.49700011E-05    0.33528605E-03
    4   -0.19517373E+03   -0.92161628E-06    0.56677198E-04
    5   -0.19517373E+03   -0.38380875E-07    0.18480885E-04
    6   -0.19517373E+03   -0.13782824E-08    0.48608482E-05
    7   -0.19517373E+03   -0.36123993E-10    0.10688967E-05
    8   -0.19517373E+03   -0.17905677E-11    0.18744587E-06
    9   -0.19517373E+03   -0.14210855E-12    0.41907564E-07
   10   -0.19517373E+03   -0.85265128E-13    0.55106391E-08

Total Energy:                     -193.2576233168 H        -5258.8075 eV
Extrapolated to 0K:               -193.2576233168 H        -5258.8075 eV
Total Mermin free energy:         -193.2576233168 H        -5258.8075 eV
Force related energy:             -193.2576233168 H        -5258.8075 eV

Volume:                              0.112944E+05 au^3   0.167366E+04 A^3
Pressure:                            0.530670E-05 au     0.156129E+09 Pa
>> Charges saved for restart in charges.bin

total energy  -1.9325762E+02 H       energy change -4.0472590E-04 H
gradient norm  1.6147782E-02 H/a0    max. gradient  3.1352999E-03 H/a0
step length    8.2339648E-02 a0      max. step      1.7584500E-02 a0

--------------------------------------------------------------------------------

***  Geometry step: 33

 iSCC Total electronic   Diff electronic      SCC error    
    1   -0.19517373E+03    0.00000000E+00    0.29393215E-02
    2   -0.19516844E+03    0.52863368E-02    0.17115615E-02
    3   -0.19516845E+03   -0.69532556E-05    0.39725679E-03
    4   -0.19516845E+03   -0.13122035E-05    0.66017436E-04
    5   -0.19516845E+03   -0.52668014E-07    0.16687405E-04
    6   -0.19516845E+03   -0.23223095E-08    0.40801879E-05
    7   -0.19516845E+03   -0.49851678E-10    0.11286892E-05
    8   -0.19516845E+03   -0.20179414E-11    0.15996133E-06
    9   -0.19516845E+03   -0.28421709E-12    0.39914438E-07
   10   -0.19516845E+03   -0.56843419E-13    0.56655973E-08

Total Energy:                     -193.2581324436 H        -5258.8213 eV
Extrapolated to 0K:               -193.2581324436 H        -5258.8213 eV
Total Mermin free energy:         -193.2581324436 H        -5258.8213 eV
Force related energy:             -193.2581324436 H        -5258.8213 eV

Volume:                              0.113044E+05 au^3   0.167514E+04 A^3
Pressure:                            0.264229E-05 au     0.777389E+08 Pa
>> Charges saved for restart in charges.bin

total energy  -1.9325813E+02 H       energy change -5.0912682E-04 H
gradient norm  1.8054439E-02 H/a0    max. gradient  3.2224039E-03 H/a0
step length    1.1523782E-01 a0      max. step      2.6233948E-02 a0

--------------------------------------------------------------------------------

***  Geometry step: 34

 iSCC Total electronic   Diff electronic      SCC error    
    1   -0.19516845E+03    0.00000000E+00    0.34310344E-02
    2   -0.19516614E+03    0.23097491E-02    0.19646410E-02
    3   -0.19516615E+03   -0.79311305E-05    0.43981255E-03
    4   -0.19516615E+03   -0.14292831E-05    0.64652806E-04
    5   -0.19516615E+03   -0.64095957E-07    0.23642464E-04
    6   -0.19516615E+03   -0.18736728E-08    0.59519929E-05
    7   -0.19516615E+03   -0.49141136E-10    0.14198394E-05
    8   -0.19516615E+03   -0.19042545E-11    0.24514150E-06
    9   -0.19516615E+03   -0.45474735E-12    0.33932988E-07
   10   -0.19516615E+03    0.00000000E+00    0.67399797E-08

Total Energy:                     -193.2587197348 H        -5258.8373 eV
Extrapolated to 0K:               -193.2587197348 H        -5258.8373 eV
Total Mermin free energy:         -193.2587197348 H        -5258.8373 eV
Force related energy:             -193.2587197348 H        -5258.8373 eV

Volume:                              0.113142E+05 au^3   0.167659E+04 A^3
Pressure:                            0.983134E-06 au     0.289248E+08 Pa
>> Charges saved for restart in charges.bin

total energy  -1.9325872E+02 H       energy change -5.8729123E-04 H
gradient norm  1.9697995E-02 H/a0    max. gradient  3.9656446E-03 H/a0
step length    1.4052873E-01 a0      max. step      3.2311754E-02 a0

--------------------------------------------------------------------------------

***  Geometry step: 35

 iSCC Total electronic   Diff electronic      SCC error    
    1   -0.19516615E+03    0.00000000E+00    0.43931970E-02
    2   -0.19516873E+03   -0.25781251E-02    0.24904401E-02
    3   -0.19516874E+03   -0.11620476E-04    0.57609628E-03
    4   -0.19516874E+03   -0.19016937E-05    0.75403925E-04
    5   -0.19516874E+03   -0.90509332E-07    0.28767498E-04
    6   -0.19516874E+03   -0.23634925E-08    0.84575177E-05
    7   -0.19516874E+03   -0.43172577E-10    0.11469550E-05
    8   -0.19516874E+03   -0.36379788E-11    0.22798277E-06
    9   -0.19516874E+03   -0.28421709E-12    0.55900534E-07
   10   -0.19516874E+03   -0.11368684E-12    0.80415834E-08

Total Energy:                     -193.2594212209 H        -5258.8564 eV
Extrapolated to 0K:               -193.2594212209 H        -5258.8564 eV
Total Mermin free energy:         -193.2594212209 H        -5258.8564 eV
Force related energy:             -193.2594212209 H        -5258.8564 eV

Volume:                              0.113255E+05 au^3   0.167826E+04 A^3
Pressure:                            0.731279E-06 au     0.215150E+08 Pa
>> Charges saved for restart in charges.bin

total energy  -1.9325942E+02 H       energy change -7.0148611E-04 H
gradient norm  1.8926877E-02 H/a0    max. gradient  6.2964875E-03 H/a0
step length    1.8346312E-01 a0      max. step      4.0486066E-02 a0

--------------------------------------------------------------------------------

***  Geometry step: 36

 iSCC Total electronic   Diff electronic      SCC error    
    1   -0.19516874E+03    0.00000000E+00    0.52402373E-02
    2   -0.19517669E+03   -0.79482282E-02    0.29645405E-02
    3   -0.19517670E+03   -0.13101612E-04    0.73206277E-03
    4   -0.19517670E+03   -0.21343663E-05    0.85507706E-04
    5   -0.19517670E+03   -0.80834212E-07    0.26596757E-04
    6   -0.19517670E+03   -0.37066457E-08    0.87103083E-05
    7   -0.19517670E+03   -0.67387873E-10    0.12428243E-05
    8   -0.19517670E+03   -0.43769433E-11    0.22565308E-06
    9   -0.19517670E+03   -0.39790393E-12    0.50228855E-07
   10   -0.19517670E+03    0.00000000E+00    0.67200521E-08

Total Energy:                     -193.2600344107 H        -5258.8731 eV
Extrapolated to 0K:               -193.2600344107 H        -5258.8731 eV
Total Mermin free energy:         -193.2600344107 H        -5258.8731 eV
Force related energy:             -193.2600344107 H        -5258.8731 eV

Volume:                              0.113355E+05 au^3   0.167975E+04 A^3
Pressure:                            0.293182E-05 au     0.862570E+08 Pa
>> Charges saved for restart in charges.bin

total energy  -1.9326003E+02 H       energy change -6.1318980E-04 H
gradient norm  1.7394003E-02 H/a0    max. gradient  7.0925858E-03 H/a0
step length    1.7602629E-01 a0      max. step      3.6278460E-02 a0

--------------------------------------------------------------------------------

***  Geometry step: 37

 iSCC Total electronic   Diff electronic      SCC error    
    1   -0.19517670E+03    0.00000000E+00    0.42039899E-02
    2   -0.19518473E+03   -0.80281249E-02    0.23723212E-02
    3   -0.19518475E+03   -0.16475445E-04    0.63152613E-03
    4   -0.19518475E+03   -0.27128042E-05    0.11706366E-03
    5   -0.19518475E+03   -0.73743308E-07    0.32370065E-04
    6   -0.19518475E+03   -0.53304348E-08    0.11223433E-04
    7   -0.19518475E+03   -0.12980195E-09    0.18711316E-05
    8   -0.19518475E+03   -0.49453774E-11    0.33251663E-06
    9   -0.19518475E+03   -0.54001248E-12    0.61982227E-07
   10   -0.19518475E+03    0.56843419E-13    0.10162867E-07
   11   -0.19518475E+03   -0.56843419E-13    0.15788952E-08

Total Energy:                     -193.2605466064 H        -5258.8870 eV
Extrapolated to 0K:               -193.2605466064 H        -5258.8870 eV
Total Mermin free energy:         -193.2605466064 H        -5258.8870 eV
Force related energy:             -193.2605466064 H        -5258.8870 eV

Volume:                              0.113464E+05 au^3   0.168136E+04 A^3
Pressure:                            0.522559E-05 au     0.153742E+09 Pa
>> Charges saved for restart in charges.bin

total energy  -1.9326055E+02 H       energy change -5.1219565E-04 H
gradient norm  1.6109913E-02 H/a0    max. gradient  6.3236306E-03 H/a0
step length    1.6235160E-01 a0      max. step      3.3316977E-02 a0

--------------------------------------------------------------------------------

***  Geometry step: 38

 iSCC Total electronic   Diff electronic      SCC error    
    1   -0.19518475E+03    0.00000000E+00    0.30678704E-02
    2   -0.19518974E+03   -0.49935009E-02    0.13755102E-02
    3   -0.19518975E+03   -0.10750080E-04    0.47614490E-03
    4   -0.19518976E+03   -0.17980191E-05    0.10992405E-03
    5   -0.19518976E+03   -0.52234583E-07    0.32155619E-04
    6   -0.19518976E+03   -0.38087933E-08    0.10321863E-04
    7   -0.19518976E+03   -0.10098233E-09    0.13233789E-05
    8   -0.19518976E+03   -0.43200998E-11    0.19594083E-06
    9   -0.19518976E+03   -0.36948222E-12    0.45777962E-07
   10   -0.19518976E+03   -0.56843419E-13    0.78917979E-08

Total Energy:                     -193.2609869269 H        -5258.8990 eV
Extrapolated to 0K:               -193.2609869269 H        -5258.8990 eV
Total Mermin free energy:         -193.2609869269 H        -5258.8990 eV
Force related energy:             -193.2609869269 H        -5258.8990 eV

Volume:                              0.113561E+05 au^3   0.168280E+04 A^3
Pressure:                            0.642920E-05 au     0.189154E+09 Pa
>> Charges saved for restart in charges.bin

total energy  -1.9326099E+02 H       energy change -4.4032053E-04 H
gradient norm  1.6888057E-02 H/a0    max. gradient  5.0433167E-03 H/a0
step length    1.3366574E-01 a0      max. step      2.6862157E-02 a0

--------------------------------------------------------------------------------

***  Geometry step: 39

 iSCC Total electronic   Diff electronic      SCC error    
    1   -0.19518976E+03    0.00000000E+00    0.37812405E-02
    2   -0.19519330E+03   -0.35383708E-02    0.20018898E-02
    3   -0.19519331E+03   -0.18653863E-04    0.57138800E-03
    4   -0.19519332E+03   -0.27333790E-05    0.12796726E-03
    5   -0.19519332E+03   -0.10995436E-06    0.42460941E-04
    6   -0.19519332E+03   -0.55834164E-08    0.13656558E-04
    7   -0.19519332E+03   -0.12389023E-09    0.17684655E-05
    8   -0.19519332E+03   -0.76738615E-11    0.21010328E-06
    9   -0.19519332E+03   -0.54001248E-12    0.76913922E-07
   10   -0.19519332E+03   -0.28421709E-13    0.15090851E-07
   11   -0.19519332E+03   -0.28421709E-13    0.16722179E-08

Total Energy:                     -193.2616234247 H        -5258.9163 eV
Extrapolated to 0K:               -193.2616234247 H        -5258.9163 eV
Total Mermin free energy:         -193.2616234247 H        -5258.9163 eV
Force related energy:             -193.2616234247 H        -5258.9163 eV

Volume:                              0.113677E+05 au^3   0.168453E+04 A^3
Pressure:                            0.688546E-05 au     0.202577E+09 Pa
>> Charges saved for restart in charges.bin

total energy  -1.9326162E+02 H       energy change -6.3649777E-04 H
gradient norm  1.8585328E-02 H/a0    max. gradient  4.1695645E-03 H/a0
step length    1.8267520E-01 a0      max. step      3.6837958E-02 a0

--------------------------------------------------------------------------------

***  Geometry step: 40

 iSCC Total electronic   Diff electronic      SCC error    
    1   -0.19519332E+03    0.00000000E+00    0.40582616E-02
    2   -0.19519276E+03    0.56162269E-03    0.21959631E-02
    3   -0.19519277E+03   -0.16027192E-04    0.61990055E-03
    4   -0.19519277E+03   -0.20840883E-05    0.82388777E-04
    5   -0.19519277E+03   -0.12332890E-06    0.29430259E-04
    6   -0.19519277E+03   -0.35776111E-08    0.88815821E-05
    7   -0.19519277E+03   -0.61277206E-10    0.13598294E-05
    8   -0.19519277E+03   -0.48601123E-11    0.27938703E-06
    9   -0.19519277E+03   -0.48316906E-12    0.78224660E-07
   10   -0.19519277E+03    0.85265128E-13    0.83183043E-08

Total Energy:                     -193.2622889446 H        -5258.9345 eV
Extrapolated to 0K:               -193.2622889446 H        -5258.9345 eV
Total Mermin free energy:         -193.2622889446 H        -5258.9345 eV
Force related energy:             -193.2622889446 H        -5258.9345 eV

Volume:                              0.113776E+05 au^3   0.168599E+04 A^3
Pressure:                            0.589694E-05 au     0.173494E+09 Pa
>> Charges saved for restart in charges.bin

total energy  -1.9326229E+02 H       energy change -6.6551992E-04 H
gradient norm  1.8435986E-02 H/a0    max. gradient  4.5814539E-03 H/a0
step length    1.9339254E-01 a0      max. step      4.0287183E-02 a0

--------------------------------------------------------------------------------

***  Geometry step: 41

 iSCC Total electronic   Diff electronic      SCC error    
    1   -0.19519277E+03    0.00000000E+00    0.40051975E-02
    2   -0.19518910E+03    0.36702822E-02    0.16714745E-02
    3   -0.19518912E+03   -0.16515707E-04    0.53111871E-03
    4   -0.19518912E+03   -0.20429266E-05    0.51908465E-04
    5   -0.19518912E+03   -0.10797143E-06    0.13508711E-04
    6   -0.19518912E+03   -0.38909320E-08    0.50009643E-05
    7   -0.19518912E+03   -0.51358029E-10    0.15462923E-05
    8   -0.19518912E+03   -0.17905677E-11    0.33717898E-06
    9   -0.19518912E+03   -0.36948222E-12    0.85441906E-07
   10   -0.19518912E+03   -0.28421709E-13    0.12711816E-07
   11   -0.19518912E+03    0.28421709E-13    0.10488193E-08

Total Energy:                     -193.2628619860 H        -5258.9500 eV
Extrapolated to 0K:               -193.2628619860 H        -5258.9500 eV
Total Mermin free energy:         -193.2628619860 H        -5258.9500 eV
Force related energy:             -193.2628619860 H        -5258.9500 eV

Volume:                              0.113848E+05 au^3   0.168705E+04 A^3
Pressure:                            0.397293E-05 au     0.116888E+09 Pa
>> Charges saved for restart in charges.bin

total energy  -1.9326286E+02 H       energy change -5.7304139E-04 H
gradient norm  1.6358716E-02 H/a0    max. gradient  3.6683469E-03 H/a0
step length    1.8079238E-01 a0      max. step      4.2903316E-02 a0

--------------------------------------------------------------------------------

***  Geometry step: 42

 iSCC Total electronic   Diff electronic      SCC error    
    1   -0.19518912E+03    0.00000000E+00    0.31826843E-02
    2   -0.19518590E+03    0.32181078E-02    0.15494364E-02
    3   -0.19518591E+03   -0.10891481E-04    0.43424926E-03
    4   -0.19518592E+03   -0.15058110E-05    0.72620451E-04
    5   -0.19518592E+03   -0.66060437E-07    0.19478538E-04
    6   -0.19518592E+03   -0.36463064E-08    0.74467215E-05
    7   -0.19518592E+03   -0.46554760E-10    0.15747376E-05
    8   -0.19518592E+03   -0.23021585E-11    0.31357218E-06
    9   -0.19518592E+03   -0.22737368E-12    0.63216019E-07
   10   -0.19518592E+03   -0.85265128E-13    0.85360088E-08

Total Energy:                     -193.2632773995 H        -5258.9614 eV
Extrapolated to 0K:               -193.2632773995 H        -5258.9614 eV
Total Mermin free energy:         -193.2632773995 H        -5258.9614 eV
Force related energy:             -193.2632773995 H        -5258.9614 eV

Volume:                              0.113888E+05 au^3   0.168765E+04 A^3
Pressure:                            0.268984E-05 au     0.791379E+08 Pa
>> Charges saved for restart in charges.bin

total energy  -1.9326328E+02 H       energy change -4.1541347E-04 H
gradient norm  1.4482889E-02 H/a0    max. gradient  3.8140019E-03 H/a0
step length    1.3418378E-01 a0      max. step      3.4213852E-02 a0

--------------------------------------------------------------------------------

***  Geometry step: 43

 iSCC Total electronic   Diff electronic      SCC error    
    1   -0.19518592E+03    0.00000000E+00    0.34010944E-02
    2   -0.19518350E+03    0.24158469E-02    0.19383569E-02
    3   -0.19518351E+03   -0.95182904E-05    0.47512036E-03
    4   -0.19518351E+03   -0.16139059E-05    0.10658988E-03
    5   -0.19518351E+03   -0.73236578E-07    0.37423958E-04
    6   -0.19518351E+03   -0.42484203E-08    0.11473270E-04
    7   -0.19518351E+03   -0.71850081E-10    0.11485487E-05
    8   -0.19518351E+03   -0.58832939E-11    0.16463332E-06
    9   -0.19518351E+03   -0.31263880E-12    0.46656592E-07
   10   -0.19518351E+03   -0.14210855E-12    0.64601231E-08

Total Energy:                     -193.2636582084 H        -5258.9717 eV
Extrapolated to 0K:               -193.2636582084 H        -5258.9717 eV
Total Mermin free energy:         -193.2636582084 H        -5258.9717 eV
Force related energy:             -193.2636582084 H        -5258.9717 eV

Volume:                              0.113940E+05 au^3   0.168841E+04 A^3
Pressure:                            0.159821E-05 au     0.470209E+08 Pa
>> Charges saved for restart in charges.bin

total energy  -1.9326366E+02 H       energy change -3.8080897E-04 H
gradient norm  1.3663317E-02 H/a0    max. gradient  3.7741894E-03 H/a0
step length    1.2466020E-01 a0      max. step      3.0697334E-02 a0

--------------------------------------------------------------------------------

***  Geometry step: 44

 iSCC Total electronic   Diff electronic      SCC error    
    1   -0.19518351E+03    0.00000000E+00    0.37145722E-02
    2   -0.19518415E+03   -0.63816226E-03    0.21703009E-02
    3   -0.19518416E+03   -0.64907151E-05    0.48513011E-03
    4   -0.19518416E+03   -0.12201969E-05    0.11478378E-03
    5   -0.19518416E+03   -0.57724975E-07    0.39206383E-04
    6   -0.19518416E+03   -0.33839456E-08    0.82479129E-05
    7   -0.19518416E+03   -0.65114136E-10    0.58848479E-06
    8   -0.19518416E+03   -0.63664629E-11    0.15862292E-06
    9   -0.19518416E+03   -0.85265128E-13    0.45925886E-07
   10   -0.19518416E+03    0.28421709E-13    0.42170685E-08

Total Energy:                     -193.2639781521 H        -5258.9804 eV
Extrapolated to 0K:               -193.2639781521 H        -5258.9804 eV
Total Mermin free energy:         -193.2639781521 H        -5258.9804 eV
Force related energy:             -193.2639781521 H        -5258.9804 eV

Volume:                              0.113993E+05 au^3   0.168921E+04 A^3
Pressure:                            0.145908E-05 au     0.429277E+08 Pa
>> Charges saved for restart in charges.bin

total energy  -1.9326398E+02 H       energy change -3.1994367E-04 H
gradient norm  1.3746361E-02 H/a0    max. gradient  3.4821923E-03 H/a0
step length    1.1817115E-01 a0      max. step      2.6135243E-02 a0

--------------------------------------------------------------------------------

***  Geometry step: 45

 iSCC Total electronic   Diff electronic      SCC error    
    1   -0.19518416E+03    0.00000000E+00    0.33082090E-02
    2   -0.19518809E+03   -0.39312853E-02    0.18313080E-02
    3   -0.19518810E+03   -0.79026406E-05    0.55657967E-03
    4   -0.19518810E+03   -0.12766507E-05    0.12352762E-03
    5   -0.19518810E+03   -0.64976575E-07    0.39385207E-04
    6   -0.19518810E+03   -0.40216150E-08    0.10366218E-04
    7   -0.19518810E+03   -0.86600949E-10    0.63962183E-06
    8   -0.19518810E+03   -0.70201622E-11    0.19137858E-06
    9   -0.19518810E+03   -0.25579538E-12    0.55209250E-07
   10   -0.19518810E+03   -0.11368684E-12    0.49186859E-08

Total Energy:                     -193.2643176946 H        -5258.9897 eV
Extrapolated to 0K:               -193.2643176946 H        -5258.9897 eV
Total Mermin free energy:         -193.2643176946 H        -5258.9897 eV
Force related energy:             -193.2643176946 H        -5258.9897 eV

Volume:                              0.114044E+05 au^3   0.168995E+04 A^3
Pressure:                            0.255105E-05 au     0.750545E+08 Pa
>> Charges saved for restart in charges.bin

total energy  -1.9326432E+02 H       energy change -3.3954247E-04 H
gradient norm  1.3254989E-02 H/a0    max. gradient  2.6184638E-03 H/a0
step length    1.3338806E-01 a0      max. step      2.6539230E-02 a0

--------------------------------------------------------------------------------

***  Geometry step: 46

 iSCC Total electronic   Diff electronic      SCC error    
    1   -0.19518810E+03    0.00000000E+00    0.33201662E-02
    2   -0.19519237E+03   -0.42705587E-02    0.15771374E-02
    3   -0.19519238E+03   -0.10053491E-04    0.61050321E-03
    4   -0.19519238E+03   -0.12990228E-05    0.12799394E-03
    5   -0.19519238E+03   -0.65351202E-07    0.35927534E-04
    6   -0.19519238E+03   -0.39191264E-08    0.10542868E-04
    7   -0.19519238E+03   -0.91318952E-10    0.61334097E-06
    8   -0.19519238E+03   -0.68780537E-11    0.21224552E-06
    9   -0.19519238E+03   -0.31263880E-12    0.56699889E-07
   10   -0.19519238E+03   -0.85265128E-13    0.60993730E-08

Total Energy:                     -193.2646327455 H        -5258.9982 eV
Extrapolated to 0K:               -193.2646327455 H        -5258.9982 eV
Total Mermin free energy:         -193.2646327455 H        -5258.9982 eV
Force related energy:             -193.2646327455 H        -5258.9982 eV

Volume:                              0.114104E+05 au^3   0.169085E+04 A^3
Pressure:                            0.365606E-05 au     0.107565E+09 Pa
>> Charges saved for restart in charges.bin

total energy  -1.9326463E+02 H       energy change -3.1505094E-04 H
gradient norm  1.2767245E-02 H/a0    max. gradient  2.3295032E-03 H/a0
step length    1.4695531E-01 a0      max. step      2.7367748E-02 a0

--------------------------------------------------------------------------------

***  Geometry step: 47

 iSCC Total electronic   Diff electronic      SCC error    
    1   -0.19519238E+03    0.00000000E+00    0.30153255E-02
    2   -0.19519528E+03   -0.29021773E-02    0.12661949E-02
    3   -0.19519529E+03   -0.68398903E-05    0.41581010E-03
    4   -0.19519529E+03   -0.82289742E-06    0.90213481E-04
    5   -0.19519529E+03   -0.42042615E-07    0.26071187E-04
    6   -0.19519529E+03   -0.24414817E-08    0.80396257E-05
    7   -0.19519529E+03   -0.55280225E-10    0.48938468E-06
    8   -0.19519529E+03   -0.38085091E-11    0.11491438E-06
    9   -0.19519529E+03   -0.14210855E-12    0.34158782E-07
   10   -0.19519529E+03    0.28421709E-13    0.59007910E-08

Total Energy:                     -193.2648960187 H        -5259.0054 eV
Extrapolated to 0K:               -193.2648960187 H        -5259.0054 eV
Total Mermin free energy:         -193.2648960187 H        -5259.0054 eV
Force related energy:             -193.2648960187 H        -5259.0054 eV

Volume:                              0.114148E+05 au^3   0.169150E+04 A^3
Pressure:                            0.446570E-05 au     0.131385E+09 Pa
>> Charges saved for restart in charges.bin

total energy  -1.9326490E+02 H       energy change -2.6327314E-04 H
gradient norm  1.1847613E-02 H/a0    max. gradient  2.7594782E-03 H/a0
step length    1.2365889E-01 a0      max. step      2.5579005E-02 a0

--------------------------------------------------------------------------------

***  Geometry step: 48

 iSCC Total electronic   Diff electronic      SCC error    
    1   -0.19519529E+03    0.00000000E+00    0.36991525E-02
    2   -0.19519584E+03   -0.55274335E-03    0.20629334E-02
    3   -0.19519585E+03   -0.65486954E-05    0.49523391E-03
    4   -0.19519585E+03   -0.92210374E-06    0.64465432E-04
    5   -0.19519585E+03   -0.51110817E-07    0.21803006E-04
    6   -0.19519585E+03   -0.29499461E-08    0.73187730E-05
    7   -0.19519585E+03   -0.51102234E-10    0.81404008E-06
    8   -0.19519585E+03   -0.27000624E-11    0.13271612E-06
    9   -0.19519585E+03   -0.17053026E-12    0.37334620E-07
   10   -0.19519585E+03    0.00000000E+00    0.39846517E-08

Total Energy:                     -193.2651500170 H        -5259.0123 eV
Extrapolated to 0K:               -193.2651500170 H        -5259.0123 eV
Total Mermin free energy:         -193.2651500170 H        -5259.0123 eV
Force related energy:             -193.2651500170 H        -5259.0123 eV

Volume:                              0.114189E+05 au^3   0.169210E+04 A^3
Pressure:                            0.442278E-05 au     0.130123E+09 Pa
>> Charges saved for restart in charges.bin

total energy  -1.9326515E+02 H       energy change -2.5399833E-04 H
gradient norm  1.0670430E-02 H/a0    max. gradient  2.5758578E-03 H/a0
step length    1.1709488E-01 a0      max. step      2.8502424E-02 a0

--------------------------------------------------------------------------------

***  Geometry step: 49

 iSCC Total electronic   Diff electronic      SCC error    
    1   -0.19519585E+03    0.00000000E+00    0.39098867E-02
    2   -0.19519463E+03    0.12154878E-02    0.22545139E-02
    3   -0.19519464E+03   -0.54864668E-05    0.52461171E-03
    4   -0.19519464E+03   -0.97709164E-06    0.65328082E-04
    5   -0.19519464E+03   -0.36852697E-07    0.94651532E-05
    6   -0.19519464E+03   -0.27281146E-08    0.34917790E-05
    7   -0.19519464E+03   -0.40358827E-10    0.93123879E-06
    8   -0.19519464E+03   -0.88107299E-12    0.21805000E-06
    9   -0.19519464E+03   -0.11368684E-12    0.40466991E-07
   10   -0.19519464E+03    0.56843419E-13    0.47448920E-08

Total Energy:                     -193.2653365093 H        -5259.0174 eV
Extrapolated to 0K:               -193.2653365093 H        -5259.0174 eV
Total Mermin free energy:         -193.2653365093 H        -5259.0174 eV
Force related energy:             -193.2653365093 H        -5259.0174 eV

Volume:                              0.114206E+05 au^3   0.169236E+04 A^3
Pressure:                            0.393612E-05 au     0.115805E+09 Pa
>> Charges saved for restart in charges.bin

total energy  -1.9326534E+02 H       energy change -1.8649232E-04 H
gradient norm  9.7475801E-03 H/a0    max. gradient  2.3580654E-03 H/a0
step length    7.6758236E-02 a0      max. step      2.2317863E-02 a0

--------------------------------------------------------------------------------

***  Geometry step: 50

 iSCC Total electronic   Diff electronic      SCC error    
    1   -0.19519464E+03    0.00000000E+00    0.25898069E-02
    2   -0.19519267E+03    0.19723283E-02    0.15507245E-02
    3   -0.19519267E+03   -0.45496284E-05    0.43966782E-03
    4   -0.19519267E+03   -0.80036318E-06    0.48489349E-04
    5   -0.19519267E+03   -0.19559707E-07    0.47510647E-05
    6   -0.19519267E+03   -0.12470878E-08    0.90842579E-06
    7   -0.19519267E+03   -0.28308023E-10    0.29723251E-06
    8   -0.19519267E+03   -0.39790393E-12    0.94994109E-07
    9   -0.19519267E+03   -0.28421709E-13    0.21808234E-07
   10   -0.19519267E+03   -0.85265128E-13    0.61497820E-08

Total Energy:                     -193.2654851107 H        -5259.0214 eV
Extrapolated to 0K:               -193.2654851107 H        -5259.0214 eV
Total Mermin free energy:         -193.2654851107 H        -5259.0214 eV
Force related energy:             -193.2654851107 H        -5259.0214 eV

Volume:                              0.114208E+05 au^3   0.169240E+04 A^3
Pressure:                            0.309335E-05 au     0.910096E+08 Pa
>> Charges saved for restart in charges.bin

[...]
>> Charges saved for restart in charges.bin

total energy  -1.9327547E+02 H       energy change -2.9269913E-06 H
gradient norm  1.2064809E-03 H/a0    max. gradient  2.7502267E-04 H/a0
step length    1.3368610E-02 a0      max. step      2.5089458E-03 a0

--------------------------------------------------------------------------------

***  Geometry step: 173

 iSCC Total electronic   Diff electronic      SCC error    
    1   -0.19518427E+03    0.00000000E+00    0.30186859E-03
    2   -0.19518393E+03    0.33727167E-03    0.16922617E-03
    3   -0.19518393E+03   -0.62872232E-07    0.46872086E-04
    4   -0.19518393E+03   -0.88104457E-08    0.47498508E-05
    5   -0.19518393E+03   -0.31494096E-09    0.15047362E-05
    6   -0.19518393E+03   -0.15631940E-10    0.44573077E-06
    7   -0.19518393E+03   -0.36948222E-12    0.64867939E-07
    8   -0.19518393E+03    0.56843419E-13    0.97411399E-08

Total Energy:                     -193.2754700149 H        -5259.2931 eV
Extrapolated to 0K:               -193.2754700149 H        -5259.2931 eV
Total Mermin free energy:         -193.2754700149 H        -5259.2931 eV
Force related energy:             -193.2754700149 H        -5259.2931 eV

Volume:                              0.112212E+05 au^3   0.166282E+04 A^3
Pressure:                           -0.251423E-06 au    -0.739712E+07 Pa
>> Charges saved for restart in charges.bin

total energy  -1.9327547E+02 H       energy change -2.7639603E-06 H
gradient norm  1.3875276E-03 H/a0    max. gradient  3.0407177E-04 H/a0
step length    1.6033625E-02 a0      max. step      3.4728885E-03 a0

--------------------------------------------------------------------------------

***  Geometry step: 174

 iSCC Total electronic   Diff electronic      SCC error    
    1   -0.19518393E+03    0.00000000E+00    0.24799319E-03
    2   -0.19518371E+03    0.21871599E-03    0.11554571E-03
    3   -0.19518371E+03   -0.82958763E-07    0.39135096E-04
    4   -0.19518371E+03   -0.10129071E-07    0.40183402E-05
    5   -0.19518371E+03   -0.24559199E-09    0.74192564E-06
    6   -0.19518371E+03   -0.15489832E-10    0.17071560E-06
    7   -0.19518371E+03   -0.45474735E-12    0.38863390E-07
    8   -0.19518371E+03    0.28421709E-13    0.90261740E-08

Total Energy:                     -193.2754734238 H        -5259.2932 eV
Extrapolated to 0K:               -193.2754734238 H        -5259.2932 eV
Total Mermin free energy:         -193.2754734238 H        -5259.2932 eV
Force related energy:             -193.2754734238 H        -5259.2932 eV

Volume:                              0.112202E+05 au^3   0.166266E+04 A^3
Pressure:                           -0.318696E-06 au    -0.937636E+07 Pa
>> Charges saved for restart in charges.bin

total energy  -1.9327547E+02 H       energy change -3.4089825E-06 H
gradient norm  1.5468978E-03 H/a0    max. gradient  2.9904622E-04 H/a0
step length    1.9196593E-02 a0      max. step      4.4208410E-03 a0

--------------------------------------------------------------------------------

***  Geometry step: 175

 iSCC Total electronic   Diff electronic      SCC error    
    1   -0.19518371E+03    0.00000000E+00    0.30358863E-03
    2   -0.19518348E+03    0.22648478E-03    0.16943296E-03
    3   -0.19518348E+03   -0.13940021E-06    0.55528050E-04
    4   -0.19518348E+03   -0.18759778E-07    0.43967015E-05
    5   -0.19518348E+03   -0.38500048E-09    0.10499601E-05
    6   -0.19518348E+03   -0.17422508E-10    0.35514270E-06
    7   -0.19518348E+03   -0.25579538E-12    0.71978857E-07
    8   -0.19518348E+03   -0.28421709E-13    0.11129169E-07
    9   -0.19518348E+03   -0.56843419E-13    0.29397786E-08

Total Energy:                     -193.2754778784 H        -5259.2933 eV
Extrapolated to 0K:               -193.2754778784 H        -5259.2933 eV
Total Mermin free energy:         -193.2754778784 H        -5259.2933 eV
Force related energy:             -193.2754778784 H        -5259.2933 eV

Volume:                              0.112184E+05 au^3   0.166239E+04 A^3
Pressure:                           -0.374797E-06 au    -0.110269E+08 Pa
>> Charges saved for restart in charges.bin

total energy  -1.9327548E+02 H       energy change -4.4545670E-06 H
gradient norm  1.4354418E-03 H/a0    max. gradient  2.8353005E-04 H/a0
step length    3.0836459E-02 a0      max. step      6.4510323E-03 a0

--------------------------------------------------------------------------------

***  Geometry step: 176

 iSCC Total electronic   Diff electronic      SCC error    
    1   -0.19518348E+03    0.00000000E+00    0.32247126E-03
    2   -0.19518357E+03   -0.81810819E-04    0.14922354E-03
    3   -0.19518357E+03   -0.95876743E-07    0.37742972E-04
    4   -0.19518357E+03   -0.15296706E-07    0.92579380E-05
    5   -0.19518357E+03   -0.38699000E-09    0.30082602E-05
    6   -0.19518357E+03   -0.17450930E-10    0.75700490E-06
    7   -0.19518357E+03   -0.65369932E-12    0.57860944E-07
    8   -0.19518357E+03    0.11368684E-12    0.88307646E-08

Total Energy:                     -193.2754810095 H        -5259.2934 eV
Extrapolated to 0K:               -193.2754810095 H        -5259.2934 eV
Total Mermin free energy:         -193.2754810095 H        -5259.2934 eV
Force related energy:             -193.2754810095 H        -5259.2934 eV

Volume:                              0.112169E+05 au^3   0.166217E+04 A^3
Pressure:                           -0.303860E-06 au    -0.893986E+07 Pa
>> Charges saved for restart in charges.bin

total energy  -1.9327548E+02 H       energy change -3.1311175E-06 H
gradient norm  1.2993458E-03 H/a0    max. gradient  3.9288789E-04 H/a0
step length    2.0217486E-02 a0      max. step      4.8269087E-03 a0

--------------------------------------------------------------------------------

***  Geometry step: 177

 iSCC Total electronic   Diff electronic      SCC error    
    1   -0.19518357E+03    0.00000000E+00    0.29014811E-03
    2   -0.19518421E+03   -0.64828534E-03    0.16282083E-03
    3   -0.19518421E+03   -0.35641335E-07    0.32199933E-04
    4   -0.19518421E+03   -0.65332415E-08    0.31532307E-05
    5   -0.19518421E+03   -0.31118930E-09    0.84993315E-06
    6   -0.19518421E+03   -0.52011728E-11    0.25896725E-06
    7   -0.19518421E+03   -0.56843419E-13    0.44695801E-07
    8   -0.19518421E+03   -0.85265128E-13    0.11368494E-07
    9   -0.19518421E+03    0.85265128E-13    0.24800548E-08

Total Energy:                     -193.2754826484 H        -5259.2935 eV
Extrapolated to 0K:               -193.2754826484 H        -5259.2935 eV
Total Mermin free energy:         -193.2754826484 H        -5259.2935 eV
Force related energy:             -193.2754826484 H        -5259.2935 eV

Volume:                              0.112166E+05 au^3   0.166213E+04 A^3
Pressure:                            0.199022E-07 au     0.585544E+06 Pa
>> Charges saved for restart in charges.bin

total energy  -1.9327548E+02 H       energy change -1.6388385E-06 H
gradient norm  9.3112829E-04 H/a0    max. gradient  2.8417698E-04 H/a0
step length    4.9505772E-03 a0      max. step      1.2665624E-03 a0

--------------------------------------------------------------------------------

***  Geometry step: 178

 iSCC Total electronic   Diff electronic      SCC error    
    1   -0.19518421E+03    0.00000000E+00    0.21835803E-03
    2   -0.19518438E+03   -0.16758764E-03    0.12515998E-03
    3   -0.19518438E+03   -0.29154762E-07    0.30793281E-04
    4   -0.19518438E+03   -0.49521134E-08    0.24838124E-05
    5   -0.19518438E+03   -0.19173285E-09    0.71456357E-06
    6   -0.19518438E+03   -0.62811978E-11    0.16026803E-06
    7   -0.19518438E+03   -0.56843419E-13    0.36764169E-07
    8   -0.19518438E+03    0.28421709E-13    0.82180036E-08

Total Energy:                     -193.2754837022 H        -5259.2935 eV
Extrapolated to 0K:               -193.2754837022 H        -5259.2935 eV
Total Mermin free energy:         -193.2754837022 H        -5259.2935 eV
Force related energy:             -193.2754837022 H        -5259.2935 eV

Volume:                              0.112165E+05 au^3   0.166211E+04 A^3
Pressure:                            0.967230E-07 au     0.284569E+07 Pa
>> Charges saved for restart in charges.bin

total energy  -1.9327548E+02 H       energy change -1.0538525E-06 H
gradient norm  7.3650901E-04 H/a0    max. gradient  1.6693369E-04 H/a0
step length    3.0477811E-03 a0      max. step      6.4661005E-04 a0

--------------------------------------------------------------------------------

***  Geometry step: 179

 iSCC Total electronic   Diff electronic      SCC error    
    1   -0.19518438E+03    0.00000000E+00    0.13363056E-03
    2   -0.19518437E+03    0.67641492E-05    0.69534473E-04
    3   -0.19518437E+03   -0.11380052E-07    0.17490307E-04
    4   -0.19518437E+03   -0.18619914E-08    0.17280078E-05
    5   -0.19518437E+03   -0.70031092E-10    0.29136272E-06
    6   -0.19518437E+03   -0.28421709E-11    0.85145627E-07
    7   -0.19518437E+03    0.00000000E+00    0.19375507E-07
    8   -0.19518437E+03    0.85265128E-13    0.36843373E-08

Total Energy:                     -193.2754845329 H        -5259.2935 eV
Extrapolated to 0K:               -193.2754845329 H        -5259.2935 eV
Total Mermin free energy:         -193.2754845329 H        -5259.2935 eV
Force related energy:             -193.2754845329 H        -5259.2935 eV

Volume:                              0.112164E+05 au^3   0.166210E+04 A^3
Pressure:                            0.893189E-07 au     0.262785E+07 Pa
>> Charges saved for restart in charges.bin

total energy  -1.9327548E+02 H       energy change -8.3067212E-07 H
gradient norm  7.4989274E-04 H/a0    max. gradient  1.4913070E-04 H/a0
step length    2.8470432E-03 a0      max. step      7.1783484E-04 a0

--------------------------------------------------------------------------------

***  Geometry step: 180

 iSCC Total electronic   Diff electronic      SCC error    
    1   -0.19518437E+03    0.00000000E+00    0.18585534E-03
    2   -0.19518432E+03    0.57835148E-04    0.73329254E-04
    3   -0.19518432E+03   -0.25140167E-07    0.23392886E-04
    4   -0.19518432E+03   -0.36607446E-08    0.18852559E-05
    5   -0.19518432E+03   -0.95297992E-10    0.47740919E-06
    6   -0.19518432E+03   -0.45190518E-11    0.18976869E-06
    7   -0.19518432E+03   -0.28421709E-13    0.41882854E-07
    8   -0.19518432E+03    0.56843419E-13    0.58696363E-08

Total Energy:                     -193.2754859019 H        -5259.2936 eV
Extrapolated to 0K:               -193.2754859019 H        -5259.2936 eV
Total Mermin free energy:         -193.2754859019 H        -5259.2936 eV
Force related energy:             -193.2754859019 H        -5259.2936 eV

Volume:                              0.112164E+05 au^3   0.166209E+04 A^3
Pressure:                            0.766009E-07 au     0.225367E+07 Pa
>> Charges saved for restart in charges.bin

total energy  -1.9327549E+02 H       energy change -1.3689903E-06 H
gradient norm  9.6673762E-04 H/a0    max. gradient  2.6791710E-04 H/a0
step length    6.5415224E-03 a0      max. step      1.7888231E-03 a0

--------------------------------------------------------------------------------

***  Geometry step: 181

 iSCC Total electronic   Diff electronic      SCC error    
    1   -0.19518432E+03    0.00000000E+00    0.22473759E-03
    2   -0.19518413E+03    0.19052089E-03    0.86937536E-04
    3   -0.19518413E+03   -0.29061084E-07    0.27014337E-04
    4   -0.19518413E+03   -0.42932129E-08    0.32338454E-05
    5   -0.19518413E+03   -0.95241148E-10    0.87294835E-06
    6   -0.19518413E+03   -0.58832939E-11    0.31125270E-06
    7   -0.19518413E+03   -0.85265128E-13    0.43023110E-07
    8   -0.19518413E+03    0.00000000E+00    0.41247405E-08

Total Energy:                     -193.2754872373 H        -5259.2936 eV
Extrapolated to 0K:               -193.2754872373 H        -5259.2936 eV
Total Mermin free energy:         -193.2754872373 H        -5259.2936 eV
Force related energy:             -193.2754872373 H        -5259.2936 eV

Volume:                              0.112165E+05 au^3   0.166212E+04 A^3
Pressure:                           -0.552466E-07 au    -0.162541E+07 Pa
>> Charges saved for restart in charges.bin

total energy  -1.9327549E+02 H       energy change -1.3354078E-06 H
gradient norm  1.1937225E-03 H/a0    max. gradient  3.4925499E-04 H/a0
step length    6.3299915E-03 a0      max. step      1.6086658E-03 a0

--------------------------------------------------------------------------------

***  Geometry step: 182

 iSCC Total electronic   Diff electronic      SCC error    
    1   -0.19518413E+03    0.00000000E+00    0.35468769E-03
    2   -0.19518398E+03    0.14629605E-03    0.13682527E-03
    3   -0.19518398E+03   -0.76635388E-07    0.37074114E-04
    4   -0.19518398E+03   -0.96031556E-08    0.52483664E-05
    5   -0.19518398E+03   -0.22876634E-09    0.14324365E-05
    6   -0.19518398E+03   -0.16143531E-10    0.48135372E-06
    7   -0.19518398E+03   -0.54001248E-12    0.66602017E-07
    8   -0.19518398E+03    0.85265128E-13    0.66081256E-08

Total Energy:                     -193.2754888348 H        -5259.2936 eV
Extrapolated to 0K:               -193.2754888348 H        -5259.2936 eV
Total Mermin free energy:         -193.2754888348 H        -5259.2936 eV
Force related energy:             -193.2754888348 H        -5259.2936 eV

Volume:                              0.112168E+05 au^3   0.166215E+04 A^3
Pressure:                           -0.785646E-07 au    -0.231145E+07 Pa
>> Charges saved for restart in charges.bin

total energy  -1.9327549E+02 H       energy change -1.5974867E-06 H
gradient norm  1.0430870E-03 H/a0    max. gradient  2.7115012E-04 H/a0
step length    1.1006127E-02 a0      max. step      3.1219850E-03 a0

--------------------------------------------------------------------------------

***  Geometry step: 183

 iSCC Total electronic   Diff electronic      SCC error    
    1   -0.19518398E+03    0.00000000E+00    0.14796073E-03
    2   -0.19518392E+03    0.61132852E-04    0.66292316E-04
    3   -0.19518392E+03   -0.21192164E-07    0.20471620E-04
    4   -0.19518392E+03   -0.30292711E-08    0.32429371E-05
    5   -0.19518392E+03   -0.78586027E-10    0.56536921E-06
    6   -0.19518392E+03   -0.67927886E-11    0.20217798E-06
    7   -0.19518392E+03   -0.85265128E-13    0.41025146E-07
    8   -0.19518392E+03   -0.28421709E-13    0.42873571E-08

Total Energy:                     -193.2754898629 H        -5259.2937 eV
Extrapolated to 0K:               -193.2754898629 H        -5259.2937 eV
Total Mermin free energy:         -193.2754898629 H        -5259.2937 eV
Force related energy:             -193.2754898629 H        -5259.2937 eV

Volume:                              0.112170E+05 au^3   0.166218E+04 A^3
Pressure:                           -0.125605E-06 au    -0.369542E+07 Pa
>> Charges saved for restart in charges.bin

total energy  -1.9327549E+02 H       energy change -1.0281414E-06 H
gradient norm  6.7617683E-04 H/a0    max. gradient  1.8565547E-04 H/a0
step length    3.0130455E-03 a0      max. step      5.3869375E-04 a0

--------------------------------------------------------------------------------

***  Geometry step: 184

 iSCC Total electronic   Diff electronic      SCC error    
    1   -0.19518392E+03    0.00000000E+00    0.31257442E-03
    2   -0.19518383E+03    0.90712161E-04    0.10945841E-03
    3   -0.19518383E+03   -0.54760136E-07    0.30605676E-04
    4   -0.19518383E+03   -0.74008426E-08    0.33150760E-05
    5   -0.19518383E+03   -0.15108981E-09    0.51387787E-06
    6   -0.19518383E+03   -0.89244168E-11    0.17577917E-06
    7   -0.19518383E+03   -0.22737368E-12    0.51150193E-07
    8   -0.19518383E+03   -0.28421709E-13    0.83479570E-08

Total Energy:                     -193.2754909450 H        -5259.2937 eV
Extrapolated to 0K:               -193.2754909450 H        -5259.2937 eV
Total Mermin free energy:         -193.2754909450 H        -5259.2937 eV
Force related energy:             -193.2754909450 H        -5259.2937 eV

Volume:                              0.112158E+05 au^3   0.166202E+04 A^3
Pressure:                           -0.165279E-06 au    -0.486266E+07 Pa
>> Charges saved for restart in charges.bin

total energy  -1.9327549E+02 H       energy change -1.0820866E-06 H
gradient norm  6.6943753E-04 H/a0    max. gradient  1.7638998E-04 H/a0
step length    1.9304260E-02 a0      max. step      4.3899785E-03 a0

--------------------------------------------------------------------------------

***  Geometry step: 185

 iSCC Total electronic   Diff electronic      SCC error    
    1   -0.19518383E+03    0.00000000E+00    0.72408761E-04
    2   -0.19518393E+03   -0.97722616E-04    0.35224677E-04
    3   -0.19518393E+03   -0.42977604E-08    0.95412567E-05
    4   -0.19518393E+03   -0.78264861E-09    0.18893830E-05
    5   -0.19518393E+03   -0.15518253E-10    0.47613689E-06
    6   -0.19518393E+03   -0.11084467E-11    0.14248799E-06
    7   -0.19518393E+03    0.28421709E-13    0.19138956E-07
    8   -0.19518393E+03    0.28421709E-13    0.15674604E-08

Total Energy:                     -193.2754912551 H        -5259.2937 eV
Extrapolated to 0K:               -193.2754912551 H        -5259.2937 eV
Total Mermin free energy:         -193.2754912551 H        -5259.2937 eV
Force related energy:             -193.2754912551 H        -5259.2937 eV

Volume:                              0.112158E+05 au^3   0.166200E+04 A^3
Pressure:                           -0.865653E-07 au    -0.254684E+07 Pa
>> Charges saved for restart in charges.bin

total energy  -1.9327549E+02 H       energy change -3.1014008E-07 H
gradient norm  5.2012673E-04 H/a0    max. gradient  1.3922271E-04 H/a0
step length    8.8438678E-04 a0      max. step      2.0740206E-04 a0

--------------------------------------------------------------------------------

***  Geometry step: 186

 iSCC Total electronic   Diff electronic      SCC error    
    1   -0.19518393E+03    0.00000000E+00    0.11394144E-03
    2   -0.19518406E+03   -0.12905207E-03    0.54970984E-04
    3   -0.19518406E+03   -0.13974926E-07    0.16538335E-04
    4   -0.19518406E+03   -0.23312907E-08    0.34065636E-05
    5   -0.19518406E+03   -0.51386451E-10    0.71964712E-06
    6   -0.19518406E+03   -0.39506176E-11    0.21695218E-06
    7   -0.19518406E+03   -0.14210855E-12    0.31226934E-07
    8   -0.19518406E+03   -0.85265128E-13    0.25127780E-08

Total Energy:                     -193.2754917494 H        -5259.2937 eV
Extrapolated to 0K:               -193.2754917494 H        -5259.2937 eV
Total Mermin free energy:         -193.2754917494 H        -5259.2937 eV
Force related energy:             -193.2754917494 H        -5259.2937 eV

Volume:                              0.112156E+05 au^3   0.166198E+04 A^3
Pressure:                           -0.315741E-07 au    -0.928943E+06 Pa
>> Charges saved for restart in charges.bin

total energy  -1.9327549E+02 H       energy change -4.9427416E-07 H
gradient norm  5.4150526E-04 H/a0    max. gradient  9.5419273E-05 H/a0
step length    1.9654313E-03 a0      max. step      4.0367011E-04 a0

Geometry converged

--------------------------------------------------------------------------------
DFTB+ running times                          cpu [s]             wall clock [s]
--------------------------------------------------------------------------------
Pre-SCC initialisation                 +      21.42 (  1.2%)       2.56 (  1.1%)
SCC                                    +    1649.74 ( 89.7%)     208.28 ( 90.8%)
Post-SCC processing                    +     166.88 (  9.1%)      18.42 (  8.0%)
--------------------------------------------------------------------------------
Missing                                +       0.12 (  0.0%)       0.01 (  0.0%)
Total                                  =    1838.15 (100.0%)     229.26 (100.0%)
--------------------------------------------------------------------------------
