|===============================================================================
|
|  DFTB+ release 24.1
|
|  Copyright (C) 2006 - 2024  DFTB+ developers group
|
|===============================================================================
|
|  When publishing results obtained with DFTB+, please cite the following
|  reference:
|
|  * DFTB+, a software package for efficient approximate density functional
|    theory based atomistic simulations, J. Chem. Phys. 152, 124101 (2020).
|    [doi: 10.1063/1.5143190]
|
|  You should also cite additional publications crediting the parametrization
|  data you use. Please consult the documentation of the SK-files for the
|  references.
|
|===============================================================================

Reading input file 'dftb_in.hsd'
Parser version: 14

--------------------------------------------------------------------------------
Reading SK-files:
./SKFiles/Si-Si.skf
./SKFiles/Si-Ge.skf
./SKFiles/Si-O.skf
./SKFiles/Ge-Ge.skf
./SKFiles/Ge-O.skf
./SKFiles/O-O.skf
Done.


Processed input in HSD format written to 'dftb_pin.hsd'

Starting initialization...
--------------------------------------------------------------------------------
WARNING!
-> Dipole printed for extended system : value printed is not well defined
MPI processes:               1
OpenMP threads:              8
BLACS orbital grid size:     1 x 1
BLACS atom grid size:        1 x 1
Chosen random seed:          158783522
Current stacksize:           unlimited
Mode:                        Static calculation
Self consistent charges:     Yes
SCC-tolerance:                 0.100000E-07
Max. scc iterations:                    500
Shell resolved Hubbard:      No
Spin polarisation:           No
Nr. of up electrons:           192.000000
Nr. of down electrons:         192.000000
Periodic boundaries:         Yes
Electronic solver:           Relatively robust
Mixer:                       Broyden mixer
Mixing parameter:                  0.200000
Maximal SCC-cycles:                     500
Nr. of chrg. vec. in memory:            500
Electronic temperature:              0.100000E-07 H      0.272114E-06 eV
Initial charges:             Set automatically (system chrg:   0.000E+00)
Included shells:            Si:  s, p, d
                            Ge:  s, p, d
                             O:  s, p
K-points and weights:           1:  0.500000  0.500000  0.500000     1.000000

K-points in absolute space:     1:  0.025319  0.017606  0.037774

Extra options:
                             Mulliken analysis
Force type                   original

--------------------------------------------------------------------------------

***  Geometry step: 0

 iSCC Total electronic   Diff electronic      SCC error    
    1    0.00000000E+00    0.00000000E+00    0.14260794E+01
    2   -0.19732529E+03   -0.19732529E+03    0.96680749E+00
    3   -0.19766801E+03   -0.34272167E+00    0.38759221E-01
    4   -0.19795678E+03   -0.28877178E+00    0.23310792E-01
    5   -0.19795832E+03   -0.15401695E-02    0.34499133E-02
    6   -0.19795843E+03   -0.10649350E-03    0.13651996E-02
    7   -0.19795843E+03   -0.23750463E-05    0.31520679E-03
    8   -0.19795843E+03   -0.55639276E-06    0.61695746E-04
    9   -0.19795843E+03   -0.34502506E-07    0.18498259E-04
   10   -0.19795843E+03   -0.21515234E-09    0.37408982E-05
   11   -0.19795843E+03   -0.81968210E-10    0.37589205E-06
   12   -0.19795843E+03   -0.36095571E-11    0.13942163E-06
   13   -0.19795843E+03    0.00000000E+00    0.22473523E-07
   14   -0.19795843E+03   -0.28421709E-13    0.46566067E-08

Total Energy:                     -190.4242319392 H        -5181.7070 eV
Extrapolated to 0K:               -190.4242319392 H        -5181.7070 eV
Total Mermin free energy:         -190.4242319392 H        -5181.7070 eV
Force related energy:             -190.4242319392 H        -5181.7070 eV

Volume:                              0.913789E+04 au^3   0.135410E+04 A^3
Pressure:                            0.249578E-02 au     0.734285E+11 Pa
>> Charges saved for restart in charges.bin

total energy  -1.9042423E+02 H       energy change -1.9042423E+02 H
gradient norm  2.2259408E+00 H/a0    max. gradient  1.1960462E+00 H/a0
step length    0.0000000E+00 a0      max. step      0.0000000E+00 a0

--------------------------------------------------------------------------------

***  Geometry step: 1

 iSCC Total electronic   Diff electronic      SCC error    
    1   -0.19795843E+03    0.00000000E+00    0.13336600E+00
    2   -0.19727487E+03    0.68356356E+00    0.66345908E-01
    3   -0.19729081E+03   -0.15939348E-01    0.21151203E-01
    4   -0.19729366E+03   -0.28529155E-02    0.19986310E-02
    5   -0.19729372E+03   -0.66182859E-04    0.80801130E-03
    6   -0.19729373E+03   -0.38944327E-05    0.31069336E-03
    7   -0.19729373E+03   -0.13749025E-06    0.34793195E-04
    8   -0.19729373E+03   -0.19434253E-07    0.93930416E-05
    9   -0.19729373E+03   -0.80774498E-09    0.33727919E-05
   10   -0.19729373E+03   -0.13358203E-10    0.74237351E-06
   11   -0.19729373E+03   -0.71054274E-12    0.17969387E-06
   12   -0.19729373E+03   -0.31263880E-12    0.32372947E-07
   13   -0.19729373E+03   -0.28421709E-13    0.26503919E-08

Total Energy:                     -191.1578942151 H        -5201.6710 eV
Extrapolated to 0K:               -191.1578942151 H        -5201.6710 eV
Total Mermin free energy:         -191.1578942151 H        -5201.6710 eV
Force related energy:             -191.1578942151 H        -5201.6710 eV

Volume:                              0.971068E+04 au^3   0.143898E+04 A^3
Pressure:                            0.176900E-02 au     0.520458E+11 Pa
>> Charges saved for restart in charges.bin

total energy  -1.9115789E+02 H       energy change -7.3366228E-01 H
gradient norm  1.4707864E+00 H/a0    max. gradient  2.7431028E-01 H/a0
step length    8.0029343E-01 a0      max. step      4.3001502E-01 a0

--------------------------------------------------------------------------------

***  Geometry step: 2

 iSCC Total electronic   Diff electronic      SCC error    
    1   -0.19729373E+03    0.00000000E+00    0.49602823E-01
    2   -0.19694290E+03    0.35082339E+00    0.25209799E-01
    3   -0.19694622E+03   -0.33193992E-02    0.67534647E-02
    4   -0.19694689E+03   -0.66698737E-03    0.88818151E-03
    5   -0.19694691E+03   -0.21133407E-04    0.24512733E-03
    6   -0.19694691E+03   -0.12540870E-05    0.10045120E-03
    7   -0.19694691E+03   -0.19841792E-07    0.19525904E-04
    8   -0.19694691E+03   -0.27392559E-08    0.44095264E-05
    9   -0.19694691E+03   -0.23501912E-09    0.13540783E-05
   10   -0.19694691E+03   -0.29558578E-11    0.42211252E-06
   11   -0.19694691E+03   -0.28421709E-13    0.12054375E-06
   12   -0.19694691E+03   -0.17053026E-12    0.22142378E-07
   13   -0.19694691E+03   -0.28421709E-13    0.17951924E-08

Total Energy:                     -191.9467398364 H        -5223.1365 eV
Extrapolated to 0K:               -191.9467398364 H        -5223.1365 eV
Total Mermin free energy:         -191.9467398364 H        -5223.1365 eV
Force related energy:             -191.9467398364 H        -5223.1365 eV

Volume:                              0.986925E+04 au^3   0.146247E+04 A^3
Pressure:                            0.130405E-02 au     0.383665E+11 Pa
>> Charges saved for restart in charges.bin

total energy  -1.9194674E+02 H       energy change -7.8884562E-01 H
gradient norm  9.1492253E-01 H/a0    max. gradient  1.6340673E-01 H/a0
step length    7.4989204E-01 a0      max. step      1.5235048E-01 a0

--------------------------------------------------------------------------------

***  Geometry step: 3

 iSCC Total electronic   Diff electronic      SCC error    
    1   -0.19694691E+03    0.00000000E+00    0.71459475E-01
    2   -0.19656489E+03    0.38202551E+00    0.30061101E-01
    3   -0.19656865E+03   -0.37596431E-02    0.98225610E-02
    4   -0.19656932E+03   -0.67140594E-03    0.10005158E-02
    5   -0.19656936E+03   -0.38437780E-04    0.24036395E-03
    6   -0.19656936E+03   -0.14075274E-05    0.10998621E-03
    7   -0.19656936E+03   -0.24724869E-07    0.28604073E-04
    8   -0.19656936E+03   -0.28863667E-08    0.81653785E-05
    9   -0.19656936E+03   -0.32346748E-09    0.24399494E-05
   10   -0.19656936E+03   -0.64233063E-11    0.58068148E-06
   11   -0.19656936E+03   -0.31263880E-12    0.10293413E-06
   12   -0.19656936E+03   -0.11368684E-12    0.13869227E-07
   13   -0.19656936E+03    0.85265128E-13    0.29518246E-08

Total Energy:                     -192.4798821122 H        -5237.6441 eV
Extrapolated to 0K:               -192.4798821122 H        -5237.6441 eV
Total Mermin free energy:         -192.4798821122 H        -5237.6441 eV
Force related energy:             -192.4798821122 H        -5237.6441 eV

Volume:                              0.999822E+04 au^3   0.148158E+04 A^3
Pressure:                            0.939469E-03 au     0.276401E+11 Pa
>> Charges saved for restart in charges.bin

total energy  -1.9247988E+02 H       energy change -5.3314228E-01 H
gradient norm  5.9261833E-01 H/a0    max. gradient  1.4528722E-01 H/a0
step length    7.7951326E-01 a0      max. step      1.8204575E-01 a0

--------------------------------------------------------------------------------

***  Geometry step: 4

 iSCC Total electronic   Diff electronic      SCC error    
    1   -0.19656936E+03    0.00000000E+00    0.61012742E-01
    2   -0.19615685E+03    0.41251369E+00    0.36620077E-01
    3   -0.19615953E+03   -0.26802073E-02    0.64497044E-02
    4   -0.19616016E+03   -0.63069443E-03    0.93639760E-03
    5   -0.19616019E+03   -0.36753632E-04    0.28153922E-03
    6   -0.19616019E+03   -0.10981214E-05    0.98076054E-04
    7   -0.19616019E+03   -0.21873348E-07    0.31673370E-04
    8   -0.19616019E+03   -0.18709159E-08    0.87582279E-05
    9   -0.19616019E+03   -0.26091129E-09    0.23237095E-05
   10   -0.19616019E+03   -0.45474735E-11    0.36593563E-06
   11   -0.19616019E+03   -0.39790393E-12    0.89859509E-07
   12   -0.19616019E+03    0.28421709E-13    0.19986767E-07
   13   -0.19616019E+03   -0.56843419E-13    0.19233211E-08

Total Energy:                     -192.8006390378 H        -5246.3723 eV
Extrapolated to 0K:               -192.8006390378 H        -5246.3723 eV
Total Mermin free energy:         -192.8006390378 H        -5246.3723 eV
Force related energy:             -192.8006390378 H        -5246.3723 eV

Volume:                              0.101481E+05 au^3   0.150379E+04 A^3
Pressure:                            0.645159E-03 au     0.189812E+11 Pa
>> Charges saved for restart in charges.bin

total energy  -1.9280064E+02 H       energy change -3.2075693E-01 H
gradient norm  4.6076521E-01 H/a0    max. gradient  2.5835807E-01 H/a0
step length    7.5354642E-01 a0      max. step      1.3958749E-01 a0

--------------------------------------------------------------------------------

***  Geometry step: 5

 iSCC Total electronic   Diff electronic      SCC error    
    1   -0.19616019E+03    0.00000000E+00    0.62442563E-01
    2   -0.19572078E+03    0.43940949E+00    0.38394774E-01
    3   -0.19572291E+03   -0.21212176E-02    0.70977254E-02
    4   -0.19572340E+03   -0.49887018E-03    0.12787418E-02
    5   -0.19572344E+03   -0.31785975E-04    0.32143684E-03
    6   -0.19572344E+03   -0.79467824E-06    0.13253631E-03
    7   -0.19572344E+03   -0.15392175E-07    0.44150900E-04
    8   -0.19572344E+03   -0.15807018E-08    0.10076873E-04
    9   -0.19572344E+03   -0.16444801E-09    0.23832884E-05
   10   -0.19572344E+03   -0.80717655E-11    0.24631243E-06
   11   -0.19572344E+03   -0.54001248E-12    0.33492485E-07
   12   -0.19572344E+03   -0.28421709E-13    0.12075378E-07
   13   -0.19572344E+03   -0.28421709E-13    0.45679718E-08

Total Energy:                     -192.9876444104 H        -5251.4610 eV
Extrapolated to 0K:               -192.9876444104 H        -5251.4610 eV
Total Mermin free energy:         -192.9876444104 H        -5251.4610 eV
Force related energy:             -192.9876444104 H        -5251.4610 eV

Volume:                              0.103440E+05 au^3   0.153282E+04 A^3
Pressure:                            0.389200E-03 au     0.114507E+11 Pa
>> Charges saved for restart in charges.bin

total energy  -1.9298764E+02 H       energy change -1.8700537E-01 H
gradient norm  3.1162431E-01 H/a0    max. gradient  1.4801942E-01 H/a0
step length    7.0864080E-01 a0      max. step      2.4688585E-01 a0

--------------------------------------------------------------------------------

***  Geometry step: 6

 iSCC Total electronic   Diff electronic      SCC error    
    1   -0.19572344E+03    0.00000000E+00    0.47994161E-01
    2   -0.19539497E+03    0.32847196E+00    0.26892289E-01
    3   -0.19539632E+03   -0.13536671E-02    0.35269306E-02
    4   -0.19539663E+03   -0.30909005E-03    0.73254793E-03
    5   -0.19539664E+03   -0.14125887E-04    0.30043450E-03
    6   -0.19539664E+03   -0.48692243E-06    0.11817502E-03
    7   -0.19539664E+03   -0.76009599E-08    0.28949044E-04
    8   -0.19539664E+03   -0.73259798E-09    0.67214321E-05
    9   -0.19539664E+03   -0.10297185E-09    0.14950009E-05
   10   -0.19539664E+03   -0.30979663E-11    0.10751450E-06
   11   -0.19539664E+03   -0.19895197E-12    0.29666264E-07
   12   -0.19539664E+03   -0.17053026E-12    0.95459725E-08

Total Energy:                     -193.0746791479 H        -5253.8293 eV
Extrapolated to 0K:               -193.0746791479 H        -5253.8293 eV
Total Mermin free energy:         -193.0746791479 H        -5253.8293 eV
Force related energy:             -193.0746791479 H        -5253.8293 eV

Volume:                              0.104915E+05 au^3   0.155468E+04 A^3
Pressure:                            0.222057E-03 au     0.653315E+10 Pa
>> Charges saved for restart in charges.bin

total energy  -1.9307468E+02 H       energy change -8.7034738E-02 H
gradient norm  1.8130216E-01 H/a0    max. gradient  7.8029440E-02 H/a0
step length    5.6886724E-01 a0      max. step      1.1052721E-01 a0

--------------------------------------------------------------------------------

***  Geometry step: 7

 iSCC Total electronic   Diff electronic      SCC error    
    1   -0.19539664E+03    0.00000000E+00    0.40616973E-01
    2   -0.19520842E+03    0.18821841E+00    0.17926854E-01
    3   -0.19520939E+03   -0.96214037E-03    0.30737849E-02
    4   -0.19520956E+03   -0.17194035E-03    0.42482198E-03
    5   -0.19520956E+03   -0.50382942E-05    0.18726918E-03
    6   -0.19520956E+03   -0.28058079E-06    0.70979577E-04
    7   -0.19520956E+03   -0.69567818E-08    0.19755774E-04
    8   -0.19520956E+03   -0.30024694E-09    0.41133646E-05
    9   -0.19520956E+03   -0.45560000E-10    0.12353467E-05
   10   -0.19520956E+03   -0.26716407E-11    0.13322746E-06
   11   -0.19520956E+03   -0.11368684E-12    0.17219500E-07
   12   -0.19520956E+03    0.11368684E-12    0.35659644E-08

Total Energy:                     -193.1116801372 H        -5254.8362 eV
Extrapolated to 0K:               -193.1116801372 H        -5254.8362 eV
Total Mermin free energy:         -193.1116801372 H        -5254.8362 eV
Force related energy:             -193.1116801372 H        -5254.8362 eV

Volume:                              0.105711E+05 au^3   0.156647E+04 A^3
Pressure:                            0.136046E-03 au     0.400262E+10 Pa
>> Charges saved for restart in charges.bin

total energy  -1.9311168E+02 H       energy change -3.7000989E-02 H
gradient norm  1.4757163E-01 H/a0    max. gradient  5.2847935E-02 H/a0
step length    4.4624878E-01 a0      max. step      7.8525140E-02 a0

--------------------------------------------------------------------------------

***  Geometry step: 8

 iSCC Total electronic   Diff electronic      SCC error    
    1   -0.19520956E+03    0.00000000E+00    0.19597002E-01
    2   -0.19509409E+03    0.11547806E+00    0.90908741E-02
    3   -0.19509452E+03   -0.43635005E-03    0.24993929E-02
    4   -0.19509459E+03   -0.64446663E-04    0.42258101E-03
    5   -0.19509459E+03   -0.22980147E-05    0.92020759E-04
    6   -0.19509459E+03   -0.11200942E-06    0.19663202E-04
    7   -0.19509459E+03   -0.49300581E-08    0.87918505E-05
    8   -0.19509459E+03   -0.14907187E-09    0.29163136E-05
    9   -0.19509459E+03   -0.12221335E-10    0.72924362E-06
   10   -0.19509459E+03   -0.96633812E-12    0.10924192E-06
   11   -0.19509459E+03   -0.56843419E-13    0.11215048E-07
   12   -0.19509459E+03    0.56843419E-13    0.28567642E-08

Total Energy:                     -193.1342120804 H        -5255.4493 eV
Extrapolated to 0K:               -193.1342120804 H        -5255.4493 eV
Total Mermin free energy:         -193.1342120804 H        -5255.4493 eV
Force related energy:             -193.1342120804 H        -5255.4493 eV

Volume:                              0.106353E+05 au^3   0.157599E+04 A^3
Pressure:                            0.781198E-04 au     0.229836E+10 Pa
>> Charges saved for restart in charges.bin

total energy  -1.9313421E+02 H       energy change -2.2531943E-02 H
gradient norm  1.1560014E-01 H/a0    max. gradient  2.9018361E-02 H/a0
step length    3.7006462E-01 a0      max. step      7.6476048E-02 a0

--------------------------------------------------------------------------------

***  Geometry step: 9

 iSCC Total electronic   Diff electronic      SCC error    
    1   -0.19509459E+03    0.00000000E+00    0.19105034E-01
    2   -0.19507404E+03    0.20547115E-01    0.11209483E-01
    3   -0.19507435E+03   -0.30947989E-03    0.32047577E-02
    4   -0.19507440E+03   -0.48146003E-04    0.44353553E-03
    5   -0.19507440E+03   -0.17931988E-05    0.12909218E-03
    6   -0.19507440E+03   -0.19650506E-06    0.46978218E-04
    7   -0.19507440E+03   -0.33539607E-08    0.99198346E-05
    8   -0.19507440E+03   -0.11650059E-09    0.16183108E-05
    9   -0.19507440E+03   -0.13216095E-10    0.24523371E-06
   10   -0.19507440E+03   -0.16768809E-11    0.52856708E-07
   11   -0.19507440E+03   -0.56843419E-13    0.12162899E-07
   12   -0.19507440E+03   -0.85265128E-13    0.23104718E-08

Total Energy:                     -193.1538128849 H        -5255.9827 eV
Extrapolated to 0K:               -193.1538128849 H        -5255.9827 eV
Total Mermin free energy:         -193.1538128849 H        -5255.9827 eV
Force related energy:             -193.1538128849 H        -5255.9827 eV

Volume:                              0.106618E+05 au^3   0.157992E+04 A^3
Pressure:                            0.569802E-04 au     0.167642E+10 Pa
>> Charges saved for restart in charges.bin

total energy  -1.9315381E+02 H       energy change -1.9600805E-02 H
gradient norm  9.7963731E-02 H/a0    max. gradient  2.1669703E-02 H/a0
step length    3.4527999E-01 a0      max. step      7.0660444E-02 a0

--------------------------------------------------------------------------------

***  Geometry step: 10

 iSCC Total electronic   Diff electronic      SCC error    
    1   -0.19507440E+03    0.00000000E+00    0.30074096E-01
    2   -0.19511727E+03   -0.42871496E-01    0.17650045E-01
    3   -0.19511784E+03   -0.56273720E-03    0.28333767E-02
    4   -0.19511796E+03   -0.12345621E-03    0.54476505E-03
    5   -0.19511797E+03   -0.65331738E-05    0.21027105E-03
    6   -0.19511797E+03   -0.19223359E-06    0.61308021E-04
    7   -0.19511797E+03   -0.54785403E-08    0.90890717E-05
    8   -0.19511797E+03   -0.34037839E-09    0.20285089E-05
    9   -0.19511797E+03   -0.28450131E-10    0.43761974E-06
   10   -0.19511797E+03   -0.21316282E-11    0.83276672E-07
   11   -0.19511797E+03   -0.56843419E-13    0.14459013E-07
   12   -0.19511797E+03   -0.85265128E-13    0.29599581E-08

Total Energy:                     -193.1747996094 H        -5256.5537 eV
Extrapolated to 0K:               -193.1747996094 H        -5256.5537 eV
Total Mermin free energy:         -193.1747996094 H        -5256.5537 eV
Force related energy:             -193.1747996094 H        -5256.5537 eV

Volume:                              0.106756E+05 au^3   0.158196E+04 A^3
Pressure:                            0.602034E-04 au     0.177124E+10 Pa
>> Charges saved for restart in charges.bin

total energy  -1.9317480E+02 H       energy change -2.0986725E-02 H
gradient norm  9.1618630E-02 H/a0    max. gradient  2.4667356E-02 H/a0
step length    4.4229378E-01 a0      max. step      7.7296507E-02 a0

--------------------------------------------------------------------------------

***  Geometry step: 11

 iSCC Total electronic   Diff electronic      SCC error    
    1   -0.19511797E+03    0.00000000E+00    0.24316568E-01
    2   -0.19517754E+03   -0.59575922E-01    0.14238374E-01
    3   -0.19517800E+03   -0.46102557E-03    0.28893312E-02
    4   -0.19517811E+03   -0.10285828E-03    0.68073565E-03
    5   -0.19517811E+03   -0.53790592E-05    0.26405125E-03
    6   -0.19517811E+03   -0.20828423E-06    0.69742664E-04
    7   -0.19517811E+03   -0.74641378E-08    0.86809697E-05
    8   -0.19517811E+03   -0.36897063E-09    0.19890772E-05
    9   -0.19517811E+03   -0.30382807E-10    0.38486353E-06
   10   -0.19517811E+03   -0.34390268E-11    0.81468002E-07
   11   -0.19517811E+03   -0.56843419E-13    0.20050603E-07
   12   -0.19517811E+03   -0.28421709E-13    0.32771044E-08

Total Energy:                     -193.1870965409 H        -5256.8884 eV
Extrapolated to 0K:               -193.1870965409 H        -5256.8884 eV
Total Mermin free energy:         -193.1870965409 H        -5256.8884 eV
Force related energy:             -193.1870965409 H        -5256.8884 eV

Volume:                              0.106768E+05 au^3   0.158214E+04 A^3
Pressure:                            0.741587E-04 au     0.218182E+10 Pa
>> Charges saved for restart in charges.bin

total energy  -1.9318710E+02 H       energy change -1.2296932E-02 H
gradient norm  8.2077847E-02 H/a0    max. gradient  1.8635340E-02 H/a0
step length    3.4135391E-01 a0      max. step      4.8307658E-02 a0

--------------------------------------------------------------------------------

***  Geometry step: 12

 iSCC Total electronic   Diff electronic      SCC error    
    1   -0.19517811E+03    0.00000000E+00    0.20296115E-01
    2   -0.19520842E+03   -0.30311636E-01    0.12060360E-01
    3   -0.19520858E+03   -0.16060848E-03    0.21120142E-02
    4   -0.19520863E+03   -0.43096695E-04    0.56319984E-03
    5   -0.19520863E+03   -0.22364076E-05    0.21211944E-03
    6   -0.19520863E+03   -0.40115850E-07    0.43696101E-04
    7   -0.19520863E+03   -0.18244748E-08    0.42079054E-05
    8   -0.19520863E+03   -0.18823698E-09    0.12051545E-05
    9   -0.19520863E+03   -0.10146550E-10    0.29317658E-06
   10   -0.19520863E+03   -0.39790393E-12    0.42728149E-07
   11   -0.19520863E+03   -0.56843419E-13    0.11382571E-07
   12   -0.19520863E+03   -0.28421709E-13    0.26381635E-08

Total Energy:                     -193.1967091109 H        -5257.1499 eV
Extrapolated to 0K:               -193.1967091109 H        -5257.1499 eV
Total Mermin free energy:         -193.1967091109 H        -5257.1499 eV
Force related energy:             -193.1967091109 H        -5257.1499 eV

Volume:                              0.106946E+05 au^3   0.158477E+04 A^3
Pressure:                            0.773417E-04 au     0.227547E+10 Pa
>> Charges saved for restart in charges.bin

total energy  -1.9319671E+02 H       energy change -9.6125699E-03 H
gradient norm  7.1968483E-02 H/a0    max. gradient  1.3610073E-02 H/a0
step length    2.8948411E-01 a0      max. step      4.5952570E-02 a0

--------------------------------------------------------------------------------

***  Geometry step: 13

 iSCC Total electronic   Diff electronic      SCC error    
    1   -0.19520863E+03    0.00000000E+00    0.22659789E-01
    2   -0.19521955E+03   -0.10916173E-01    0.12815187E-01
    3   -0.19521971E+03   -0.16937251E-03    0.24548703E-02
    4   -0.19521976E+03   -0.46700819E-04    0.62631282E-03
    5   -0.19521976E+03   -0.22960462E-05    0.19461587E-03
    6   -0.19521976E+03   -0.58447512E-07    0.52749776E-04
    7   -0.19521976E+03   -0.13254180E-08    0.48431074E-05
    8   -0.19521976E+03   -0.19596769E-09    0.99429446E-06
    9   -0.19521976E+03   -0.15404567E-10    0.22102644E-06
   10   -0.19521976E+03   -0.31263880E-12    0.42745407E-07
   11   -0.19521976E+03   -0.56843419E-13    0.69770851E-08

Total Energy:                     -193.2068701526 H        -5257.4264 eV
Extrapolated to 0K:               -193.2068701526 H        -5257.4264 eV
Total Mermin free energy:         -193.2068701526 H        -5257.4264 eV
Force related energy:             -193.2068701526 H        -5257.4264 eV

Volume:                              0.107341E+05 au^3   0.159064E+04 A^3
Pressure:                            0.731288E-04 au     0.215152E+10 Pa
>> Charges saved for restart in charges.bin

total energy  -1.9320687E+02 H       energy change -1.0161042E-02 H
gradient norm  6.2004843E-02 H/a0    max. gradient  1.3175662E-02 H/a0
step length    3.3006063E-01 a0      max. step      5.7413568E-02 a0

--------------------------------------------------------------------------------

***  Geometry step: 14

 iSCC Total electronic   Diff electronic      SCC error    
    1   -0.19521976E+03    0.00000000E+00    0.16050876E-01
    2   -0.19519875E+03    0.21017386E-01    0.90600400E-02
    3   -0.19519883E+03   -0.85821364E-04    0.17904211E-02
    4   -0.19519886E+03   -0.23630486E-04    0.49598985E-03
    5   -0.19519886E+03   -0.11212080E-05    0.18914127E-03
    6   -0.19519886E+03   -0.42364775E-07    0.40379401E-04
    7   -0.19519886E+03   -0.14138095E-08    0.36953485E-05
    8   -0.19519886E+03   -0.13463364E-09    0.73273353E-06
    9   -0.19519886E+03   -0.80433438E-11    0.16844820E-06
   10   -0.19519886E+03   -0.39790393E-12    0.29732742E-07
   11   -0.19519886E+03   -0.85265128E-13    0.39199719E-08

Total Energy:                     -193.2137976083 H        -5257.6149 eV
Extrapolated to 0K:               -193.2137976083 H        -5257.6149 eV
Total Mermin free energy:         -193.2137976083 H        -5257.6149 eV
Force related energy:             -193.2137976083 H        -5257.6149 eV

Volume:                              0.107883E+05 au^3   0.159866E+04 A^3
Pressure:                            0.590783E-04 au     0.173814E+10 Pa
>> Charges saved for restart in charges.bin

total energy  -1.9321380E+02 H       energy change -6.9274557E-03 H
gradient norm  5.4208828E-02 H/a0    max. gradient  1.0948710E-02 H/a0
step length    2.8454988E-01 a0      max. step      4.9659006E-02 a0

--------------------------------------------------------------------------------

***  Geometry step: 15

 iSCC Total electronic   Diff electronic      SCC error    
    1   -0.19519886E+03    0.00000000E+00    0.88835917E-02
    2   -0.19516603E+03    0.32828622E-01    0.53920101E-02
    3   -0.19516607E+03   -0.37873365E-04    0.13005886E-02
    4   -0.19516608E+03   -0.93469061E-05    0.33139977E-03
    5   -0.19516608E+03   -0.45389186E-06    0.12684679E-03
    6   -0.19516608E+03   -0.22008749E-07    0.27107938E-04
    7   -0.19516608E+03   -0.66393113E-09    0.28467133E-05
    8   -0.19516608E+03   -0.62584604E-10    0.39739947E-06
    9   -0.19516608E+03   -0.35811354E-11    0.13999115E-06
   10   -0.19516608E+03   -0.34106051E-12    0.23492285E-07
   11   -0.19516608E+03    0.19895197E-12    0.36631373E-08

Total Energy:                     -193.2183483954 H        -5257.7388 eV
Extrapolated to 0K:               -193.2183483954 H        -5257.7388 eV
Total Mermin free energy:         -193.2183483954 H        -5257.7388 eV
Force related energy:             -193.2183483954 H        -5257.7388 eV

Volume:                              0.108414E+05 au^3   0.160653E+04 A^3
Pressure:                            0.411865E-04 au     0.121175E+10 Pa
>> Charges saved for restart in charges.bin

total energy  -1.9321835E+02 H       energy change -4.5507870E-03 H
gradient norm  4.8902263E-02 H/a0    max. gradient  8.4528626E-03 H/a0
step length    2.3458690E-01 a0      max. step      4.4008603E-02 a0

--------------------------------------------------------------------------------

***  Geometry step: 16

 iSCC Total electronic   Diff electronic      SCC error    
    1   -0.19516608E+03    0.00000000E+00    0.78877832E-02
    2   -0.19513937E+03    0.26709108E-01    0.44512971E-02
    3   -0.19513940E+03   -0.35160714E-04    0.11226266E-02
    4   -0.19513941E+03   -0.65861699E-05    0.28524363E-03
    5   -0.19513941E+03   -0.29626048E-06    0.10352705E-03
    6   -0.19513941E+03   -0.20596929E-07    0.26337550E-04
    7   -0.19513941E+03   -0.57241323E-09    0.34174481E-05
    8   -0.19513941E+03   -0.42376769E-10    0.45473448E-06
    9   -0.19513941E+03   -0.28421709E-11    0.11876507E-06
   10   -0.19513941E+03   -0.11368684E-12    0.24768037E-07
   11   -0.19513941E+03   -0.56843419E-13    0.30582292E-08

Total Energy:                     -193.2225399964 H        -5257.8528 eV
Extrapolated to 0K:               -193.2225399964 H        -5257.8528 eV
Total Mermin free energy:         -193.2225399964 H        -5257.8528 eV
Force related energy:             -193.2225399964 H        -5257.8528 eV

Volume:                              0.108903E+05 au^3   0.161378E+04 A^3
Pressure:                            0.254955E-04 au     0.750105E+09 Pa
>> Charges saved for restart in charges.bin

total energy  -1.9322254E+02 H       energy change -4.1916011E-03 H
gradient norm  4.8253410E-02 H/a0    max. gradient  9.7768695E-03 H/a0
step length    2.2945061E-01 a0      max. step      4.5581679E-02 a0

--------------------------------------------------------------------------------

***  Geometry step: 17

 iSCC Total electronic   Diff electronic      SCC error    
    1   -0.19513941E+03    0.00000000E+00    0.11237423E-01
    2   -0.19513087E+03    0.85361874E-02    0.65802294E-02
    3   -0.19513092E+03   -0.51375479E-04    0.16948302E-02
    4   -0.19513093E+03   -0.87145964E-05    0.18946678E-03
    5   -0.19513093E+03   -0.41160700E-06    0.76456458E-04
    6   -0.19513093E+03   -0.31814892E-07    0.23921978E-04
    7   -0.19513093E+03   -0.85165652E-09    0.46195091E-05
    8   -0.19513093E+03   -0.37317704E-10    0.10667094E-05
    9   -0.19513093E+03   -0.30695446E-11    0.15997438E-06
   10   -0.19513093E+03   -0.17053026E-12    0.30882059E-07
   11   -0.19513093E+03   -0.11368684E-12    0.34156638E-08

Total Energy:                     -193.2272506497 H        -5257.9810 eV
Extrapolated to 0K:               -193.2272506497 H        -5257.9810 eV
Total Mermin free energy:         -193.2272506497 H        -5257.9810 eV
Force related energy:             -193.2272506497 H        -5257.9810 eV

Volume:                              0.109338E+05 au^3   0.162022E+04 A^3
Pressure:                            0.171638E-04 au     0.504977E+09 Pa
>> Charges saved for restart in charges.bin

total energy  -1.9322725E+02 H       energy change -4.7106533E-03 H
gradient norm  5.3807606E-02 H/a0    max. gradient  1.1122368E-02 H/a0
step length    2.5944305E-01 a0      max. step      4.9033591E-02 a0

--------------------------------------------------------------------------------

***  Geometry step: 18

 iSCC Total electronic   Diff electronic      SCC error    
    1   -0.19513093E+03    0.00000000E+00    0.16352997E-01
    2   -0.19514017E+03   -0.92414949E-02    0.96447871E-02
    3   -0.19514027E+03   -0.93194092E-04    0.27054302E-02
    4   -0.19514028E+03   -0.13923839E-04    0.23034113E-03
    5   -0.19514028E+03   -0.77148178E-06    0.44035434E-04
    6   -0.19514028E+03   -0.49686292E-07    0.13391374E-04
    7   -0.19514028E+03   -0.12753674E-08    0.35800775E-05
    8   -0.19514028E+03   -0.35186076E-10    0.12483815E-05
    9   -0.19514028E+03   -0.21032065E-11    0.34463489E-06
   10   -0.19514028E+03   -0.25579538E-12    0.55674452E-07
   11   -0.19514028E+03    0.00000000E+00    0.49258406E-08

Total Energy:                     -193.2328054357 H        -5258.1322 eV
Extrapolated to 0K:               -193.2328054357 H        -5258.1322 eV
Total Mermin free energy:         -193.2328054357 H        -5258.1322 eV
Force related energy:             -193.2328054357 H        -5258.1322 eV

Volume:                              0.109734E+05 au^3   0.162609E+04 A^3
Pressure:                            0.166625E-04 au     0.490227E+09 Pa
>> Charges saved for restart in charges.bin

total energy  -1.9323281E+02 H       energy change -5.5547860E-03 H
gradient norm  5.4574658E-02 H/a0    max. gradient  1.0842591E-02 H/a0
step length    3.1443532E-01 a0      max. step      5.7174749E-02 a0

--------------------------------------------------------------------------------

***  Geometry step: 19

 iSCC Total electronic   Diff electronic      SCC error    
    1   -0.19514028E+03    0.00000000E+00    0.15172660E-01
    2   -0.19516142E+03   -0.21138651E-01    0.89313685E-02
    3   -0.19516156E+03   -0.14245208E-03    0.28652933E-02
    4   -0.19516158E+03   -0.18234847E-04    0.28265523E-03
    5   -0.19516158E+03   -0.96066842E-06    0.51063666E-04
    6   -0.19516158E+03   -0.53849590E-07    0.18076917E-04
    7   -0.19516158E+03   -0.15927242E-08    0.52782574E-05
    8   -0.19516158E+03   -0.47265303E-10    0.17514210E-05
    9   -0.19516158E+03   -0.25011104E-11    0.38971399E-06
   10   -0.19516158E+03   -0.51159077E-12    0.56558408E-07
   11   -0.19516158E+03    0.00000000E+00    0.54692673E-08

Total Energy:                     -193.2381154237 H        -5258.2767 eV
Extrapolated to 0K:               -193.2381154237 H        -5258.2767 eV
Total Mermin free energy:         -193.2381154237 H        -5258.2767 eV
Force related energy:             -193.2381154237 H        -5258.2767 eV

Volume:                              0.110079E+05 au^3   0.163121E+04 A^3
Pressure:                            0.214050E-04 au     0.629757E+09 Pa
>> Charges saved for restart in charges.bin

total energy  -1.9323812E+02 H       energy change -5.3099880E-03 H
gradient norm  5.0061179E-02 H/a0    max. gradient  1.1037690E-02 H/a0
step length    3.4805527E-01 a0      max. step      6.5270452E-02 a0

--------------------------------------------------------------------------------

***  Geometry step: 20

 iSCC Total electronic   Diff electronic      SCC error    
    1   -0.19516158E+03    0.00000000E+00    0.10782389E-01
    2   -0.19517925E+03   -0.17663276E-01    0.53903800E-02
    3   -0.19517938E+03   -0.13206270E-03    0.18013623E-02
    4   -0.19517939E+03   -0.14524437E-04    0.30837518E-03
    5   -0.19517939E+03   -0.60952337E-06    0.87620862E-04
    6   -0.19517939E+03   -0.39587377E-07    0.29458307E-04
    7   -0.19517939E+03   -0.12313990E-08    0.63891379E-05
    8   -0.19517939E+03   -0.44110493E-10    0.16538130E-05
    9   -0.19517939E+03   -0.36664005E-11    0.24914322E-06
   10   -0.19517939E+03   -0.39790393E-12    0.41176905E-07
   11   -0.19517939E+03    0.00000000E+00    0.49533266E-08

Total Energy:                     -193.2424755312 H        -5258.3953 eV
Extrapolated to 0K:               -193.2424755312 H        -5258.3953 eV
Total Mermin free energy:         -193.2424755312 H        -5258.3953 eV
Force related energy:             -193.2424755312 H        -5258.3953 eV

Volume:                              0.110405E+05 au^3   0.163603E+04 A^3
Pressure:                            0.253722E-04 au     0.746475E+09 Pa
>> Charges saved for restart in charges.bin

total energy  -1.9324248E+02 H       energy change -4.3601075E-03 H
gradient norm  4.3191328E-02 H/a0    max. gradient  1.0738418E-02 H/a0
step length    3.2707523E-01 a0      max. step      6.0543653E-02 a0

--------------------------------------------------------------------------------

***  Geometry step: 21

 iSCC Total electronic   Diff electronic      SCC error    
    1   -0.19517939E+03    0.00000000E+00    0.95725787E-02
    2   -0.19518857E+03   -0.91758548E-02    0.53212555E-02
    3   -0.19518870E+03   -0.13198935E-03    0.17713702E-02
    4   -0.19518872E+03   -0.15900223E-04    0.42827712E-03
    5   -0.19518872E+03   -0.64445032E-06    0.11779977E-03
    6   -0.19518872E+03   -0.39415937E-07    0.35665318E-04
    7   -0.19518872E+03   -0.13395152E-08    0.62197752E-05
    8   -0.19518872E+03   -0.73782758E-10    0.12675782E-05
    9   -0.19518872E+03   -0.60538241E-11    0.17813564E-06
   10   -0.19518872E+03   -0.65369932E-12    0.28088367E-07
   11   -0.19518872E+03   -0.56843419E-13    0.39270489E-08

Total Energy:                     -193.2462533013 H        -5258.4981 eV
Extrapolated to 0K:               -193.2462533013 H        -5258.4981 eV
Total Mermin free energy:         -193.2462533013 H        -5258.4981 eV
Force related energy:             -193.2462533013 H        -5258.4981 eV

Volume:                              0.110773E+05 au^3   0.164148E+04 A^3
Pressure:                            0.252385E-04 au     0.742541E+09 Pa
>> Charges saved for restart in charges.bin

total energy  -1.9324625E+02 H       energy change -3.7777701E-03 H
gradient norm  3.6904611E-02 H/a0    max. gradient  8.1025764E-03 H/a0
step length    3.1994721E-01 a0      max. step      5.9671849E-02 a0

--------------------------------------------------------------------------------

***  Geometry step: 22

 iSCC Total electronic   Diff electronic      SCC error    
    1   -0.19518872E+03    0.00000000E+00    0.99428039E-02
    2   -0.19518552E+03    0.31996057E-02    0.54255051E-02
    3   -0.19518558E+03   -0.57359496E-04    0.10986794E-02
    4   -0.19518559E+03   -0.97114235E-05    0.27728144E-03
    5   -0.19518559E+03   -0.44692663E-06    0.89130495E-04
    6   -0.19518559E+03   -0.22936064E-07    0.24991121E-04
    7   -0.19518559E+03   -0.78725293E-09    0.51191673E-05
    8   -0.19518559E+03   -0.46043169E-10    0.99086558E-06
    9   -0.19518559E+03   -0.35811354E-11    0.98238939E-07
   10   -0.19518559E+03   -0.51159077E-12    0.17191872E-07
   11   -0.19518559E+03    0.17053026E-12    0.24957236E-08

Total Energy:                     -193.2485272197 H        -5258.5600 eV
Extrapolated to 0K:               -193.2485272197 H        -5258.5600 eV
Total Mermin free energy:         -193.2485272197 H        -5258.5600 eV
Force related energy:             -193.2485272197 H        -5258.5600 eV

Volume:                              0.111122E+05 au^3   0.164665E+04 A^3
Pressure:                            0.218809E-04 au     0.643759E+09 Pa
>> Charges saved for restart in charges.bin

total energy  -1.9324853E+02 H       energy change -2.2739184E-03 H
gradient norm  3.4347826E-02 H/a0    max. gradient  8.0996776E-03 H/a0
step length    2.3758947E-01 a0      max. step      4.3683119E-02 a0

--------------------------------------------------------------------------------

***  Geometry step: 23

 iSCC Total electronic   Diff electronic      SCC error    
    1   -0.19518559E+03    0.00000000E+00    0.66060387E-02
    2   -0.19517473E+03    0.10856143E-01    0.36911939E-02
    3   -0.19517475E+03   -0.20198039E-04    0.70911805E-03
    4   -0.19517475E+03   -0.44426894E-05    0.12965094E-03
    5   -0.19517475E+03   -0.20126825E-06    0.49636327E-04
    6   -0.19517475E+03   -0.61321259E-08    0.14136040E-04
    7   -0.19517475E+03   -0.25727331E-09    0.29608745E-05
    8   -0.19517475E+03   -0.11510792E-10    0.61678352E-06
    9   -0.19517475E+03   -0.11368684E-11    0.71446535E-07
   10   -0.19517475E+03    0.11368684E-12    0.12660333E-07
   11   -0.19517475E+03   -0.28421709E-13    0.25044478E-08

Total Energy:                     -193.2498534377 H        -5258.5961 eV
Extrapolated to 0K:               -193.2498534377 H        -5258.5961 eV
Total Mermin free energy:         -193.2498534377 H        -5258.5961 eV
Force related energy:             -193.2498534377 H        -5258.5961 eV

Volume:                              0.111391E+05 au^3   0.165065E+04 A^3
Pressure:                            0.165495E-04 au     0.486903E+09 Pa
>> Charges saved for restart in charges.bin

total energy  -1.9324985E+02 H       energy change -1.3262180E-03 H
gradient norm  2.6077035E-02 H/a0    max. gradient  6.0261717E-03 H/a0
step length    1.3140123E-01 a0      max. step      2.3924907E-02 a0

--------------------------------------------------------------------------------

***  Geometry step: 24

 iSCC Total electronic   Diff electronic      SCC error    
    1   -0.19517475E+03    0.00000000E+00    0.55259193E-02
    2   -0.19516285E+03    0.11903506E-01    0.31799957E-02
    3   -0.19516288E+03   -0.27290708E-04    0.85841975E-03
    4   -0.19516288E+03   -0.44581316E-05    0.88352407E-04
    5   -0.19516288E+03   -0.16413736E-06    0.28897117E-04
    6   -0.19516288E+03   -0.73406738E-08    0.99531581E-05
    7   -0.19516288E+03   -0.10848566E-09    0.24193997E-05
    8   -0.19516288E+03   -0.54285465E-11    0.48578921E-06
    9   -0.19516288E+03   -0.76738615E-12    0.80632895E-07
   10   -0.19516288E+03   -0.11368684E-12    0.12822771E-07
   11   -0.19516288E+03    0.56843419E-13    0.29898040E-08

Total Energy:                     -193.2508360670 H        -5258.6228 eV
Extrapolated to 0K:               -193.2508360670 H        -5258.6228 eV
Total Mermin free energy:         -193.2508360670 H        -5258.6228 eV
Force related energy:             -193.2508360670 H        -5258.6228 eV

Volume:                              0.111638E+05 au^3   0.165430E+04 A^3
Pressure:                            0.101415E-04 au     0.298374E+09 Pa
>> Charges saved for restart in charges.bin

total energy  -1.9325084E+02 H       energy change -9.8262929E-04 H
gradient norm  2.1802012E-02 H/a0    max. gradient  5.6634542E-03 H/a0
step length    1.0231766E-01 a0      max. step      2.5647620E-02 a0

--------------------------------------------------------------------------------

***  Geometry step: 25

 iSCC Total electronic   Diff electronic      SCC error    
    1   -0.19516288E+03    0.00000000E+00    0.34819165E-02
    2   -0.19516094E+03    0.19425128E-02    0.14116688E-02
    3   -0.19516095E+03   -0.11821795E-04    0.47284387E-03
    4   -0.19516095E+03   -0.15100307E-05    0.69156065E-04
    5   -0.19516095E+03   -0.44052371E-07    0.21447208E-04
    6   -0.19516095E+03   -0.23528628E-08    0.74771270E-05
    7   -0.19516095E+03   -0.41154635E-10    0.10881507E-05
    8   -0.19516095E+03   -0.31548097E-11    0.28397258E-06
    9   -0.19516095E+03   -0.14210855E-12    0.50024758E-07
   10   -0.19516095E+03   -0.85265128E-13    0.82644416E-08

Total Energy:                     -193.2515177053 H        -5258.6414 eV
Extrapolated to 0K:               -193.2515177053 H        -5258.6414 eV
Total Mermin free energy:         -193.2515177053 H        -5258.6414 eV
Force related energy:             -193.2515177053 H        -5258.6414 eV

Volume:                              0.111776E+05 au^3   0.165635E+04 A^3
Pressure:                            0.830952E-05 au     0.244474E+09 Pa
>> Charges saved for restart in charges.bin

total energy  -1.9325152E+02 H       energy change -6.8163832E-04 H
gradient norm  2.2560601E-02 H/a0    max. gradient  5.3865008E-03 H/a0
step length    6.7388797E-02 a0      max. step      1.8228903E-02 a0

--------------------------------------------------------------------------------

***  Geometry step: 26

 iSCC Total electronic   Diff electronic      SCC error    
    1   -0.19516095E+03    0.00000000E+00    0.68778111E-02
    2   -0.19516319E+03   -0.22355322E-02    0.24585071E-02
    3   -0.19516323E+03   -0.37919801E-04    0.89222629E-03
    4   -0.19516323E+03   -0.49450685E-05    0.13206219E-03
    5   -0.19516323E+03   -0.20011299E-06    0.41166029E-04
    6   -0.19516323E+03   -0.84726821E-08    0.12871175E-04
    7   -0.19516323E+03   -0.16248691E-09    0.16661514E-05
    8   -0.19516323E+03   -0.18246737E-10    0.31891959E-06
    9   -0.19516323E+03   -0.99475983E-12    0.10001223E-06
   10   -0.19516323E+03    0.00000000E+00    0.14784400E-07
   11   -0.19516323E+03   -0.11368684E-12    0.20098891E-08

Total Energy:                     -193.2527262535 H        -5258.6742 eV
Extrapolated to 0K:               -193.2527262535 H        -5258.6742 eV
Total Mermin free energy:         -193.2527262535 H        -5258.6742 eV
Force related energy:             -193.2527262535 H        -5258.6742 eV

Volume:                              0.112061E+05 au^3   0.166058E+04 A^3
Pressure:                            0.701310E-05 au     0.206332E+09 Pa
>> Charges saved for restart in charges.bin

total energy  -1.9325273E+02 H       energy change -1.2085482E-03 H
gradient norm  2.4614644E-02 H/a0    max. gradient  5.8993956E-03 H/a0
step length    1.4854570E-01 a0      max. step      4.1214938E-02 a0

--------------------------------------------------------------------------------

***  Geometry step: 27

 iSCC Total electronic   Diff electronic      SCC error    
    1   -0.19516323E+03    0.00000000E+00    0.56413214E-02
    2   -0.19516952E+03   -0.62906326E-02    0.24769098E-02
    3   -0.19516955E+03   -0.23593477E-04    0.89096543E-03
    4   -0.19516955E+03   -0.36953788E-05    0.16387299E-03
    5   -0.19516955E+03   -0.19561818E-06    0.52265622E-04
    6   -0.19516955E+03   -0.61390892E-08    0.13664060E-04
    7   -0.19516955E+03   -0.15063506E-09    0.14973736E-05
    8   -0.19516955E+03   -0.14210855E-10    0.30798190E-06
    9   -0.19516955E+03   -0.11937118E-11    0.99654904E-07
   10   -0.19516955E+03   -0.85265128E-13    0.13399494E-07
   11   -0.19516955E+03    0.00000000E+00    0.26133957E-08

Total Energy:                     -193.2536582884 H        -5258.6996 eV
Extrapolated to 0K:               -193.2536582884 H        -5258.6996 eV
Total Mermin free energy:         -193.2536582884 H        -5258.6996 eV
Force related energy:             -193.2536582884 H        -5258.6996 eV

Volume:                              0.112331E+05 au^3   0.166458E+04 A^3
Pressure:                            0.764655E-05 au     0.224969E+09 Pa
>> Charges saved for restart in charges.bin

total energy  -1.9325366E+02 H       energy change -9.3203494E-04 H
gradient norm  2.3337132E-02 H/a0    max. gradient  4.8786807E-03 H/a0
step length    1.5051185E-01 a0      max. step      3.7921509E-02 a0

--------------------------------------------------------------------------------

***  Geometry step: 28

 iSCC Total electronic   Diff electronic      SCC error    
    1   -0.19516955E+03    0.00000000E+00    0.52507237E-02
    2   -0.19517584E+03   -0.62928125E-02    0.29991353E-02
    3   -0.19517586E+03   -0.18974179E-04    0.95541547E-03
    4   -0.19517587E+03   -0.33986331E-05    0.17930124E-03
    5   -0.19517587E+03   -0.19429353E-06    0.60011173E-04
    6   -0.19517587E+03   -0.45727120E-08    0.11308070E-04
    7   -0.19517587E+03   -0.14080115E-09    0.12311209E-05
    8   -0.19517587E+03   -0.10999202E-10    0.26152651E-06
    9   -0.19517587E+03   -0.15347723E-11    0.67246559E-07
   10   -0.19517587E+03    0.28421709E-13    0.61653020E-08

Total Energy:                     -193.2544503768 H        -5258.7212 eV
Extrapolated to 0K:               -193.2544503768 H        -5258.7212 eV
Total Mermin free energy:         -193.2544503768 H        -5258.7212 eV
Force related energy:             -193.2544503768 H        -5258.7212 eV

Volume:                              0.112605E+05 au^3   0.166863E+04 A^3
Pressure:                            0.841613E-05 au     0.247611E+09 Pa
>> Charges saved for restart in charges.bin

total energy  -1.9325445E+02 H       energy change -7.9208839E-04 H
gradient norm  1.8273056E-02 H/a0    max. gradient  4.9688698E-03 H/a0
step length    1.5536043E-01 a0      max. step      3.7321310E-02 a0

--------------------------------------------------------------------------------

***  Geometry step: 29

 iSCC Total electronic   Diff electronic      SCC error    
    1   -0.19517587E+03    0.00000000E+00    0.39723669E-02
    2   -0.19517956E+03   -0.36960546E-02    0.22292670E-02
    3   -0.19517957E+03   -0.10659792E-04    0.64215316E-03
    4   -0.19517957E+03   -0.18814700E-05    0.12000539E-03
    5   -0.19517957E+03   -0.98451864E-07    0.43308444E-04
    6   -0.19517957E+03   -0.18702337E-08    0.66142400E-05
    7   -0.19517957E+03   -0.63380412E-10    0.81903958E-06
    8   -0.19517957E+03   -0.42348347E-11    0.18333016E-06
    9   -0.19517957E+03   -0.56843419E-12    0.31872694E-07
   10   -0.19517957E+03    0.00000000E+00    0.33737404E-08

Total Energy:                     -193.2549517909 H        -5258.7348 eV
Extrapolated to 0K:               -193.2549517909 H        -5258.7348 eV
Total Mermin free energy:         -193.2549517909 H        -5258.7348 eV
Force related energy:             -193.2549517909 H        -5258.7348 eV

Volume:                              0.112781E+05 au^3   0.167124E+04 A^3
Pressure:                            0.931532E-05 au     0.274066E+09 Pa
>> Charges saved for restart in charges.bin

total energy  -1.9325495E+02 H       energy change -5.0141403E-04 H
gradient norm  1.5613047E-02 H/a0    max. gradient  5.7362808E-03 H/a0
step length    1.0879747E-01 a0      max. step      2.3073574E-02 a0

--------------------------------------------------------------------------------

***  Geometry step: 30

 iSCC Total electronic   Diff electronic      SCC error    
    1   -0.19517957E+03    0.00000000E+00    0.30460377E-02
    2   -0.19517810E+03    0.14705647E-02    0.17195023E-02
    3   -0.19517811E+03   -0.55817580E-05    0.39852819E-03
    4   -0.19517811E+03   -0.10367203E-05    0.77884315E-04
    5   -0.19517811E+03   -0.51237180E-07    0.30502432E-04
    6   -0.19517811E+03   -0.12424266E-08    0.63671715E-05
    7   -0.19517811E+03   -0.40216719E-10    0.60207847E-06
    8   -0.19517811E+03   -0.39221959E-11    0.18778709E-06
    9   -0.19517811E+03   -0.14210855E-12    0.56653190E-07
   10   -0.19517811E+03   -0.56843419E-13    0.56340528E-08

Total Energy:                     -193.2553326331 H        -5258.7452 eV
Extrapolated to 0K:               -193.2553326331 H        -5258.7452 eV
Total Mermin free energy:         -193.2553326331 H        -5258.7452 eV
Force related energy:             -193.2553326331 H        -5258.7452 eV

Volume:                              0.112914E+05 au^3   0.167322E+04 A^3
Pressure:                            0.799616E-05 au     0.235255E+09 Pa
>> Charges saved for restart in charges.bin

total energy  -1.9325533E+02 H       energy change -3.8084228E-04 H
gradient norm  1.5922789E-02 H/a0    max. gradient  5.3809942E-03 H/a0
step length    7.8335531E-02 a0      max. step      1.6403994E-02 a0

--------------------------------------------------------------------------------

***  Geometry step: 31

 iSCC Total electronic   Diff electronic      SCC error    
    1   -0.19517811E+03    0.00000000E+00    0.30708724E-02
    2   -0.19517531E+03    0.28024911E-02    0.16959899E-02
    3   -0.19517531E+03   -0.52746456E-05    0.33784774E-03
    4   -0.19517531E+03   -0.93699987E-06    0.56476627E-04
    5   -0.19517531E+03   -0.36920369E-07    0.19855601E-04
    6   -0.19517531E+03   -0.10819861E-08    0.51636428E-05
    7   -0.19517531E+03   -0.37545078E-10    0.72668849E-06
    8   -0.19517531E+03   -0.23305802E-11    0.15425560E-06
    9   -0.19517531E+03    0.00000000E+00    0.38151423E-07
   10   -0.19517531E+03    0.00000000E+00    0.46766644E-08

Total Energy:                     -193.2557194792 H        -5258.7557 eV
Extrapolated to 0K:               -193.2557194792 H        -5258.7557 eV
Total Mermin free energy:         -193.2557194792 H        -5258.7557 eV
Force related energy:             -193.2557194792 H        -5258.7557 eV

Volume:                              0.113007E+05 au^3   0.167459E+04 A^3
Pressure:                            0.642458E-05 au     0.189018E+09 Pa
>> Charges saved for restart in charges.bin

total energy  -1.9325572E+02 H       energy change -3.8684607E-04 H
gradient norm  1.5996564E-02 H/a0    max. gradient  3.6035987E-03 H/a0
step length    7.0349850E-02 a0      max. step      1.3531514E-02 a0

--------------------------------------------------------------------------------

***  Geometry step: 32

 iSCC Total electronic   Diff electronic      SCC error    
    1   -0.19517531E+03    0.00000000E+00    0.30989798E-02
    2   -0.19517055E+03    0.47612201E-02    0.16873182E-02
    3   -0.19517056E+03   -0.67570626E-05    0.39675741E-03
    4   -0.19517056E+03   -0.12471203E-05    0.76249458E-04
    5   -0.19517056E+03   -0.51860241E-07    0.23614793E-04
    6   -0.19517056E+03   -0.20304185E-08    0.54258911E-05
    7   -0.19517056E+03   -0.51272764E-10    0.10507217E-05
    8   -0.19517056E+03   -0.28705927E-11    0.18892421E-06
    9   -0.19517056E+03   -0.22737368E-12    0.50950549E-07
   10   -0.19517056E+03   -0.14210855E-12    0.79075679E-08

Total Energy:                     -193.2562092750 H        -5258.7690 eV
Extrapolated to 0K:               -193.2562092750 H        -5258.7690 eV
Total Mermin free energy:         -193.2562092750 H        -5258.7690 eV
Force related energy:             -193.2562092750 H        -5258.7690 eV

Volume:                              0.113112E+05 au^3   0.167614E+04 A^3
Pressure:                            0.383111E-05 au     0.112715E+09 Pa
>> Charges saved for restart in charges.bin

total energy  -1.9325621E+02 H       energy change -4.8979581E-04 H
gradient norm  1.7110143E-02 H/a0    max. gradient  3.6694157E-03 H/a0
step length    9.6437341E-02 a0      max. step      2.0772054E-02 a0

--------------------------------------------------------------------------------

***  Geometry step: 33

 iSCC Total electronic   Diff electronic      SCC error    
    1   -0.19517056E+03    0.00000000E+00    0.32525477E-02
    2   -0.19516832E+03    0.22459163E-02    0.18735284E-02
    3   -0.19516832E+03   -0.65130467E-05    0.46683072E-03
    4   -0.19516832E+03   -0.11135250E-05    0.72021498E-04
    5   -0.19516832E+03   -0.48714554E-07    0.22818330E-04
    6   -0.19516832E+03   -0.18356445E-08    0.50019146E-05
    7   -0.19516832E+03   -0.59799277E-10    0.97556192E-06
    8   -0.19516832E+03   -0.35527137E-11    0.19242776E-06
    9   -0.19516832E+03   -0.39790393E-12    0.40013961E-07
   10   -0.19516832E+03    0.00000000E+00    0.81614471E-08

Total Energy:                     -193.2567410183 H        -5258.7835 eV
Extrapolated to 0K:               -193.2567410183 H        -5258.7835 eV
Total Mermin free energy:         -193.2567410183 H        -5258.7835 eV
Force related energy:             -193.2567410183 H        -5258.7835 eV

Volume:                              0.113208E+05 au^3   0.167757E+04 A^3
Pressure:                            0.230418E-05 au     0.677912E+08 Pa
>> Charges saved for restart in charges.bin

total energy  -1.9325674E+02 H       energy change -5.3174326E-04 H
gradient norm  1.8556718E-02 H/a0    max. gradient  3.3623411E-03 H/a0
step length    1.1582684E-01 a0      max. step      2.6444001E-02 a0

--------------------------------------------------------------------------------

***  Geometry step: 34

 iSCC Total electronic   Diff electronic      SCC error    
    1   -0.19516832E+03    0.00000000E+00    0.40156413E-02
    2   -0.19516904E+03   -0.72136162E-03    0.22412393E-02
    3   -0.19516905E+03   -0.89741742E-05    0.64240490E-03
    4   -0.19516905E+03   -0.14008813E-05    0.11241317E-03
    5   -0.19516905E+03   -0.61757987E-07    0.34304899E-04
    6   -0.19516905E+03   -0.23150903E-08    0.71181899E-05
    7   -0.19516905E+03   -0.64034111E-10    0.91394906E-06
    8   -0.19516905E+03   -0.45190518E-11    0.19898921E-06
    9   -0.19516905E+03   -0.42632564E-12    0.47616340E-07
   10   -0.19516905E+03   -0.28421709E-13    0.64158225E-08

Total Energy:                     -193.2574038893 H        -5258.8015 eV
Extrapolated to 0K:               -193.2574038893 H        -5258.8015 eV
Total Mermin free energy:         -193.2574038893 H        -5258.8015 eV
Force related energy:             -193.2574038893 H        -5258.8015 eV

Volume:                              0.113340E+05 au^3   0.167952E+04 A^3
Pressure:                            0.160282E-05 au     0.471566E+08 Pa
>> Charges saved for restart in charges.bin

total energy  -1.9325740E+02 H       energy change -6.6287107E-04 H
gradient norm  1.9600178E-02 H/a0    max. gradient  4.3436753E-03 H/a0
step length    1.6323541E-01 a0      max. step      3.6675945E-02 a0

--------------------------------------------------------------------------------

***  Geometry step: 35

 iSCC Total electronic   Diff electronic      SCC error    
    1   -0.19516905E+03    0.00000000E+00    0.38622971E-02
    2   -0.19517415E+03   -0.50970900E-02    0.22297275E-02
    3   -0.19517416E+03   -0.10633780E-04    0.64686397E-03
    4   -0.19517416E+03   -0.17161848E-05    0.11507657E-03
    5   -0.19517416E+03   -0.66178075E-07    0.36596633E-04
    6   -0.19517416E+03   -0.27019098E-08    0.92808681E-05
    7   -0.19517416E+03   -0.64858341E-10    0.61928188E-06
    8   -0.19517416E+03   -0.61959327E-11    0.21981310E-06
    9   -0.19517416E+03   -0.34106051E-12    0.47951360E-07
   10   -0.19517416E+03   -0.11368684E-12    0.48981983E-08

Total Energy:                     -193.2580825459 H        -5258.8200 eV
Extrapolated to 0K:               -193.2580825459 H        -5258.8200 eV
Total Mermin free energy:         -193.2580825459 H        -5258.8200 eV
Force related energy:             -193.2580825459 H        -5258.8200 eV

Volume:                              0.113478E+05 au^3   0.168157E+04 A^3
Pressure:                            0.248578E-05 au     0.731341E+08 Pa
>> Charges saved for restart in charges.bin

total energy  -1.9325808E+02 H       energy change -6.7865654E-04 H
gradient norm  1.9123662E-02 H/a0    max. gradient  6.2452352E-03 H/a0
step length    1.8195471E-01 a0      max. step      3.8969264E-02 a0

--------------------------------------------------------------------------------

***  Geometry step: 36

 iSCC Total electronic   Diff electronic      SCC error    
    1   -0.19517416E+03    0.00000000E+00    0.48421843E-02
    2   -0.19518143E+03   -0.72606803E-02    0.27337800E-02
    3   -0.19518144E+03   -0.13846055E-04    0.70419259E-03
    4   -0.19518144E+03   -0.22291143E-05    0.10650742E-03
    5   -0.19518144E+03   -0.73926969E-07    0.33541287E-04
    6   -0.19518144E+03   -0.35971652E-08    0.89599537E-05
    7   -0.19518144E+03   -0.86146201E-10    0.73542065E-06
    8   -0.19518144E+03   -0.69917405E-11    0.22458444E-06
    9   -0.19518144E+03   -0.48316906E-12    0.64492423E-07
   10   -0.19518144E+03    0.28421709E-13    0.50559779E-08

Total Energy:                     -193.2586929665 H        -5258.8366 eV
Extrapolated to 0K:               -193.2586929665 H        -5258.8366 eV
Total Mermin free energy:         -193.2586929665 H        -5258.8366 eV
Force related energy:             -193.2586929665 H        -5258.8366 eV

Volume:                              0.113615E+05 au^3   0.168360E+04 A^3
Pressure:                            0.444045E-05 au     0.130642E+09 Pa
>> Charges saved for restart in charges.bin

total energy  -1.9325869E+02 H       energy change -6.1042061E-04 H
gradient norm  1.7244872E-02 H/a0    max. gradient  6.4682775E-03 H/a0
step length    1.7920398E-01 a0      max. step      3.5691312E-02 a0

--------------------------------------------------------------------------------

***  Geometry step: 37

 iSCC Total electronic   Diff electronic      SCC error    
    1   -0.19518144E+03    0.00000000E+00    0.36814370E-02
    2   -0.19518683E+03   -0.53875170E-02    0.20127698E-02
    3   -0.19518684E+03   -0.13674910E-04    0.71204318E-03
    4   -0.19518684E+03   -0.21981620E-05    0.14321850E-03
    5   -0.19518684E+03   -0.62295072E-07    0.41772396E-04
    6   -0.19518684E+03   -0.43690136E-08    0.10466691E-04
    7   -0.19518684E+03   -0.12863666E-09    0.10404255E-05
    8   -0.19518684E+03   -0.73896445E-11    0.22007144E-06
    9   -0.19518684E+03   -0.45474735E-12    0.59563203E-07
   10   -0.19518684E+03    0.00000000E+00    0.65744041E-08

Total Energy:                     -193.2592117161 H        -5258.8507 eV
Extrapolated to 0K:               -193.2592117161 H        -5258.8507 eV
Total Mermin free energy:         -193.2592117161 H        -5258.8507 eV
Force related energy:             -193.2592117161 H        -5258.8507 eV

Volume:                              0.113749E+05 au^3   0.168558E+04 A^3
Pressure:                            0.551167E-05 au     0.162159E+09 Pa
>> Charges saved for restart in charges.bin

total energy  -1.9325921E+02 H       energy change -5.1874956E-04 H
gradient norm  1.6720448E-02 H/a0    max. gradient  5.8256141E-03 H/a0
step length    1.6208828E-01 a0      max. step      3.0847875E-02 a0

--------------------------------------------------------------------------------

***  Geometry step: 38

 iSCC Total electronic   Diff electronic      SCC error    
    1   -0.19518684E+03    0.00000000E+00    0.31002007E-02
    2   -0.19519036E+03   -0.35139567E-02    0.19229429E-02
    3   -0.19519037E+03   -0.12206717E-04    0.73311882E-03
    4   -0.19519037E+03   -0.18566687E-05    0.15282060E-03
    5   -0.19519037E+03   -0.65092934E-07    0.45718679E-04
    6   -0.19519037E+03   -0.44461217E-08    0.10629287E-04
    7   -0.19519037E+03   -0.12704504E-09    0.10090150E-05
    8   -0.19519037E+03   -0.82991392E-11    0.29444382E-06
    9   -0.19519037E+03   -0.51159077E-12    0.90036794E-07
   10   -0.19519037E+03   -0.11368684E-12    0.92126280E-08

Total Energy:                     -193.2597424959 H        -5258.8652 eV
Extrapolated to 0K:               -193.2597424959 H        -5258.8652 eV
Total Mermin free energy:         -193.2597424959 H        -5258.8652 eV
Force related energy:             -193.2597424959 H        -5258.8652 eV

Volume:                              0.113865E+05 au^3   0.168731E+04 A^3
Pressure:                            0.588750E-05 au     0.173216E+09 Pa
>> Charges saved for restart in charges.bin

total energy  -1.9325974E+02 H       energy change -5.3077982E-04 H
gradient norm  1.7917989E-02 H/a0    max. gradient  4.5561202E-03 H/a0
step length    1.5358675E-01 a0      max. step      3.0997175E-02 a0

--------------------------------------------------------------------------------

***  Geometry step: 39

 iSCC Total electronic   Diff electronic      SCC error    
    1   -0.19519037E+03    0.00000000E+00    0.41177331E-02
    2   -0.19519169E+03   -0.13197557E-02    0.23460072E-02
    3   -0.19519171E+03   -0.17886098E-04    0.74860457E-03
    4   -0.19519171E+03   -0.25898415E-05    0.17092766E-03
    5   -0.19519171E+03   -0.11365543E-06    0.52624513E-04
    6   -0.19519171E+03   -0.64823098E-08    0.13358196E-04
    7   -0.19519171E+03   -0.13426416E-09    0.16862048E-05
    8   -0.19519171E+03   -0.11795009E-10    0.34121597E-06
    9   -0.19519171E+03   -0.85265128E-12    0.11007463E-06
   10   -0.19519171E+03   -0.56843419E-13    0.11375075E-07
   11   -0.19519171E+03    0.56843419E-13    0.26303142E-08

Total Energy:                     -193.2604135663 H        -5258.8834 eV
Extrapolated to 0K:               -193.2604135663 H        -5258.8834 eV
Total Mermin free energy:         -193.2604135663 H        -5258.8834 eV
Force related energy:             -193.2604135663 H        -5258.8834 eV

Volume:                              0.113976E+05 au^3   0.168896E+04 A^3
Pressure:                            0.552928E-05 au     0.162677E+09 Pa
>> Charges saved for restart in charges.bin

total energy  -1.9326041E+02 H       energy change -6.7107039E-04 H
gradient norm  1.9502738E-02 H/a0    max. gradient  4.2196287E-03 H/a0
step length    1.8533324E-01 a0      max. step      3.7598664E-02 a0

--------------------------------------------------------------------------------

***  Geometry step: 40

 iSCC Total electronic   Diff electronic      SCC error    
    1   -0.19519171E+03    0.00000000E+00    0.43613975E-02
    2   -0.19518977E+03    0.19396755E-02    0.24052924E-02
    3   -0.19518979E+03   -0.20878070E-04    0.69247894E-03
    4   -0.19518980E+03   -0.27617576E-05    0.12456942E-03
    5   -0.19518980E+03   -0.14744595E-06    0.39596040E-04
    6   -0.19518980E+03   -0.59298486E-08    0.10496348E-04
    7   -0.19518980E+03   -0.86743057E-10    0.19664931E-05
    8   -0.19518980E+03   -0.69348971E-11    0.25264522E-06
    9   -0.19518980E+03   -0.93791641E-12    0.59061489E-07
   10   -0.19518980E+03    0.00000000E+00    0.86850549E-08

Total Energy:                     -193.2611026756 H        -5258.9022 eV
Extrapolated to 0K:               -193.2611026756 H        -5258.9022 eV
Total Mermin free energy:         -193.2611026756 H        -5258.9022 eV
Force related energy:             -193.2611026756 H        -5258.9022 eV

Volume:                              0.114075E+05 au^3   0.169041E+04 A^3
Pressure:                            0.402693E-05 au     0.118476E+09 Pa
>> Charges saved for restart in charges.bin

total energy  -1.9326110E+02 H       energy change -6.8910934E-04 H
gradient norm  1.8852359E-02 H/a0    max. gradient  3.9680874E-03 H/a0
step length    1.9974041E-01 a0      max. step      4.3718968E-02 a0

--------------------------------------------------------------------------------

***  Geometry step: 41

 iSCC Total electronic   Diff electronic      SCC error    
    1   -0.19518980E+03    0.00000000E+00    0.36982909E-02
    2   -0.19518709E+03    0.27060241E-02    0.17467485E-02
    3   -0.19518711E+03   -0.15939984E-04    0.54133393E-03
    4   -0.19518711E+03   -0.19481629E-05    0.59201878E-04
    5   -0.19518711E+03   -0.10593578E-06    0.19222667E-04
    6   -0.19518711E+03   -0.34345362E-08    0.66409781E-05
    7   -0.19518711E+03   -0.50107474E-10    0.16964750E-05
    8   -0.19518711E+03   -0.21316282E-11    0.31131350E-06
    9   -0.19518711E+03   -0.45474735E-12    0.80144890E-07
   10   -0.19518711E+03    0.00000000E+00    0.98959743E-08

Total Energy:                     -193.2616604085 H        -5258.9174 eV
Extrapolated to 0K:               -193.2616604085 H        -5258.9174 eV
Total Mermin free energy:         -193.2616604085 H        -5258.9174 eV
Force related energy:             -193.2616604085 H        -5258.9174 eV

Volume:                              0.114149E+05 au^3   0.169151E+04 A^3
Pressure:                            0.237008E-05 au     0.697302E+08 Pa
>> Charges saved for restart in charges.bin

total energy  -1.9326166E+02 H       energy change -5.5773289E-04 H
gradient norm  1.6103535E-02 H/a0    max. gradient  3.0684883E-03 H/a0
step length    1.7326115E-01 a0      max. step      4.0329655E-02 a0

--------------------------------------------------------------------------------

***  Geometry step: 42

 iSCC Total electronic   Diff electronic      SCC error    
    1   -0.19518711E+03    0.00000000E+00    0.38653490E-02
    2   -0.19518660E+03    0.50781159E-03    0.21099051E-02
    3   -0.19518661E+03   -0.92156604E-05    0.59853897E-03
    4   -0.19518661E+03   -0.11066064E-05    0.78085413E-04
    5   -0.19518661E+03   -0.52368279E-07    0.28109068E-04
    6   -0.19518661E+03   -0.21021833E-08    0.78939002E-05
    7   -0.19518661E+03   -0.43854698E-10    0.91590910E-06
    8   -0.19518661E+03   -0.34106051E-11    0.18654826E-06
    9   -0.19518661E+03   -0.22737368E-12    0.50684760E-07
   10   -0.19518661E+03    0.00000000E+00    0.65328551E-08

Total Energy:                     -193.2620825444 H        -5258.9288 eV
Extrapolated to 0K:               -193.2620825444 H        -5258.9288 eV
Total Mermin free energy:         -193.2620825444 H        -5258.9288 eV
Force related energy:             -193.2620825444 H        -5258.9288 eV

Volume:                              0.114201E+05 au^3   0.169228E+04 A^3
Pressure:                            0.202445E-05 au     0.595613E+08 Pa
>> Charges saved for restart in charges.bin

total energy  -1.9326208E+02 H       energy change -4.2213591E-04 H
gradient norm  1.4695762E-02 H/a0    max. gradient  2.8073414E-03 H/a0
step length    1.3488791E-01 a0      max. step      3.1259655E-02 a0

--------------------------------------------------------------------------------

***  Geometry step: 43

 iSCC Total electronic   Diff electronic      SCC error    
    1   -0.19518661E+03    0.00000000E+00    0.44757216E-02
    2   -0.19518733E+03   -0.72056498E-03    0.24462407E-02
    3   -0.19518734E+03   -0.84757652E-05    0.67661633E-03
    4   -0.19518734E+03   -0.13517246E-05    0.14396123E-03
    5   -0.19518734E+03   -0.64646173E-07    0.47760339E-04
    6   -0.19518734E+03   -0.35594212E-08    0.10623322E-04
    7   -0.19518734E+03   -0.89585228E-10    0.89311849E-06
    8   -0.19518734E+03   -0.83844043E-11    0.25928495E-06
    9   -0.19518734E+03   -0.28421709E-12    0.68225367E-07
   10   -0.19518734E+03    0.85265128E-13    0.60017440E-08

Total Energy:                     -193.2625010210 H        -5258.9402 eV
Extrapolated to 0K:               -193.2625010210 H        -5258.9402 eV
Total Mermin free energy:         -193.2625010210 H        -5258.9402 eV
Force related energy:             -193.2625010210 H        -5258.9402 eV

Volume:                              0.114266E+05 au^3   0.169324E+04 A^3
Pressure:                            0.177416E-05 au     0.521974E+08 Pa
>> Charges saved for restart in charges.bin

total energy  -1.9326250E+02 H       energy change -4.1847655E-04 H
gradient norm  1.5041567E-02 H/a0    max. gradient  3.6047931E-03 H/a0
step length    1.3347953E-01 a0      max. step      2.7930756E-02 a0

--------------------------------------------------------------------------------

***  Geometry step: 44

 iSCC Total electronic   Diff electronic      SCC error    
    1   -0.19518734E+03    0.00000000E+00    0.36702980E-02
    2   -0.19519044E+03   -0.30966059E-02    0.21704565E-02
    3   -0.19519045E+03   -0.83243687E-05    0.75178475E-03
    4   -0.19519045E+03   -0.15260342E-05    0.16521512E-03
    5   -0.19519045E+03   -0.75450998E-07    0.51094388E-04
    6   -0.19519045E+03   -0.48499089E-08    0.99983947E-05
    7   -0.19519045E+03   -0.11010570E-09    0.87130569E-06
    8   -0.19519045E+03   -0.10174972E-10    0.23925299E-06
    9   -0.19519045E+03   -0.19895197E-12    0.61896398E-07
   10   -0.19519045E+03    0.00000000E+00    0.58206862E-08

Total Energy:                     -193.2628836977 H        -5258.9506 eV
Extrapolated to 0K:               -193.2628836977 H        -5258.9506 eV
Total Mermin free energy:         -193.2628836977 H        -5258.9506 eV
Force related energy:             -193.2628836977 H        -5258.9506 eV

Volume:                              0.114319E+05 au^3   0.169404E+04 A^3
Pressure:                            0.258665E-05 au     0.761018E+08 Pa
>> Charges saved for restart in charges.bin

total energy  -1.9326288E+02 H       energy change -3.8267677E-04 H
gradient norm  1.4958882E-02 H/a0    max. gradient  3.6870530E-03 H/a0
step length    1.2895853E-01 a0      max. step      2.6945537E-02 a0

--------------------------------------------------------------------------------

***  Geometry step: 45

 iSCC Total electronic   Diff electronic      SCC error    
    1   -0.19519045E+03    0.00000000E+00    0.36412664E-02
    2   -0.19519352E+03   -0.30663657E-02    0.21593336E-02
    3   -0.19519353E+03   -0.98833889E-05    0.78636721E-03
    4   -0.19519353E+03   -0.15651651E-05    0.16590389E-03
    5   -0.19519353E+03   -0.80089507E-07    0.47406795E-04
    6   -0.19519353E+03   -0.49024607E-08    0.10508603E-04
    7   -0.19519353E+03   -0.12440182E-09    0.95837908E-06
    8   -0.19519353E+03   -0.10373924E-10    0.21000403E-06
    9   -0.19519353E+03   -0.36948222E-12    0.61211547E-07
   10   -0.19519353E+03   -0.28421709E-13    0.52457794E-08

Total Energy:                     -193.2632419707 H        -5258.9604 eV
Extrapolated to 0K:               -193.2632419707 H        -5258.9604 eV
Total Mermin free energy:         -193.2632419707 H        -5258.9604 eV
Force related energy:             -193.2632419707 H        -5258.9604 eV

Volume:                              0.114381E+05 au^3   0.169495E+04 A^3
Pressure:                            0.328222E-05 au     0.965663E+08 Pa
>> Charges saved for restart in charges.bin

total energy  -1.9326324E+02 H       energy change -3.5827301E-04 H
gradient norm  1.3590403E-02 H/a0    max. gradient  3.2561594E-03 H/a0
step length    1.3942988E-01 a0      max. step      2.9008965E-02 a0

--------------------------------------------------------------------------------

***  Geometry step: 46

 iSCC Total electronic   Diff electronic      SCC error    
    1   -0.19519353E+03    0.00000000E+00    0.31205433E-02
    2   -0.19519543E+03   -0.19036526E-02    0.18841027E-02
    3   -0.19519544E+03   -0.10424178E-04    0.70656657E-03
    4   -0.19519544E+03   -0.14282360E-05    0.14655930E-03
    5   -0.19519544E+03   -0.62432122E-07    0.37983650E-04
    6   -0.19519544E+03   -0.41661679E-08    0.88519269E-05
    7   -0.19519544E+03   -0.10868462E-09    0.79365354E-06
    8   -0.19519544E+03   -0.80433438E-11    0.17023142E-06
    9   -0.19519544E+03   -0.22737368E-12    0.49402082E-07
   10   -0.19519544E+03   -0.56843419E-13    0.50732978E-08

Total Energy:                     -193.2635608575 H        -5258.9691 eV
Extrapolated to 0K:               -193.2635608575 H        -5258.9691 eV
Total Mermin free energy:         -193.2635608575 H        -5258.9691 eV
Force related energy:             -193.2635608575 H        -5258.9691 eV

Volume:                              0.114437E+05 au^3   0.169579E+04 A^3
Pressure:                            0.388288E-05 au     0.114238E+09 Pa
>> Charges saved for restart in charges.bin

total energy  -1.9326356E+02 H       energy change -3.1888681E-04 H
gradient norm  1.2575739E-02 H/a0    max. gradient  3.1671524E-03 H/a0
step length    1.3973150E-01 a0      max. step      2.9502913E-02 a0

--------------------------------------------------------------------------------

***  Geometry step: 47

 iSCC Total electronic   Diff electronic      SCC error    
    1   -0.19519544E+03    0.00000000E+00    0.29691061E-02
    2   -0.19519482E+03    0.62540656E-03    0.13029804E-02
    3   -0.19519483E+03   -0.86358551E-05    0.48130501E-03
    4   -0.19519483E+03   -0.11118625E-05    0.10245903E-03
    5   -0.19519483E+03   -0.43650516E-07    0.27767289E-04
    6   -0.19519483E+03   -0.33543586E-08    0.73904943E-05
    7   -0.19519483E+03   -0.82422957E-10    0.61255073E-06
    8   -0.19519483E+03   -0.45474735E-11    0.11554557E-06
    9   -0.19519483E+03   -0.31263880E-12    0.37761404E-07
   10   -0.19519483E+03   -0.85265128E-13    0.54524456E-08

Total Energy:                     -193.2638409094 H        -5258.9767 eV
Extrapolated to 0K:               -193.2638409094 H        -5258.9767 eV
Total Mermin free energy:         -193.2638409094 H        -5258.9767 eV
Force related energy:             -193.2638409094 H        -5258.9767 eV

Volume:                              0.114491E+05 au^3   0.169658E+04 A^3
Pressure:                            0.336693E-05 au     0.990585E+08 Pa
>> Charges saved for restart in charges.bin

total energy  -1.9326384E+02 H       energy change -2.8005189E-04 H
gradient norm  1.2367094E-02 H/a0    max. gradient  2.5520920E-03 H/a0
step length    1.2932023E-01 a0      max. step      2.7777515E-02 a0

--------------------------------------------------------------------------------

***  Geometry step: 48

 iSCC Total electronic   Diff electronic      SCC error    
    1   -0.19519483E+03    0.00000000E+00    0.36107352E-02
    2   -0.19519417E+03    0.65768934E-03    0.18222028E-02
    3   -0.19519418E+03   -0.10238550E-04    0.52368493E-03
    4   -0.19519418E+03   -0.13861861E-05    0.86930509E-04
    5   -0.19519418E+03   -0.58985705E-07    0.26690771E-04
    6   -0.19519418E+03   -0.46470632E-08    0.81470229E-05
    7   -0.19519418E+03   -0.96605390E-10    0.91834310E-06
    8   -0.19519418E+03   -0.42632564E-11    0.15576769E-06
    9   -0.19519418E+03   -0.22737368E-12    0.48064363E-07
   10   -0.19519418E+03    0.28421709E-13    0.78429268E-08

Total Energy:                     -193.2641308653 H        -5258.9846 eV
Extrapolated to 0K:               -193.2641308653 H        -5258.9846 eV
Total Mermin free energy:         -193.2641308653 H        -5258.9846 eV
Force related energy:             -193.2641308653 H        -5258.9846 eV

Volume:                              0.114507E+05 au^3   0.169682E+04 A^3
Pressure:                            0.313979E-05 au     0.923759E+08 Pa
>> Charges saved for restart in charges.bin

total energy  -1.9326413E+02 H       energy change -2.8995585E-04 H
gradient norm  1.2481106E-02 H/a0    max. gradient  2.7609418E-03 H/a0
step length    1.2176550E-01 a0      max. step      2.9465655E-02 a0

--------------------------------------------------------------------------------

***  Geometry step: 49

 iSCC Total electronic   Diff electronic      SCC error    
    1   -0.19519418E+03    0.00000000E+00    0.32672161E-02
    2   -0.19519267E+03    0.15091844E-02    0.18239616E-02
    3   -0.19519268E+03   -0.87816028E-05    0.47532572E-03
    4   -0.19519268E+03   -0.13721076E-05    0.56063336E-04
    5   -0.19519268E+03   -0.48110167E-07    0.15504981E-04
    6   -0.19519268E+03   -0.40742805E-08    0.55962251E-05
    7   -0.19519268E+03   -0.76198603E-10    0.11519484E-05
    8   -0.19519268E+03   -0.19042545E-11    0.22137747E-06
    9   -0.19519268E+03   -0.22737368E-12    0.38912843E-07
   10   -0.19519268E+03   -0.28421709E-13    0.81846681E-08

Total Energy:                     -193.2643750360 H        -5258.9912 eV
Extrapolated to 0K:               -193.2643750360 H        -5258.9912 eV
Total Mermin free energy:         -193.2643750360 H        -5258.9912 eV
Force related energy:             -193.2643750360 H        -5258.9912 eV

Volume:                              0.114512E+05 au^3   0.169690E+04 A^3
Pressure:                            0.252943E-05 au     0.744183E+08 Pa
>> Charges saved for restart in charges.bin

total energy  -1.9326438E+02 H       energy change -2.4417070E-04 H
gradient norm  1.1405938E-02 H/a0    max. gradient  2.4336928E-03 H/a0
step length    9.4476360E-02 a0      max. step      2.4851380E-02 a0

--------------------------------------------------------------------------------

***  Geometry step: 50

 iSCC Total electronic   Diff electronic      SCC error    
    1   -0.19519268E+03    0.00000000E+00    0.28208256E-02
    2   -0.19519218E+03    0.50556488E-03    0.15919334E-02
    3   -0.19519218E+03   -0.62798613E-05    0.45494613E-03
    4   -0.19519218E+03   -0.10120033E-05    0.47128263E-04
    5   -0.19519218E+03   -0.27492547E-07    0.77103124E-05
    6   -0.19519218E+03   -0.19653328E-08    0.22707285E-05
    7   -0.19519218E+03   -0.34560799E-10    0.45880850E-06
    8   -0.19519218E+03   -0.73896445E-12    0.13720683E-06
    9   -0.19519218E+03   -0.14210855E-12    0.43495368E-07
   10   -0.19519218E+03    0.00000000E+00    0.90705017E-08

Total Energy:                     -193.2645819161 H        -5258.9968 eV
Extrapolated to 0K:               -193.2645819161 H        -5258.9968 eV
Total Mermin free energy:         -193.2645819161 H        -5258.9968 eV
Force related energy:             -193.2645819161 H        -5258.9968 eV

Volume:                              0.114500E+05 au^3   0.169672E+04 A^3
Pressure:                            0.231221E-05 au     0.680274E+08 Pa
>> Charges saved for restart in charges.bin

total energy  -1.9326458E+02 H       energy change -2.0688010E-04 H
gradient norm  1.0619497E-02 H/a0    max. gradient  2.2701626E-03 H/a0
step length    6.7805136E-02 a0      max. step      1.7965601E-02 a0

[...]
gradient norm  1.0698172E-03 H/a0    max. gradient  2.3336550E-04 H/a0
step length    5.0120567E-03 a0      max. step      9.8527073E-04 a0

--------------------------------------------------------------------------------

***  Geometry step: 149

 iSCC Total electronic   Diff electronic      SCC error    
    1   -0.19518106E+03    0.00000000E+00    0.26352275E-03
    2   -0.19518129E+03   -0.23425477E-03    0.12783735E-03
    3   -0.19518129E+03   -0.89759254E-07    0.40178139E-04
    4   -0.19518129E+03   -0.11826074E-07    0.32710555E-05
    5   -0.19518129E+03   -0.23226221E-09    0.10436634E-05
    6   -0.19518129E+03   -0.13159251E-10    0.36832014E-06
    7   -0.19518129E+03   -0.36948222E-12    0.69894802E-07
    8   -0.19518129E+03   -0.85265128E-13    0.10473355E-07
    9   -0.19518129E+03    0.85265128E-13    0.32330107E-08

Total Energy:                     -193.2747426968 H        -5259.2733 eV
Extrapolated to 0K:               -193.2747426968 H        -5259.2733 eV
Total Mermin free energy:         -193.2747426968 H        -5259.2733 eV
Force related energy:             -193.2747426968 H        -5259.2733 eV

Volume:                              0.112216E+05 au^3   0.166287E+04 A^3
Pressure:                            0.305750E-08 au     0.899546E+05 Pa
>> Charges saved for restart in charges.bin

total energy  -1.9327474E+02 H       energy change -2.9125290E-06 H
gradient norm  1.3160509E-03 H/a0    max. gradient  4.5578451E-04 H/a0
step length    1.8746628E-02 a0      max. step      3.9765873E-03 a0

--------------------------------------------------------------------------------

***  Geometry step: 150

 iSCC Total electronic   Diff electronic      SCC error    
    1   -0.19518129E+03    0.00000000E+00    0.24453989E-03
    2   -0.19518158E+03   -0.29081466E-03    0.10657611E-03
    3   -0.19518158E+03   -0.91491188E-07    0.35870159E-04
    4   -0.19518158E+03   -0.12103925E-07    0.31165401E-05
    5   -0.19518158E+03   -0.25599434E-09    0.62543814E-06
    6   -0.19518158E+03   -0.12732926E-10    0.19020740E-06
    7   -0.19518158E+03   -0.28421709E-13    0.36586573E-07
    8   -0.19518158E+03    0.28421709E-13    0.10903566E-07
    9   -0.19518158E+03   -0.56843419E-13    0.28853790E-08

Total Energy:                     -193.2747457598 H        -5259.2734 eV
Extrapolated to 0K:               -193.2747457598 H        -5259.2734 eV
Total Mermin free energy:         -193.2747457598 H        -5259.2734 eV
Force related energy:             -193.2747457598 H        -5259.2734 eV

Volume:                              0.112221E+05 au^3   0.166294E+04 A^3
Pressure:                            0.115991E-06 au     0.341258E+07 Pa
>> Charges saved for restart in charges.bin

total energy  -1.9327475E+02 H       energy change -3.0629982E-06 H
gradient norm  1.5785482E-03 H/a0    max. gradient  7.3965098E-04 H/a0
step length    2.3874266E-02 a0      max. step      5.2716429E-03 a0

--------------------------------------------------------------------------------

***  Geometry step: 151

 iSCC Total electronic   Diff electronic      SCC error    
    1   -0.19518158E+03    0.00000000E+00    0.32608214E-03
    2   -0.19518170E+03   -0.11808947E-03    0.11474563E-03
    3   -0.19518170E+03   -0.13413404E-06    0.37251321E-04
    4   -0.19518170E+03   -0.15916555E-07    0.56734808E-05
    5   -0.19518170E+03   -0.30624392E-09    0.16104144E-05
    6   -0.19518170E+03   -0.18218316E-10    0.40560640E-06
    7   -0.19518170E+03   -0.11368684E-12    0.49522907E-07
    8   -0.19518170E+03   -0.11368684E-12    0.93397539E-08

Total Energy:                     -193.2747491777 H        -5259.2735 eV
Extrapolated to 0K:               -193.2747491777 H        -5259.2735 eV
Total Mermin free energy:         -193.2747491777 H        -5259.2735 eV
Force related energy:             -193.2747491777 H        -5259.2735 eV

Volume:                              0.112225E+05 au^3   0.166301E+04 A^3
Pressure:                            0.134516E-06 au     0.395761E+07 Pa
>> Charges saved for restart in charges.bin

total energy  -1.9327475E+02 H       energy change -3.4179535E-06 H
gradient norm  1.4764391E-03 H/a0    max. gradient  5.7041472E-04 H/a0
step length    2.3961235E-02 a0      max. step      5.9042030E-03 a0

--------------------------------------------------------------------------------

***  Geometry step: 152

 iSCC Total electronic   Diff electronic      SCC error    
    1   -0.19518170E+03    0.00000000E+00    0.39235706E-03
    2   -0.19518185E+03   -0.15378012E-03    0.12895286E-03
    3   -0.19518185E+03   -0.11450251E-06    0.47462229E-04
    4   -0.19518185E+03   -0.14416202E-07    0.57542543E-05
    5   -0.19518185E+03   -0.28407499E-09    0.14001323E-05
    6   -0.19518185E+03   -0.19042545E-10    0.44782574E-06
    7   -0.19518185E+03   -0.25579538E-12    0.64152164E-07
    8   -0.19518185E+03    0.11368684E-12    0.10830673E-07
    9   -0.19518185E+03   -0.11368684E-12    0.25988092E-08

Total Energy:                     -193.2747520070 H        -5259.2736 eV
Extrapolated to 0K:               -193.2747520070 H        -5259.2736 eV
Total Mermin free energy:         -193.2747520070 H        -5259.2736 eV
Force related energy:             -193.2747520070 H        -5259.2736 eV

Volume:                              0.112223E+05 au^3   0.166298E+04 A^3
Pressure:                            0.231416E-06 au     0.680848E+07 Pa
>> Charges saved for restart in charges.bin

total energy  -1.9327475E+02 H       energy change -2.8292215E-06 H
gradient norm  1.1050259E-03 H/a0    max. gradient  2.7555463E-04 H/a0
step length    1.0635761E-02 a0      max. step      2.7648860E-03 a0

--------------------------------------------------------------------------------

***  Geometry step: 153

 iSCC Total electronic   Diff electronic      SCC error    
    1   -0.19518185E+03    0.00000000E+00    0.24820266E-03
    2   -0.19518164E+03    0.21778714E-03    0.10821765E-03
    3   -0.19518164E+03   -0.55156477E-07    0.29334505E-04
    4   -0.19518164E+03   -0.82097813E-08    0.44001275E-05
    5   -0.19518164E+03   -0.23061375E-09    0.13022270E-05
    6   -0.19518164E+03   -0.11425527E-10    0.32336405E-06
    7   -0.19518164E+03   -0.11368684E-12    0.45207031E-07
    8   -0.19518164E+03   -0.28421709E-13    0.70140316E-08

Total Energy:                     -193.2747536306 H        -5259.2736 eV
Extrapolated to 0K:               -193.2747536306 H        -5259.2736 eV
Total Mermin free energy:         -193.2747536306 H        -5259.2736 eV
Force related energy:             -193.2747536306 H        -5259.2736 eV

Volume:                              0.112223E+05 au^3   0.166297E+04 A^3
Pressure:                            0.124945E-06 au     0.367602E+07 Pa
>> Charges saved for restart in charges.bin

total energy  -1.9327475E+02 H       energy change -1.6236167E-06 H
gradient norm  8.2866740E-04 H/a0    max. gradient  1.6974360E-04 H/a0
step length    7.0512439E-03 a0      max. step      1.6389968E-03 a0

--------------------------------------------------------------------------------

***  Geometry step: 154

 iSCC Total electronic   Diff electronic      SCC error    
    1   -0.19518164E+03    0.00000000E+00    0.15874024E-03
    2   -0.19518142E+03    0.21658478E-03    0.71731466E-04
    3   -0.19518142E+03   -0.21609793E-07    0.19358919E-04
    4   -0.19518142E+03   -0.32493404E-08    0.18856885E-05
    5   -0.19518142E+03   -0.95241148E-10    0.66758811E-06
    6   -0.19518142E+03   -0.38937742E-11    0.22356222E-06
    7   -0.19518142E+03    0.56843419E-13    0.45038670E-07
    8   -0.19518142E+03   -0.56843419E-13    0.57339760E-08

Total Energy:                     -193.2747545841 H        -5259.2737 eV
Extrapolated to 0K:               -193.2747545841 H        -5259.2737 eV
Total Mermin free energy:         -193.2747545841 H        -5259.2737 eV
Force related energy:             -193.2747545841 H        -5259.2737 eV

Volume:                              0.112225E+05 au^3   0.166300E+04 A^3
Pressure:                            0.496886E-07 au     0.146189E+07 Pa
>> Charges saved for restart in charges.bin

total energy  -1.9327475E+02 H       energy change -9.5355102E-07 H
gradient norm  8.1188461E-04 H/a0    max. gradient  2.5617538E-04 H/a0
step length    2.6744049E-03 a0      max. step      7.1187350E-04 a0

--------------------------------------------------------------------------------

***  Geometry step: 155

 iSCC Total electronic   Diff electronic      SCC error    
    1   -0.19518142E+03    0.00000000E+00    0.17638014E-03
    2   -0.19518116E+03    0.25421651E-03    0.10099882E-03
    3   -0.19518116E+03   -0.32739990E-07    0.30335476E-04
    4   -0.19518116E+03   -0.46951243E-08    0.26880221E-05
    5   -0.19518116E+03   -0.14685497E-09    0.73364957E-06
    6   -0.19518116E+03   -0.69348971E-11    0.27571769E-06
    7   -0.19518116E+03   -0.22737368E-12    0.50382308E-07
    8   -0.19518116E+03    0.11368684E-12    0.58840657E-08

Total Energy:                     -193.2747557578 H        -5259.2737 eV
Extrapolated to 0K:               -193.2747557578 H        -5259.2737 eV
Total Mermin free energy:         -193.2747557578 H        -5259.2737 eV
Force related energy:             -193.2747557578 H        -5259.2737 eV

Volume:                              0.112229E+05 au^3   0.166306E+04 A^3
Pressure:                           -0.720396E-07 au    -0.211948E+07 Pa
>> Charges saved for restart in charges.bin

total energy  -1.9327476E+02 H       energy change -1.1736704E-06 H
gradient norm  8.7308008E-04 H/a0    max. gradient  2.3603094E-04 H/a0
step length    4.4722139E-03 a0      max. step      9.4254985E-04 a0

--------------------------------------------------------------------------------

***  Geometry step: 156

 iSCC Total electronic   Diff electronic      SCC error    
    1   -0.19518116E+03    0.00000000E+00    0.19635871E-03
    2   -0.19518107E+03    0.97672660E-04    0.84046185E-04
    3   -0.19518107E+03   -0.35556553E-07    0.29135206E-04
    4   -0.19518107E+03   -0.48104596E-08    0.25554991E-05
    5   -0.19518107E+03   -0.10280132E-09    0.64799069E-06
    6   -0.19518107E+03   -0.52011728E-11    0.25740428E-06
    7   -0.19518107E+03   -0.17053026E-12    0.38503258E-07
    8   -0.19518107E+03   -0.85265128E-13    0.52984728E-08

Total Energy:                     -193.2747572545 H        -5259.2737 eV
Extrapolated to 0K:               -193.2747572545 H        -5259.2737 eV
Total Mermin free energy:         -193.2747572545 H        -5259.2737 eV
Force related energy:             -193.2747572545 H        -5259.2737 eV

Volume:                              0.112239E+05 au^3   0.166320E+04 A^3
Pressure:                           -0.166892E-06 au    -0.491012E+07 Pa
>> Charges saved for restart in charges.bin

total energy  -1.9327476E+02 H       energy change -1.4966695E-06 H
gradient norm  1.0502501E-03 H/a0    max. gradient  3.3632813E-04 H/a0
step length    1.0124896E-02 a0      max. step      2.2196318E-03 a0

--------------------------------------------------------------------------------

***  Geometry step: 157

 iSCC Total electronic   Diff electronic      SCC error    
    1   -0.19518107E+03    0.00000000E+00    0.30270104E-03
    2   -0.19518109E+03   -0.27178078E-04    0.11015047E-03
    3   -0.19518109E+03   -0.60266927E-07    0.32507775E-04
    4   -0.19518109E+03   -0.80770519E-08    0.32557815E-05
    5   -0.19518109E+03   -0.14546231E-09    0.95738278E-06
    6   -0.19518109E+03   -0.73328010E-11    0.25458565E-06
    7   -0.19518109E+03   -0.11368684E-12    0.22857845E-07
    8   -0.19518109E+03   -0.28421709E-13    0.46195083E-08

Total Energy:                     -193.2747591805 H        -5259.2738 eV
Extrapolated to 0K:               -193.2747591805 H        -5259.2738 eV
Total Mermin free energy:         -193.2747591805 H        -5259.2738 eV
Force related energy:             -193.2747591805 H        -5259.2738 eV

Volume:                              0.112254E+05 au^3   0.166343E+04 A^3
Pressure:                           -0.226605E-06 au    -0.666694E+07 Pa
>> Charges saved for restart in charges.bin

total energy  -1.9327476E+02 H       energy change -1.9260711E-06 H
gradient norm  1.0367132E-03 H/a0    max. gradient  2.7568165E-04 H/a0
step length    1.8179291E-02 a0      max. step      4.0585517E-03 a0

--------------------------------------------------------------------------------

***  Geometry step: 158

 iSCC Total electronic   Diff electronic      SCC error    
    1   -0.19518109E+03    0.00000000E+00    0.26455946E-03
    2   -0.19518136E+03   -0.26310273E-03    0.89811810E-04
    3   -0.19518136E+03   -0.59797543E-07    0.26500512E-04
    4   -0.19518136E+03   -0.82593203E-08    0.38185871E-05
    5   -0.19518136E+03   -0.19301183E-09    0.10767649E-05
    6   -0.19518136E+03   -0.11738166E-10    0.37840802E-06
    7   -0.19518136E+03   -0.36948222E-12    0.63867084E-07
    8   -0.19518136E+03    0.85265128E-13    0.79761899E-08

Total Energy:                     -193.2747610750 H        -5259.2738 eV
Extrapolated to 0K:               -193.2747610750 H        -5259.2738 eV
Total Mermin free energy:         -193.2747610750 H        -5259.2738 eV
Force related energy:             -193.2747610750 H        -5259.2738 eV

Volume:                              0.112265E+05 au^3   0.166360E+04 A^3
Pressure:                           -0.188240E-06 au    -0.553821E+07 Pa
>> Charges saved for restart in charges.bin

total energy  -1.9327476E+02 H       energy change -1.8944922E-06 H
gradient norm  9.5282720E-04 H/a0    max. gradient  2.1835053E-04 H/a0
step length    1.7318802E-02 a0      max. step      3.6119459E-03 a0

--------------------------------------------------------------------------------

***  Geometry step: 159

 iSCC Total electronic   Diff electronic      SCC error    
    1   -0.19518136E+03    0.00000000E+00    0.26290251E-03
    2   -0.19518159E+03   -0.23104285E-03    0.84593407E-04
    3   -0.19518159E+03   -0.40586940E-07    0.23202885E-04
    4   -0.19518159E+03   -0.49063260E-08    0.28801525E-05
    5   -0.19518159E+03   -0.11638690E-09    0.58181923E-06
    6   -0.19518159E+03   -0.91233687E-11    0.22193683E-06
    7   -0.19518159E+03   -0.22737368E-12    0.49794530E-07
    8   -0.19518159E+03    0.85265128E-13    0.46061177E-08

Total Energy:                     -193.2747625336 H        -5259.2739 eV
Extrapolated to 0K:               -193.2747625336 H        -5259.2739 eV
Total Mermin free energy:         -193.2747625336 H        -5259.2739 eV
Force related energy:             -193.2747625336 H        -5259.2739 eV

Volume:                              0.112263E+05 au^3   0.166357E+04 A^3
Pressure:                           -0.926857E-07 au    -0.272691E+07 Pa
>> Charges saved for restart in charges.bin

total energy  -1.9327476E+02 H       energy change -1.4585899E-06 H
gradient norm  8.1601761E-04 H/a0    max. gradient  2.3404619E-04 H/a0
step length    5.6563539E-03 a0      max. step      1.3175490E-03 a0

--------------------------------------------------------------------------------

***  Geometry step: 160

 iSCC Total electronic   Diff electronic      SCC error    
    1   -0.19518159E+03    0.00000000E+00    0.28184373E-03
    2   -0.19518182E+03   -0.23148641E-03    0.13250065E-03
    3   -0.19518182E+03   -0.61299318E-07    0.43769145E-04
    4   -0.19518182E+03   -0.79392919E-08    0.39208415E-05
    5   -0.19518182E+03   -0.20199309E-09    0.57880141E-06
    6   -0.19518182E+03   -0.12647661E-10    0.23740504E-06
    7   -0.19518182E+03   -0.28421709E-12    0.58115510E-07
    8   -0.19518182E+03   -0.85265128E-13    0.77964839E-08

Total Energy:                     -193.2747637866 H        -5259.2739 eV
Extrapolated to 0K:               -193.2747637866 H        -5259.2739 eV
Total Mermin free energy:         -193.2747637866 H        -5259.2739 eV
Force related energy:             -193.2747637866 H        -5259.2739 eV

Volume:                              0.112259E+05 au^3   0.166351E+04 A^3
Pressure:                            0.247489E-07 au     0.728139E+06 Pa
>> Charges saved for restart in charges.bin

total energy  -1.9327476E+02 H       energy change -1.2529284E-06 H
gradient norm  6.3161884E-04 H/a0    max. gradient  1.2730963E-04 H/a0
step length    6.2749731E-03 a0      max. step      1.4116147E-03 a0

--------------------------------------------------------------------------------

***  Geometry step: 161

 iSCC Total electronic   Diff electronic      SCC error    
    1   -0.19518182E+03    0.00000000E+00    0.15753950E-03
    2   -0.19518169E+03    0.13325517E-03    0.81734893E-04
    3   -0.19518169E+03   -0.24358741E-07    0.23513792E-04
    4   -0.19518169E+03   -0.35010430E-08    0.22143377E-05
    5   -0.19518169E+03   -0.10913936E-09    0.33254615E-06
    6   -0.19518169E+03   -0.48316906E-11    0.10316470E-06
    7   -0.19518169E+03   -0.14210855E-12    0.13426969E-07
    8   -0.19518169E+03    0.28421709E-13    0.26534575E-08

Total Energy:                     -193.2747645999 H        -5259.2739 eV
Extrapolated to 0K:               -193.2747645999 H        -5259.2739 eV
Total Mermin free energy:         -193.2747645999 H        -5259.2739 eV
Force related energy:             -193.2747645999 H        -5259.2739 eV

Volume:                              0.112253E+05 au^3   0.166341E+04 A^3
Pressure:                           -0.336754E-07 au    -0.990763E+06 Pa
>> Charges saved for restart in charges.bin

total energy  -1.9327476E+02 H       energy change -8.1333781E-07 H
gradient norm  5.9879217E-04 H/a0    max. gradient  1.2789042E-04 H/a0
step length    1.4967479E-02 a0      max. step      3.0273612E-03 a0

--------------------------------------------------------------------------------

***  Geometry step: 162

 iSCC Total electronic   Diff electronic      SCC error    
    1   -0.19518169E+03    0.00000000E+00    0.79220997E-04
    2   -0.19518180E+03   -0.11604574E-03    0.47334764E-04
    3   -0.19518180E+03   -0.53945826E-08    0.12465665E-04
    4   -0.19518180E+03   -0.94783559E-09    0.16634158E-05
    5   -0.19518180E+03   -0.37232439E-10    0.60791618E-06
    6   -0.19518180E+03   -0.13926638E-11    0.14557397E-06
    7   -0.19518180E+03   -0.11368684E-12    0.13657056E-07
    8   -0.19518180E+03    0.00000000E+00    0.29850655E-08

Total Energy:                     -193.2747650079 H        -5259.2739 eV
Extrapolated to 0K:               -193.2747650079 H        -5259.2739 eV
Total Mermin free energy:         -193.2747650079 H        -5259.2739 eV
Force related energy:             -193.2747650079 H        -5259.2739 eV

Volume:                              0.112252E+05 au^3   0.166340E+04 A^3
Pressure:                            0.273192E-07 au     0.803757E+06 Pa
>> Charges saved for restart in charges.bin

total energy  -1.9327477E+02 H       energy change -4.0804355E-07 H
gradient norm  4.8213852E-04 H/a0    max. gradient  8.4170809E-05 H/a0
step length    1.2741807E-03 a0      max. step      2.3207187E-04 a0

Geometry converged

--------------------------------------------------------------------------------
DFTB+ running times                          cpu [s]             wall clock [s]
--------------------------------------------------------------------------------
Pre-SCC initialisation                 +      14.78 (  0.9%)       2.17 (  1.1%)
SCC                                    +    1450.21 ( 89.6%)     183.12 ( 90.5%)
Post-SCC processing                    +     153.87 (  9.5%)      16.98 (  8.4%)
--------------------------------------------------------------------------------
Missing                                +       0.04 (  0.0%)       0.01 (  0.0%)
Total                                  =    1618.89 (100.0%)     202.28 (100.0%)
--------------------------------------------------------------------------------
