|===============================================================================
|
|  DFTB+ release 24.1
|
|  Copyright (C) 2006 - 2024  DFTB+ developers group
|
|===============================================================================
|
|  When publishing results obtained with DFTB+, please cite the following
|  reference:
|
|  * DFTB+, a software package for efficient approximate density functional
|    theory based atomistic simulations, J. Chem. Phys. 152, 124101 (2020).
|    [doi: 10.1063/1.5143190]
|
|  You should also cite additional publications crediting the parametrization
|  data you use. Please consult the documentation of the SK-files for the
|  references.
|
|===============================================================================

Reading input file 'dftb_in.hsd'
Parser version: 14

--------------------------------------------------------------------------------
Reading SK-files:
./SKFiles/Si-Si.skf
./SKFiles/Si-Ge.skf
./SKFiles/Si-O.skf
./SKFiles/Ge-Ge.skf
./SKFiles/Ge-O.skf
./SKFiles/O-O.skf
Done.


Processed input in HSD format written to 'dftb_pin.hsd'

Starting initialization...
--------------------------------------------------------------------------------
WARNING!
-> Dipole printed for extended system : value printed is not well defined
MPI processes:               1
OpenMP threads:              8
BLACS orbital grid size:     1 x 1
BLACS atom grid size:        1 x 1
Chosen random seed:          150819097
Current stacksize:           unlimited
Mode:                        Static calculation
Self consistent charges:     Yes
SCC-tolerance:                 0.100000E-07
Max. scc iterations:                    500
Shell resolved Hubbard:      No
Spin polarisation:           No
Nr. of up electrons:           192.000000
Nr. of down electrons:         192.000000
Periodic boundaries:         Yes
Electronic solver:           Relatively robust
Mixer:                       Broyden mixer
Mixing parameter:                  0.200000
Maximal SCC-cycles:                     500
Nr. of chrg. vec. in memory:            500
Electronic temperature:              0.100000E-07 H      0.272114E-06 eV
Initial charges:             Set automatically (system chrg:   0.000E+00)
Included shells:            Si:  s, p, d
                            Ge:  s, p, d
                             O:  s, p
K-points and weights:           1:  0.500000  0.500000  0.500000     1.000000

K-points in absolute space:     1:  0.025319  0.017606  0.037774

Extra options:
                             Mulliken analysis
Force type                   original

--------------------------------------------------------------------------------

***  Geometry step: 0

 iSCC Total electronic   Diff electronic      SCC error    
    1    0.00000000E+00    0.00000000E+00    0.14261921E+01
    2   -0.19732408E+03   -0.19732408E+03    0.97898638E+00
    3   -0.19766701E+03   -0.34293314E+00    0.38559376E-01
    4   -0.19795566E+03   -0.28865015E+00    0.32651747E-01
    5   -0.19795730E+03   -0.16384988E-02    0.52939754E-02
    6   -0.19795742E+03   -0.11346264E-03    0.14545951E-02
    7   -0.19795742E+03   -0.35934937E-05    0.34013060E-03
    8   -0.19795742E+03   -0.61640492E-06    0.63689302E-04
    9   -0.19795742E+03   -0.42134019E-07    0.20124822E-04
   10   -0.19795742E+03   -0.27156943E-09    0.45386972E-05
   11   -0.19795742E+03   -0.98850705E-10    0.52024614E-06
   12   -0.19795742E+03   -0.49169557E-11    0.14048596E-06
   13   -0.19795742E+03    0.00000000E+00    0.18506855E-07
   14   -0.19795742E+03   -0.28421709E-13    0.69797701E-08

Total Energy:                     -190.4252809865 H        -5181.7355 eV
Extrapolated to 0K:               -190.4252809865 H        -5181.7355 eV
Total Mermin free energy:         -190.4252809865 H        -5181.7355 eV
Force related energy:             -190.4252809865 H        -5181.7355 eV

Volume:                              0.913789E+04 au^3   0.135410E+04 A^3
Pressure:                            0.249384E-02 au     0.733713E+11 Pa
>> Charges saved for restart in charges.bin

total energy  -1.9042528E+02 H       energy change -1.9042528E+02 H
gradient norm  2.1783042E+00 H/a0    max. gradient  1.3961791E+00 H/a0
step length    0.0000000E+00 a0      max. step      0.0000000E+00 a0

--------------------------------------------------------------------------------

***  Geometry step: 1

 iSCC Total electronic   Diff electronic      SCC error    
    1   -0.19795742E+03    0.00000000E+00    0.14127114E+00
    2   -0.19729204E+03    0.66537911E+00    0.66999494E-01
    3   -0.19730843E+03   -0.16391434E-01    0.20585867E-01
    4   -0.19731135E+03   -0.29202755E-02    0.23203712E-02
    5   -0.19731143E+03   -0.77844820E-04    0.75056845E-03
    6   -0.19731143E+03   -0.47436353E-05    0.24598929E-03
    7   -0.19731143E+03   -0.16275425E-06    0.33068892E-04
    8   -0.19731143E+03   -0.18643732E-07    0.72033494E-05
    9   -0.19731143E+03   -0.10941790E-08    0.30673464E-05
   10   -0.19731143E+03   -0.19184654E-10    0.79953403E-06
   11   -0.19731143E+03   -0.93791641E-12    0.11699134E-06
   12   -0.19731143E+03   -0.31263880E-12    0.21856036E-07
   13   -0.19731143E+03   -0.28421709E-13    0.33876821E-08

Total Energy:                     -191.1074432878 H        -5200.2981 eV
Extrapolated to 0K:               -191.1074432878 H        -5200.2981 eV
Total Mermin free energy:         -191.1074432878 H        -5200.2981 eV
Force related energy:             -191.1074432878 H        -5200.2981 eV

Volume:                              0.968409E+04 au^3   0.143503E+04 A^3
Pressure:                            0.180435E-02 au     0.530858E+11 Pa
>> Charges saved for restart in charges.bin

total energy  -1.9110744E+02 H       energy change -6.8216230E-01 H
gradient norm  1.4203131E+00 H/a0    max. gradient  2.8004803E-01 H/a0
step length    7.9646898E-01 a0      max. step      5.1049499E-01 a0

--------------------------------------------------------------------------------

***  Geometry step: 2

 iSCC Total electronic   Diff electronic      SCC error    
    1   -0.19731143E+03    0.00000000E+00    0.54718033E-01
    2   -0.19695478E+03    0.35665347E+00    0.30661059E-01
    3   -0.19695781E+03   -0.30276240E-02    0.58807597E-02
    4   -0.19695844E+03   -0.62872878E-03    0.10679551E-02
    5   -0.19695846E+03   -0.17575612E-04    0.21653106E-03
    6   -0.19695846E+03   -0.11993664E-05    0.15564008E-03
    7   -0.19695846E+03   -0.16421581E-07    0.20736620E-04
    8   -0.19695846E+03   -0.26358862E-08    0.32011882E-05
    9   -0.19695846E+03   -0.22416202E-09    0.89979146E-06
   10   -0.19695846E+03   -0.32684966E-11    0.19011601E-06
   11   -0.19695846E+03   -0.56843419E-13    0.46434895E-07
   12   -0.19695846E+03   -0.85265128E-13    0.12035814E-07
   13   -0.19695846E+03    0.00000000E+00    0.14907529E-08

Total Energy:                     -191.8848939197 H        -5221.4536 eV
Extrapolated to 0K:               -191.8848939197 H        -5221.4536 eV
Total Mermin free energy:         -191.8848939197 H        -5221.4536 eV
Force related energy:             -191.8848939197 H        -5221.4536 eV

Volume:                              0.983418E+04 au^3   0.145728E+04 A^3
Pressure:                            0.134004E-02 au     0.394252E+11 Pa
>> Charges saved for restart in charges.bin

total energy  -1.9188489E+02 H       energy change -7.7745063E-01 H
gradient norm  9.4621055E-01 H/a0    max. gradient  2.0012952E-01 H/a0
step length    7.4587365E-01 a0      max. step      1.3393199E-01 a0

--------------------------------------------------------------------------------

***  Geometry step: 3

 iSCC Total electronic   Diff electronic      SCC error    
    1   -0.19695846E+03    0.00000000E+00    0.75320186E-01
    2   -0.19657285E+03    0.38560183E+00    0.31605441E-01
    3   -0.19657745E+03   -0.45932469E-02    0.10455924E-01
    4   -0.19657819E+03   -0.73808801E-03    0.13689440E-02
    5   -0.19657822E+03   -0.37235903E-04    0.34898549E-03
    6   -0.19657823E+03   -0.19185328E-05    0.15265247E-03
    7   -0.19657823E+03   -0.34151014E-07    0.20316361E-04
    8   -0.19657823E+03   -0.33670915E-08    0.44110925E-05
    9   -0.19657823E+03   -0.38076564E-09    0.14449207E-05
   10   -0.19657823E+03   -0.88959951E-11    0.46210754E-06
   11   -0.19657823E+03   -0.25579538E-12    0.98552958E-07
   12   -0.19657823E+03   -0.56843419E-13    0.23349030E-07
   13   -0.19657823E+03    0.85265128E-13    0.21453492E-08

Total Energy:                     -192.4511941406 H        -5236.8634 eV
Extrapolated to 0K:               -192.4511941406 H        -5236.8634 eV
Total Mermin free energy:         -192.4511941406 H        -5236.8634 eV
Force related energy:             -192.4511941406 H        -5236.8634 eV

Volume:                              0.995684E+04 au^3   0.147545E+04 A^3
Pressure:                            0.960096E-03 au     0.282470E+11 Pa
>> Charges saved for restart in charges.bin

total energy  -1.9245119E+02 H       energy change -5.6630022E-01 H
gradient norm  6.0434954E-01 H/a0    max. gradient  1.1485804E-01 H/a0
step length    8.0010351E-01 a0      max. step      1.6589019E-01 a0

--------------------------------------------------------------------------------

***  Geometry step: 4

 iSCC Total electronic   Diff electronic      SCC error    
    1   -0.19657823E+03    0.00000000E+00    0.58233021E-01
    2   -0.19618524E+03    0.39298288E+00    0.34793457E-01
    3   -0.19618759E+03   -0.23514607E-02    0.52321519E-02
    4   -0.19618818E+03   -0.58437446E-03    0.11492010E-02
    5   -0.19618821E+03   -0.34285606E-04    0.28774680E-03
    6   -0.19618821E+03   -0.12549830E-05    0.97089982E-04
    7   -0.19618821E+03   -0.22519828E-07    0.25042479E-04
    8   -0.19618821E+03   -0.19349784E-08    0.50215123E-05
    9   -0.19618821E+03   -0.23700863E-09    0.13408547E-05
   10   -0.19618821E+03   -0.67075234E-11    0.25134632E-06
   11   -0.19618821E+03   -0.22737368E-12    0.63422935E-07
   12   -0.19618821E+03    0.00000000E+00    0.21423233E-07
   13   -0.19618821E+03    0.00000000E+00    0.37385215E-08

Total Energy:                     -192.7855299543 H        -5245.9612 eV
Extrapolated to 0K:               -192.7855299543 H        -5245.9612 eV
Total Mermin free energy:         -192.7855299543 H        -5245.9612 eV
Force related energy:             -192.7855299543 H        -5245.9612 eV

Volume:                              0.100744E+05 au^3   0.149288E+04 A^3
Pressure:                            0.670335E-03 au     0.197219E+11 Pa
>> Charges saved for restart in charges.bin

total energy  -1.9278553E+02 H       energy change -3.3433581E-01 H
gradient norm  4.5865562E-01 H/a0    max. gradient  2.3853259E-01 H/a0
step length    7.5611200E-01 a0      max. step      1.2981949E-01 a0

--------------------------------------------------------------------------------

***  Geometry step: 5

 iSCC Total electronic   Diff electronic      SCC error    
    1   -0.19618821E+03    0.00000000E+00    0.66131027E-01
    2   -0.19573219E+03    0.45602308E+00    0.40315658E-01
    3   -0.19573416E+03   -0.19705784E-02    0.82227946E-02
    4   -0.19573468E+03   -0.51412351E-03    0.13006843E-02
    5   -0.19573471E+03   -0.31095773E-04    0.29840605E-03
    6   -0.19573471E+03   -0.80712502E-06    0.76559392E-04
    7   -0.19573471E+03   -0.11899061E-07    0.22344712E-04
    8   -0.19573471E+03   -0.15207888E-08    0.62126173E-05
    9   -0.19573471E+03   -0.10973622E-09    0.18185180E-05
   10   -0.19573471E+03   -0.47180038E-11    0.20658040E-06
   11   -0.19573471E+03   -0.36948222E-12    0.34877036E-07
   12   -0.19573471E+03    0.56843419E-13    0.10309025E-07
   13   -0.19573471E+03   -0.28421709E-13    0.19048021E-08

Total Energy:                     -192.9839747140 H        -5251.3611 eV
Extrapolated to 0K:               -192.9839747140 H        -5251.3611 eV
Total Mermin free energy:         -192.9839747140 H        -5251.3611 eV
Force related energy:             -192.9839747140 H        -5251.3611 eV

Volume:                              0.102773E+05 au^3   0.152293E+04 A^3
Pressure:                            0.400948E-03 au     0.117963E+11 Pa
>> Charges saved for restart in charges.bin

total energy  -1.9298397E+02 H       energy change -1.9844476E-01 H
gradient norm  3.1295780E-01 H/a0    max. gradient  1.4020351E-01 H/a0
step length    7.1953746E-01 a0      max. step      2.3834328E-01 a0

--------------------------------------------------------------------------------

***  Geometry step: 6

 iSCC Total electronic   Diff electronic      SCC error    
    1   -0.19573471E+03    0.00000000E+00    0.52881815E-01
    2   -0.19540344E+03    0.33126657E+00    0.28510244E-01
    3   -0.19540492E+03   -0.14768145E-02    0.38260049E-02
    4   -0.19540527E+03   -0.34859239E-03    0.61545068E-03
    5   -0.19540528E+03   -0.15373629E-04    0.22683911E-03
    6   -0.19540528E+03   -0.48897527E-06    0.10239137E-03
    7   -0.19540528E+03   -0.63857328E-08    0.20901855E-04
    8   -0.19540528E+03   -0.73532647E-09    0.50075695E-05
    9   -0.19540528E+03   -0.88135721E-10    0.15605613E-05
   10   -0.19540528E+03   -0.21600499E-11    0.14676567E-06
   11   -0.19540528E+03   -0.25579538E-12    0.21438805E-07
   12   -0.19540528E+03    0.11368684E-12    0.77320341E-08

Total Energy:                     -193.0748895111 H        -5253.8351 eV
Extrapolated to 0K:               -193.0748895111 H        -5253.8351 eV
Total Mermin free energy:         -193.0748895111 H        -5253.8351 eV
Force related energy:             -193.0748895111 H        -5253.8351 eV

Volume:                              0.104171E+05 au^3   0.154365E+04 A^3
Pressure:                            0.230472E-03 au     0.678072E+10 Pa
>> Charges saved for restart in charges.bin

total energy  -1.9307489E+02 H       energy change -9.0914797E-02 H
gradient norm  1.8618236E-01 H/a0    max. gradient  9.1819639E-02 H/a0
step length    5.8449844E-01 a0      max. step      1.0777151E-01 a0

--------------------------------------------------------------------------------

***  Geometry step: 7

 iSCC Total electronic   Diff electronic      SCC error    
    1   -0.19540528E+03    0.00000000E+00    0.38174433E-01
    2   -0.19520851E+03    0.19676822E+00    0.19693951E-01
    3   -0.19520945E+03   -0.94009183E-03    0.33731864E-02
    4   -0.19520963E+03   -0.17836167E-03    0.44401438E-03
    5   -0.19520964E+03   -0.60315134E-05    0.16704471E-03
    6   -0.19520964E+03   -0.30012839E-06    0.62868005E-04
    7   -0.19520964E+03   -0.70548367E-08    0.16513806E-04
    8   -0.19520964E+03   -0.35507242E-09    0.39677871E-05
    9   -0.19520964E+03   -0.44138915E-10    0.13182653E-05
   10   -0.19520964E+03   -0.29274361E-11    0.17193724E-06
   11   -0.19520964E+03   -0.19895197E-12    0.17315744E-07
   12   -0.19520964E+03    0.56843419E-13    0.47395927E-08

Total Energy:                     -193.1116120873 H        -5254.8343 eV
Extrapolated to 0K:               -193.1116120873 H        -5254.8343 eV
Total Mermin free energy:         -193.1116120873 H        -5254.8343 eV
Force related energy:             -193.1116120873 H        -5254.8343 eV

Volume:                              0.104988E+05 au^3   0.155576E+04 A^3
Pressure:                            0.139799E-03 au     0.411302E+10 Pa
>> Charges saved for restart in charges.bin

total energy  -1.9311161E+02 H       energy change -3.6722576E-02 H
gradient norm  1.3537792E-01 H/a0    max. gradient  5.1475548E-02 H/a0
step length    4.4665339E-01 a0      max. step      7.7304043E-02 a0

--------------------------------------------------------------------------------

***  Geometry step: 8

 iSCC Total electronic   Diff electronic      SCC error    
    1   -0.19520964E+03    0.00000000E+00    0.17442335E-01
    2   -0.19510229E+03    0.10734704E+00    0.87950516E-02
    3   -0.19510255E+03   -0.26301893E-03    0.18733918E-02
    4   -0.19510261E+03   -0.54245755E-04    0.37017042E-03
    5   -0.19510261E+03   -0.14963604E-05    0.10670004E-03
    6   -0.19510261E+03   -0.80566736E-07    0.28608588E-04
    7   -0.19510261E+03   -0.57436580E-08    0.93893036E-05
    8   -0.19510261E+03   -0.18971491E-09    0.32663367E-05
    9   -0.19510261E+03   -0.79296569E-11    0.74988385E-06
   10   -0.19510261E+03   -0.90949470E-12    0.10190114E-06
   11   -0.19510261E+03   -0.85265128E-13    0.18700174E-07
   12   -0.19510261E+03    0.28421709E-13    0.26584805E-08

Total Energy:                     -193.1316631941 H        -5255.3799 eV
Extrapolated to 0K:               -193.1316631941 H        -5255.3799 eV
Total Mermin free energy:         -193.1316631941 H        -5255.3799 eV
Force related energy:             -193.1316631941 H        -5255.3799 eV

Volume:                              0.105593E+05 au^3   0.156472E+04 A^3
Pressure:                            0.835119E-04 au     0.245700E+10 Pa
>> Charges saved for restart in charges.bin

total energy  -1.9313166E+02 H       energy change -2.0051107E-02 H
gradient norm  1.1057068E-01 H/a0    max. gradient  2.3328537E-02 H/a0
step length    3.4228536E-01 a0      max. step      7.3557981E-02 a0

--------------------------------------------------------------------------------

***  Geometry step: 9

 iSCC Total electronic   Diff electronic      SCC error    
    1   -0.19510261E+03    0.00000000E+00    0.22286850E-01
    2   -0.19508402E+03    0.18591345E-01    0.12952067E-01
    3   -0.19508438E+03   -0.36365965E-03    0.38638321E-02
    4   -0.19508444E+03   -0.55814584E-04    0.45605415E-03
    5   -0.19508444E+03   -0.20247508E-05    0.12496453E-03
    6   -0.19508444E+03   -0.23440751E-06    0.44528665E-04
    7   -0.19508444E+03   -0.40875818E-08    0.11152580E-04
    8   -0.19508444E+03   -0.11343104E-09    0.20953393E-05
    9   -0.19508444E+03   -0.16484591E-10    0.28334497E-06
   10   -0.19508444E+03   -0.12505552E-11    0.73476036E-07
   11   -0.19508444E+03    0.00000000E+00    0.12294120E-07
   12   -0.19508444E+03    0.28421709E-13    0.33625618E-08

Total Energy:                     -193.1510485374 H        -5255.9074 eV
Extrapolated to 0K:               -193.1510485374 H        -5255.9074 eV
Total Mermin free energy:         -193.1510485374 H        -5255.9074 eV
Force related energy:             -193.1510485374 H        -5255.9074 eV

Volume:                              0.105893E+05 au^3   0.156917E+04 A^3
Pressure:                            0.618769E-04 au     0.182048E+10 Pa
>> Charges saved for restart in charges.bin

total energy  -1.9315105E+02 H       energy change -1.9385343E-02 H
gradient norm  9.7210778E-02 H/a0    max. gradient  2.1118358E-02 H/a0
step length    3.4360576E-01 a0      max. step      5.9724776E-02 a0

--------------------------------------------------------------------------------

***  Geometry step: 10

 iSCC Total electronic   Diff electronic      SCC error    
    1   -0.19508444E+03    0.00000000E+00    0.32826173E-01
    2   -0.19512684E+03   -0.42402792E-01    0.19124587E-01
    3   -0.19512747E+03   -0.62694366E-03    0.31944852E-02
    4   -0.19512760E+03   -0.13179226E-03    0.65834529E-03
    5   -0.19512761E+03   -0.68079927E-05    0.28077096E-03
    6   -0.19512761E+03   -0.24705727E-06    0.76386598E-04
    7   -0.19512761E+03   -0.60048535E-08    0.14164893E-04
    8   -0.19512761E+03   -0.31695890E-09    0.33755229E-05
    9   -0.19512761E+03   -0.35100811E-10    0.62090125E-06
   10   -0.19512761E+03   -0.21316282E-11    0.70117791E-07
   11   -0.19512761E+03   -0.11368684E-12    0.11820878E-07
   12   -0.19512761E+03   -0.28421709E-13    0.34039482E-08

Total Energy:                     -193.1733505839 H        -5256.5143 eV
Extrapolated to 0K:               -193.1733505839 H        -5256.5143 eV
Total Mermin free energy:         -193.1733505839 H        -5256.5143 eV
Force related energy:             -193.1733505839 H        -5256.5143 eV

Volume:                              0.106106E+05 au^3   0.157233E+04 A^3
Pressure:                            0.672238E-04 au     0.197779E+10 Pa
>> Charges saved for restart in charges.bin

total energy  -1.9317335E+02 H       energy change -2.2302047E-02 H
gradient norm  1.0113724E-01 H/a0    max. gradient  3.8057640E-02 H/a0
step length    4.6452970E-01 a0      max. step      7.1495392E-02 a0

--------------------------------------------------------------------------------

***  Geometry step: 11

 iSCC Total electronic   Diff electronic      SCC error    
    1   -0.19512761E+03    0.00000000E+00    0.25374013E-01
    2   -0.19517239E+03   -0.44784787E-01    0.15394844E-01
    3   -0.19517295E+03   -0.55934489E-03    0.27951172E-02
    4   -0.19517308E+03   -0.12345676E-03    0.71936760E-03
    5   -0.19517308E+03   -0.59625426E-05    0.28718820E-03
    6   -0.19517308E+03   -0.30852769E-06    0.86909176E-04
    7   -0.19517308E+03   -0.79297422E-08    0.17051776E-04
    8   -0.19517308E+03   -0.39085535E-09    0.33412812E-05
    9   -0.19517308E+03   -0.51926463E-10    0.43646731E-06
   10   -0.19517308E+03   -0.36664005E-11    0.97223340E-07
   11   -0.19517308E+03   -0.28421709E-13    0.14481614E-07
   12   -0.19517308E+03    0.28421709E-13    0.29775782E-08

Total Energy:                     -193.1878182447 H        -5256.9080 eV
Extrapolated to 0K:               -193.1878182447 H        -5256.9080 eV
Total Mermin free energy:         -193.1878182447 H        -5256.9080 eV
Force related energy:             -193.1878182447 H        -5256.9080 eV

Volume:                              0.106305E+05 au^3   0.157527E+04 A^3
Pressure:                            0.732431E-04 au     0.215488E+10 Pa
>> Charges saved for restart in charges.bin

total energy  -1.9318782E+02 H       energy change -1.4467661E-02 H
gradient norm  9.1230805E-02 H/a0    max. gradient  2.6378540E-02 H/a0
step length    3.9465772E-01 a0      max. step      5.6533430E-02 a0

--------------------------------------------------------------------------------

***  Geometry step: 12

 iSCC Total electronic   Diff electronic      SCC error    
    1   -0.19517308E+03    0.00000000E+00    0.22799350E-01
    2   -0.19519801E+03   -0.24921964E-01    0.13511581E-01
    3   -0.19519819E+03   -0.18960381E-03    0.13393471E-02
    4   -0.19519825E+03   -0.53082521E-04    0.47241293E-03
    5   -0.19519825E+03   -0.25272492E-05    0.20039891E-03
    6   -0.19519825E+03   -0.44506805E-07    0.49976383E-04
    7   -0.19519825E+03   -0.16396200E-08    0.68881194E-05
    8   -0.19519825E+03   -0.14307489E-09    0.10464827E-05
    9   -0.19519825E+03   -0.10260237E-10    0.26029563E-06
   10   -0.19519825E+03   -0.48316906E-12    0.36520256E-07
   11   -0.19519825E+03   -0.85265128E-13    0.40599892E-08

Total Energy:                     -193.1988495405 H        -5257.2082 eV
Extrapolated to 0K:               -193.1988495405 H        -5257.2082 eV
Total Mermin free energy:         -193.1988495405 H        -5257.2082 eV
Force related energy:             -193.1988495405 H        -5257.2082 eV

Volume:                              0.106579E+05 au^3   0.157934E+04 A^3
Pressure:                            0.730855E-04 au     0.215025E+10 Pa
>> Charges saved for restart in charges.bin

total energy  -1.9319885E+02 H       energy change -1.1031296E-02 H
gradient norm  7.3675311E-02 H/a0    max. gradient  1.6286337E-02 H/a0
step length    3.2730615E-01 a0      max. step      5.0564211E-02 a0

--------------------------------------------------------------------------------

***  Geometry step: 13

 iSCC Total electronic   Diff electronic      SCC error    
    1   -0.19519825E+03    0.00000000E+00    0.23913056E-01
    2   -0.19521211E+03   -0.13862823E-01    0.13794373E-01
    3   -0.19521227E+03   -0.15276371E-03    0.17345965E-02
    4   -0.19521231E+03   -0.48005155E-04    0.27013953E-03
    5   -0.19521232E+03   -0.19564214E-05    0.10876274E-03
    6   -0.19521232E+03   -0.32700939E-07    0.42114056E-04
    7   -0.19521232E+03   -0.46293280E-09    0.72332630E-05
    8   -0.19521232E+03   -0.62669869E-10    0.68203204E-06
    9   -0.19521232E+03   -0.77875484E-11    0.22166752E-06
   10   -0.19521232E+03   -0.17053026E-12    0.40614034E-07
   11   -0.19521232E+03   -0.14210855E-12    0.47736184E-08

Total Energy:                     -193.2087242218 H        -5257.4769 eV
Extrapolated to 0K:               -193.2087242218 H        -5257.4769 eV
Total Mermin free energy:         -193.2087242218 H        -5257.4769 eV
Force related energy:             -193.2087242218 H        -5257.4769 eV

Volume:                              0.106978E+05 au^3   0.158525E+04 A^3
Pressure:                            0.688158E-04 au     0.202463E+10 Pa
>> Charges saved for restart in charges.bin

total energy  -1.9320872E+02 H       energy change -9.8746814E-03 H
gradient norm  6.1011380E-02 H/a0    max. gradient  1.2947048E-02 H/a0
step length    3.2638391E-01 a0      max. step      5.6387259E-02 a0

--------------------------------------------------------------------------------

***  Geometry step: 14

 iSCC Total electronic   Diff electronic      SCC error    
    1   -0.19521232E+03    0.00000000E+00    0.15783294E-01
    2   -0.19520152E+03    0.10798052E-01    0.89843521E-02
    3   -0.19520161E+03   -0.91453357E-04    0.12218730E-02
    4   -0.19520163E+03   -0.24568621E-04    0.24799059E-03
    5   -0.19520164E+03   -0.11352662E-05    0.24677933E-04
    6   -0.19520164E+03   -0.34664708E-07    0.99724402E-05
    7   -0.19520164E+03   -0.71409545E-09    0.37080331E-05
    8   -0.19520164E+03   -0.15660362E-10    0.93150862E-06
    9   -0.19520164E+03   -0.17053026E-11    0.25786143E-06
   10   -0.19520164E+03   -0.17053026E-12    0.46429082E-07
   11   -0.19520164E+03    0.56843419E-13    0.34640442E-08

Total Energy:                     -193.2148071284 H        -5257.6424 eV
Extrapolated to 0K:               -193.2148071284 H        -5257.6424 eV
Total Mermin free energy:         -193.2148071284 H        -5257.6424 eV
Force related energy:             -193.2148071284 H        -5257.6424 eV

Volume:                              0.107437E+05 au^3   0.159206E+04 A^3
Pressure:                            0.596642E-04 au     0.175538E+10 Pa
>> Charges saved for restart in charges.bin

total energy  -1.9321481E+02 H       energy change -6.0829066E-03 H
gradient norm  5.4245319E-02 H/a0    max. gradient  1.2084658E-02 H/a0
step length    2.5189672E-01 a0      max. step      4.5351932E-02 a0

--------------------------------------------------------------------------------

***  Geometry step: 15

 iSCC Total electronic   Diff electronic      SCC error    
    1   -0.19520164E+03    0.00000000E+00    0.89212618E-02
    2   -0.19517450E+03    0.27133235E-01    0.50958129E-02
    3   -0.19517455E+03   -0.46450392E-04    0.75110886E-03
    4   -0.19517456E+03   -0.10706196E-04    0.17124086E-03
    5   -0.19517456E+03   -0.53228604E-06    0.30260021E-04
    6   -0.19517456E+03   -0.22186782E-07    0.11733511E-04
    7   -0.19517456E+03   -0.52435212E-09    0.37720284E-05
    8   -0.19517456E+03   -0.10970780E-10    0.94545911E-06
    9   -0.19517456E+03   -0.13642421E-11    0.23247246E-06
   10   -0.19517456E+03   -0.56843419E-13    0.23269062E-07
   11   -0.19517456E+03   -0.28421709E-13    0.27953115E-08

Total Energy:                     -193.2194275570 H        -5257.7681 eV
Extrapolated to 0K:               -193.2194275570 H        -5257.7681 eV
Total Mermin free energy:         -193.2194275570 H        -5257.7681 eV
Force related energy:             -193.2194275570 H        -5257.7681 eV

Volume:                              0.107940E+05 au^3   0.159951E+04 A^3
Pressure:                            0.446304E-04 au     0.131307E+10 Pa
>> Charges saved for restart in charges.bin

total energy  -1.9321943E+02 H       energy change -4.6204286E-03 H
gradient norm  5.0190880E-02 H/a0    max. gradient  8.5454443E-03 H/a0
step length    2.3524473E-01 a0      max. step      4.5172572E-02 a0

--------------------------------------------------------------------------------

***  Geometry step: 16

 iSCC Total electronic   Diff electronic      SCC error    
    1   -0.19517456E+03    0.00000000E+00    0.84278712E-02
    2   -0.19514365E+03    0.30908809E-01    0.47155479E-02
    3   -0.19514369E+03   -0.34200966E-04    0.92810848E-03
    4   -0.19514369E+03   -0.63039169E-05    0.18610981E-03
    5   -0.19514369E+03   -0.29438385E-06    0.69845740E-04
    6   -0.19514369E+03   -0.19620501E-07    0.20344715E-04
    7   -0.19514369E+03   -0.51301186E-09    0.36378946E-05
    8   -0.19514369E+03   -0.22737368E-10    0.45637106E-06
    9   -0.19514369E+03   -0.19042545E-11    0.13767503E-06
   10   -0.19514369E+03   -0.17053026E-12    0.20581471E-07
   11   -0.19514369E+03   -0.56843419E-13    0.34366749E-08

Total Energy:                     -193.2239525108 H        -5257.8913 eV
Extrapolated to 0K:               -193.2239525108 H        -5257.8913 eV
Total Mermin free energy:         -193.2239525108 H        -5257.8913 eV
Force related energy:             -193.2239525108 H        -5257.8913 eV

Volume:                              0.108466E+05 au^3   0.160730E+04 A^3
Pressure:                            0.270067E-04 au     0.794565E+09 Pa
>> Charges saved for restart in charges.bin

total energy  -1.9322395E+02 H       energy change -4.5249538E-03 H
gradient norm  5.2385090E-02 H/a0    max. gradient  9.3377579E-03 H/a0
step length    2.3844620E-01 a0      max. step      4.8892523E-02 a0

--------------------------------------------------------------------------------

***  Geometry step: 17

 iSCC Total electronic   Diff electronic      SCC error    
    1   -0.19514369E+03    0.00000000E+00    0.10926276E-01
    2   -0.19512943E+03    0.14266090E-01    0.61025937E-02
    3   -0.19512947E+03   -0.46742753E-04    0.12377086E-02
    4   -0.19512948E+03   -0.77798634E-05    0.23503882E-03
    5   -0.19512948E+03   -0.43301213E-06    0.93236500E-04
    6   -0.19512948E+03   -0.24249744E-07    0.22557595E-04
    7   -0.19512948E+03   -0.70559736E-09    0.29345697E-05
    8   -0.19512948E+03   -0.44707349E-10    0.77480837E-06
    9   -0.19512948E+03   -0.23305802E-11    0.18751560E-06
   10   -0.19512948E+03   -0.25579538E-12    0.35383957E-07
   11   -0.19512948E+03    0.28421709E-13    0.66796315E-08

Total Energy:                     -193.2292381528 H        -5258.0351 eV
Extrapolated to 0K:               -193.2292381528 H        -5258.0351 eV
Total Mermin free energy:         -193.2292381528 H        -5258.0351 eV
Force related energy:             -193.2292381528 H        -5258.0351 eV

Volume:                              0.108942E+05 au^3   0.161435E+04 A^3
Pressure:                            0.168231E-04 au     0.494952E+09 Pa
>> Charges saved for restart in charges.bin

total energy  -1.9322924E+02 H       energy change -5.2856420E-03 H
gradient norm  5.7406750E-02 H/a0    max. gradient  1.2103378E-02 H/a0
step length    2.7191388E-01 a0      max. step      5.0075202E-02 a0

--------------------------------------------------------------------------------

***  Geometry step: 18

 iSCC Total electronic   Diff electronic      SCC error    
    1   -0.19512948E+03    0.00000000E+00    0.16100572E-01
    2   -0.19513217E+03   -0.26892222E-02    0.94776999E-02
    3   -0.19513228E+03   -0.11104148E-03    0.24471282E-02
    4   -0.19513230E+03   -0.18022912E-04    0.25562311E-03
    5   -0.19513230E+03   -0.95411608E-06    0.84524426E-04
    6   -0.19513230E+03   -0.60989976E-07    0.27318685E-04
    7   -0.19513230E+03   -0.15122907E-08    0.57277633E-05
    8   -0.19513230E+03   -0.66904704E-10    0.16699397E-05
    9   -0.19513230E+03   -0.46043169E-11    0.35094672E-06
   10   -0.19513230E+03   -0.42632564E-12    0.42118153E-07
   11   -0.19513230E+03   -0.56843419E-13    0.78635831E-08

Total Energy:                     -193.2354268332 H        -5258.2035 eV
Extrapolated to 0K:               -193.2354268332 H        -5258.2035 eV
Total Mermin free energy:         -193.2354268332 H        -5258.2035 eV
Force related energy:             -193.2354268332 H        -5258.2035 eV

Volume:                              0.109421E+05 au^3   0.162145E+04 A^3
Pressure:                            0.131724E-04 au     0.387544E+09 Pa
>> Charges saved for restart in charges.bin

total energy  -1.9323543E+02 H       energy change -6.1886804E-03 H
gradient norm  5.6630213E-02 H/a0    max. gradient  1.3141622E-02 H/a0
step length    3.4712002E-01 a0      max. step      6.2528013E-02 a0

--------------------------------------------------------------------------------

***  Geometry step: 19

 iSCC Total electronic   Diff electronic      SCC error    
    1   -0.19513230E+03    0.00000000E+00    0.13750230E-01
    2   -0.19515067E+03   -0.18368564E-01    0.80679648E-02
    3   -0.19515080E+03   -0.12894036E-03    0.24738143E-02
    4   -0.19515081E+03   -0.17569606E-04    0.31059646E-03
    5   -0.19515082E+03   -0.85981267E-06    0.70162027E-04
    6   -0.19515082E+03   -0.58073624E-07    0.26852754E-04
    7   -0.19515082E+03   -0.12816486E-08    0.66833221E-05
    8   -0.19515082E+03   -0.42859938E-10    0.19892110E-05
    9   -0.19515082E+03   -0.31548097E-11    0.40108613E-06
   10   -0.19515082E+03   -0.48316906E-12    0.36456752E-07
   11   -0.19515082E+03    0.11368684E-12    0.59872760E-08

Total Energy:                     -193.2404565482 H        -5258.3404 eV
Extrapolated to 0K:               -193.2404565482 H        -5258.3404 eV
Total Mermin free energy:         -193.2404565482 H        -5258.3404 eV
Force related energy:             -193.2404565482 H        -5258.3404 eV

Volume:                              0.109771E+05 au^3   0.162665E+04 A^3
Pressure:                            0.166381E-04 au     0.489510E+09 Pa
>> Charges saved for restart in charges.bin

total energy  -1.9324046E+02 H       energy change -5.0297150E-03 H
gradient norm  4.9345340E-02 H/a0    max. gradient  9.9202245E-03 H/a0
step length    3.3178637E-01 a0      max. step      5.6372922E-02 a0

--------------------------------------------------------------------------------

***  Geometry step: 20

 iSCC Total electronic   Diff electronic      SCC error    
    1   -0.19515082E+03    0.00000000E+00    0.11266096E-01
    2   -0.19517328E+03   -0.22467417E-01    0.53962428E-02
    3   -0.19517341E+03   -0.12464752E-03    0.17469150E-02
    4   -0.19517342E+03   -0.14352369E-04    0.18939322E-03
    5   -0.19517342E+03   -0.69134890E-06    0.58879576E-04
    6   -0.19517342E+03   -0.43511278E-07    0.21608451E-04
    7   -0.19517342E+03   -0.91648644E-09    0.53026995E-05
    8   -0.19517342E+03   -0.34049208E-10    0.13856934E-05
    9   -0.19517342E+03   -0.28137492E-11    0.28418278E-06
   10   -0.19517342E+03   -0.34106051E-12    0.31274767E-07
   11   -0.19517342E+03    0.28421709E-13    0.54391740E-08

Total Energy:                     -193.2447634329 H        -5258.4576 eV
Extrapolated to 0K:               -193.2447634329 H        -5258.4576 eV
Total Mermin free energy:         -193.2447634329 H        -5258.4576 eV
Force related energy:             -193.2447634329 H        -5258.4576 eV

Volume:                              0.110099E+05 au^3   0.163150E+04 A^3
Pressure:                            0.223832E-04 au     0.658538E+09 Pa
>> Charges saved for restart in charges.bin

total energy  -1.9324476E+02 H       energy change -4.3068847E-03 H
gradient norm  4.1226877E-02 H/a0    max. gradient  8.2020989E-03 H/a0
step length    3.2775051E-01 a0      max. step      6.0429463E-02 a0

--------------------------------------------------------------------------------

***  Geometry step: 21

 iSCC Total electronic   Diff electronic      SCC error    
    1   -0.19517342E+03    0.00000000E+00    0.10613629E-01
    2   -0.19518778E+03   -0.14353313E-01    0.59644419E-02
    3   -0.19518787E+03   -0.94436560E-04    0.16867118E-02
    4   -0.19518788E+03   -0.11342077E-04    0.23030545E-03
    5   -0.19518788E+03   -0.58631167E-06    0.76602785E-04
    6   -0.19518788E+03   -0.33300836E-07    0.26217613E-04
    7   -0.19518788E+03   -0.70113515E-09    0.49205482E-05
    8   -0.19518788E+03   -0.36948222E-10    0.99309221E-06
    9   -0.19518788E+03   -0.30127012E-11    0.20841528E-06
   10   -0.19518788E+03   -0.28421709E-12    0.25949840E-07
   11   -0.19518788E+03    0.00000000E+00    0.52800746E-08

Total Energy:                     -193.2481391778 H        -5258.5494 eV
Extrapolated to 0K:               -193.2481391778 H        -5258.5494 eV
Total Mermin free energy:         -193.2481391778 H        -5258.5494 eV
Force related energy:             -193.2481391778 H        -5258.5494 eV

Volume:                              0.110442E+05 au^3   0.163658E+04 A^3
Pressure:                            0.244251E-04 au     0.718611E+09 Pa
>> Charges saved for restart in charges.bin

total energy  -1.9324814E+02 H       energy change -3.3757449E-03 H
gradient norm  3.6734470E-02 H/a0    max. gradient  9.8048537E-03 H/a0
step length    2.9832659E-01 a0      max. step      6.0069767E-02 a0

--------------------------------------------------------------------------------

***  Geometry step: 22

 iSCC Total electronic   Diff electronic      SCC error    
    1   -0.19518788E+03    0.00000000E+00    0.12515221E-01
    2   -0.19519102E+03   -0.31411610E-02    0.69832200E-02
    3   -0.19519108E+03   -0.53913439E-04    0.14226496E-02
    4   -0.19519109E+03   -0.88561456E-05    0.18807704E-03
    5   -0.19519109E+03   -0.49848256E-06    0.70674597E-04
    6   -0.19519109E+03   -0.23097954E-07    0.22453065E-04
    7   -0.19519109E+03   -0.59466743E-09    0.47224526E-05
    8   -0.19519109E+03   -0.28393288E-10    0.10774154E-05
    9   -0.19519109E+03   -0.23590019E-11    0.16440102E-06
   10   -0.19519109E+03   -0.28421709E-12    0.18740549E-07
   11   -0.19519109E+03   -0.28421709E-13    0.43551176E-08

Total Energy:                     -193.2504586754 H        -5258.6125 eV
Extrapolated to 0K:               -193.2504586754 H        -5258.6125 eV
Total Mermin free energy:         -193.2504586754 H        -5258.6125 eV
Force related energy:             -193.2504586754 H        -5258.6125 eV

Volume:                              0.110781E+05 au^3   0.164160E+04 A^3
Pressure:                            0.229933E-04 au     0.676485E+09 Pa
>> Charges saved for restart in charges.bin

total energy  -1.9325046E+02 H       energy change -2.3194976E-03 H
gradient norm  3.5380735E-02 H/a0    max. gradient  9.2942094E-03 H/a0
step length    2.3996636E-01 a0      max. step      5.0321677E-02 a0

--------------------------------------------------------------------------------

***  Geometry step: 23

 iSCC Total electronic   Diff electronic      SCC error    
    1   -0.19519109E+03    0.00000000E+00    0.75448155E-02
    2   -0.19518304E+03    0.80479417E-02    0.41613004E-02
    3   -0.19518306E+03   -0.23541558E-04    0.65845947E-03
    4   -0.19518307E+03   -0.49994630E-05    0.11302872E-03
    5   -0.19518307E+03   -0.22252686E-06    0.27562627E-04
    6   -0.19518307E+03   -0.10269588E-07    0.93920957E-05
    7   -0.19518307E+03   -0.23675284E-09    0.26333961E-05
    8   -0.19518307E+03   -0.59685590E-11    0.60757068E-06
    9   -0.19518307E+03   -0.56843419E-12    0.88197778E-07
   10   -0.19518307E+03   -0.17053026E-12    0.12548747E-07
   11   -0.19518307E+03    0.28421709E-13    0.24189721E-08

Total Energy:                     -193.2518045168 H        -5258.6492 eV
Extrapolated to 0K:               -193.2518045168 H        -5258.6492 eV
Total Mermin free energy:         -193.2518045168 H        -5258.6492 eV
Force related energy:             -193.2518045168 H        -5258.6492 eV

Volume:                              0.111050E+05 au^3   0.164559E+04 A^3
Pressure:                            0.178553E-04 au     0.525322E+09 Pa
>> Charges saved for restart in charges.bin

total energy  -1.9325180E+02 H       energy change -1.3458414E-03 H
gradient norm  2.6725934E-02 H/a0    max. gradient  1.0047872E-02 H/a0
step length    1.4103292E-01 a0      max. step      2.7273688E-02 a0

--------------------------------------------------------------------------------

***  Geometry step: 24

 iSCC Total electronic   Diff electronic      SCC error    
    1   -0.19518307E+03    0.00000000E+00    0.48913565E-02
    2   -0.19517277E+03    0.10298253E-01    0.27828341E-02
    3   -0.19517280E+03   -0.25952785E-04    0.73878188E-03
    4   -0.19517280E+03   -0.43349900E-05    0.12261908E-03
    5   -0.19517280E+03   -0.14192122E-06    0.14625852E-04
    6   -0.19517280E+03   -0.75672233E-08    0.67974308E-05
    7   -0.19517280E+03   -0.15953106E-09    0.21417504E-05
    8   -0.19517280E+03   -0.68212103E-11    0.62860615E-06
    9   -0.19517280E+03   -0.31263880E-12    0.11512415E-06
   10   -0.19517280E+03    0.28421709E-13    0.18646338E-07
   11   -0.19517280E+03    0.56843419E-13    0.40046437E-08

Total Energy:                     -193.2527468616 H        -5258.6748 eV
Extrapolated to 0K:               -193.2527468616 H        -5258.6748 eV
Total Mermin free energy:         -193.2527468616 H        -5258.6748 eV
Force related energy:             -193.2527468616 H        -5258.6748 eV

Volume:                              0.111263E+05 au^3   0.164874E+04 A^3
Pressure:                            0.124745E-04 au     0.367013E+09 Pa
>> Charges saved for restart in charges.bin

total energy  -1.9325275E+02 H       energy change -9.4234480E-04 H
gradient norm  2.1589369E-02 H/a0    max. gradient  6.2006408E-03 H/a0
step length    9.1380381E-02 a0      max. step      2.2176866E-02 a0

--------------------------------------------------------------------------------

***  Geometry step: 25

 iSCC Total electronic   Diff electronic      SCC error    
    1   -0.19517280E+03    0.00000000E+00    0.32980041E-02
    2   -0.19516677E+03    0.60282383E-02    0.18274720E-02
    3   -0.19516679E+03   -0.17516082E-04    0.59017609E-03
    4   -0.19516679E+03   -0.22253693E-05    0.71701501E-04
    5   -0.19516679E+03   -0.57321301E-07    0.14308208E-04
    6   -0.19516679E+03   -0.35184087E-08    0.55418185E-05
    7   -0.19516679E+03   -0.61106675E-10    0.16226700E-05
    8   -0.19516679E+03   -0.22737368E-11    0.38937519E-06
    9   -0.19516679E+03   -0.14210855E-12    0.53793986E-07
   10   -0.19516679E+03   -0.28421709E-13    0.99534088E-08

Total Energy:                     -193.2534569309 H        -5258.6941 eV
Extrapolated to 0K:               -193.2534569309 H        -5258.6941 eV
Total Mermin free energy:         -193.2534569309 H        -5258.6941 eV
Force related energy:             -193.2534569309 H        -5258.6941 eV

Volume:                              0.111426E+05 au^3   0.165117E+04 A^3
Pressure:                            0.865636E-05 au     0.254679E+09 Pa
>> Charges saved for restart in charges.bin

total energy  -1.9325346E+02 H       energy change -7.1006931E-04 H
gradient norm  2.4491504E-02 H/a0    max. gradient  8.0465299E-03 H/a0
step length    7.1317865E-02 a0      max. step      2.1400069E-02 a0

--------------------------------------------------------------------------------

***  Geometry step: 26

 iSCC Total electronic   Diff electronic      SCC error    
    1   -0.19516679E+03    0.00000000E+00    0.54958316E-02
    2   -0.19516409E+03    0.27042216E-02    0.30754260E-02
    3   -0.19516412E+03   -0.33045681E-04    0.98664624E-03
    4   -0.19516412E+03   -0.40015520E-05    0.80930919E-04
    5   -0.19516412E+03   -0.12568634E-06    0.26633049E-04
    6   -0.19516412E+03   -0.60098273E-08    0.10358631E-04
    7   -0.19516412E+03   -0.77875484E-10    0.26892741E-05
    8   -0.19516412E+03   -0.46327386E-11    0.48408754E-06
    9   -0.19516412E+03   -0.73896445E-12    0.61703125E-07
   10   -0.19516412E+03    0.28421709E-13    0.96307557E-08

Total Energy:                     -193.2545393285 H        -5258.7236 eV
Extrapolated to 0K:               -193.2545393285 H        -5258.7236 eV
Total Mermin free energy:         -193.2545393285 H        -5258.7236 eV
Force related energy:             -193.2545393285 H        -5258.7236 eV

Volume:                              0.111686E+05 au^3   0.165501E+04 A^3
Pressure:                            0.592784E-05 au     0.174403E+09 Pa
>> Charges saved for restart in charges.bin

total energy  -1.9325454E+02 H       energy change -1.0823976E-03 H
gradient norm  2.5230430E-02 H/a0    max. gradient  4.8547872E-03 H/a0
step length    1.2392381E-01 a0      max. step      3.8043291E-02 a0

--------------------------------------------------------------------------------

***  Geometry step: 27

 iSCC Total electronic   Diff electronic      SCC error    
    1   -0.19516412E+03    0.00000000E+00    0.57551664E-02
    2   -0.19516715E+03   -0.30301571E-02    0.26926477E-02
    3   -0.19516718E+03   -0.28791537E-04    0.75175132E-03
    4   -0.19516719E+03   -0.42586350E-05    0.84574408E-04
    5   -0.19516719E+03   -0.18960736E-06    0.26927212E-04
    6   -0.19516719E+03   -0.59787908E-08    0.11223268E-04
    7   -0.19516719E+03   -0.83844043E-10    0.27891025E-05
    8   -0.19516719E+03   -0.54853899E-11    0.52573538E-06
    9   -0.19516719E+03   -0.79580786E-12    0.87980282E-07
   10   -0.19516719E+03   -0.11368684E-12    0.12595496E-07
   11   -0.19516719E+03    0.85265128E-13    0.23968934E-08

Total Energy:                     -193.2555235753 H        -5258.7504 eV
Extrapolated to 0K:               -193.2555235753 H        -5258.7504 eV
Total Mermin free energy:         -193.2555235753 H        -5258.7504 eV
Force related energy:             -193.2555235753 H        -5258.7504 eV

Volume:                              0.111983E+05 au^3   0.165941E+04 A^3
Pressure:                            0.541545E-05 au     0.159328E+09 Pa
>> Charges saved for restart in charges.bin

total energy  -1.9325552E+02 H       energy change -9.8424683E-04 H
gradient norm  2.2349211E-02 H/a0    max. gradient  5.2885865E-03 H/a0
step length    1.5075372E-01 a0      max. step      4.3012887E-02 a0

--------------------------------------------------------------------------------

***  Geometry step: 28

 iSCC Total electronic   Diff electronic      SCC error    
    1   -0.19516719E+03    0.00000000E+00    0.45463352E-02
    2   -0.19517397E+03   -0.67815345E-02    0.26635628E-02
    3   -0.19517399E+03   -0.16726407E-04    0.52543372E-03
    4   -0.19517399E+03   -0.34741121E-05    0.65207530E-04
    5   -0.19517399E+03   -0.16996299E-06    0.15775804E-04
    6   -0.19517399E+03   -0.43188493E-08    0.67777244E-05
    7   -0.19517399E+03   -0.64517280E-10    0.19949228E-05
    8   -0.19517399E+03   -0.32969183E-11    0.41490876E-06
    9   -0.19517399E+03   -0.51159077E-12    0.75463674E-07
   10   -0.19517399E+03   -0.11368684E-12    0.12350854E-07
   11   -0.19517399E+03    0.14210855E-12    0.21140503E-08

Total Energy:                     -193.2562657380 H        -5258.7706 eV
Extrapolated to 0K:               -193.2562657380 H        -5258.7706 eV
Total Mermin free energy:         -193.2562657380 H        -5258.7706 eV
Force related energy:             -193.2562657380 H        -5258.7706 eV

Volume:                              0.112237E+05 au^3   0.166318E+04 A^3
Pressure:                            0.654140E-05 au     0.192455E+09 Pa
>> Charges saved for restart in charges.bin

total energy  -1.9325627E+02 H       energy change -7.4216265E-04 H
gradient norm  1.7987863E-02 H/a0    max. gradient  4.1978370E-03 H/a0
step length    1.4534287E-01 a0      max. step      3.5316399E-02 a0

--------------------------------------------------------------------------------

***  Geometry step: 29

 iSCC Total electronic   Diff electronic      SCC error    
    1   -0.19517399E+03    0.00000000E+00    0.43926281E-02
    2   -0.19518062E+03   -0.66326638E-02    0.25453389E-02
    3   -0.19518063E+03   -0.88284632E-05    0.45347968E-03
    4   -0.19518063E+03   -0.18631986E-05    0.43624985E-04
    5   -0.19518063E+03   -0.92563170E-07    0.10707679E-04
    6   -0.19518063E+03   -0.18392825E-08    0.31826765E-05
    7   -0.19518063E+03   -0.24328983E-10    0.72647517E-06
    8   -0.19518063E+03   -0.10231815E-11    0.21278067E-06
    9   -0.19518063E+03   -0.14210855E-12    0.62766139E-07
   10   -0.19518063E+03    0.28421709E-13    0.91108583E-08

Total Energy:                     -193.2567575623 H        -5258.7839 eV
Extrapolated to 0K:               -193.2567575623 H        -5258.7839 eV
Total Mermin free energy:         -193.2567575623 H        -5258.7839 eV
Force related energy:             -193.2567575623 H        -5258.7839 eV

Volume:                              0.112399E+05 au^3   0.166559E+04 A^3
Pressure:                            0.830653E-05 au     0.244386E+09 Pa
>> Charges saved for restart in charges.bin

total energy  -1.9325676E+02 H       energy change -4.9182437E-04 H
gradient norm  1.5698383E-02 H/a0    max. gradient  5.5114131E-03 H/a0
step length    1.1028718E-01 a0      max. step      2.2592612E-02 a0

--------------------------------------------------------------------------------

***  Geometry step: 30

 iSCC Total electronic   Diff electronic      SCC error    
    1   -0.19518063E+03    0.00000000E+00    0.35332411E-02
    2   -0.19518411E+03   -0.34786914E-02    0.20323257E-02
    3   -0.19518412E+03   -0.63244716E-05    0.41453949E-03
    4   -0.19518412E+03   -0.12287779E-05    0.36542814E-04
    5   -0.19518412E+03   -0.54818344E-07    0.81764557E-05
    6   -0.19518412E+03   -0.13749002E-08    0.28780313E-05
    7   -0.19518412E+03   -0.16541435E-10    0.92699888E-06
    8   -0.19518412E+03   -0.62527761E-12    0.21871592E-06
    9   -0.19518412E+03    0.00000000E+00    0.47074458E-07
   10   -0.19518412E+03   -0.11368684E-12    0.56679657E-08

Total Energy:                     -193.2571568589 H        -5258.7948 eV
Extrapolated to 0K:               -193.2571568589 H        -5258.7948 eV
Total Mermin free energy:         -193.2571568589 H        -5258.7948 eV
Force related energy:             -193.2571568589 H        -5258.7948 eV

Volume:                              0.112517E+05 au^3   0.166733E+04 A^3
Pressure:                            0.921868E-05 au     0.271223E+09 Pa
>> Charges saved for restart in charges.bin

total energy  -1.9325716E+02 H       energy change -3.9929654E-04 H
gradient norm  1.5320437E-02 H/a0    max. gradient  6.1164035E-03 H/a0
step length    8.7811017E-02 a0      max. step      1.7211427E-02 a0

--------------------------------------------------------------------------------

***  Geometry step: 31

 iSCC Total electronic   Diff electronic      SCC error    
    1   -0.19518412E+03    0.00000000E+00    0.49986106E-02
    2   -0.19518384E+03    0.27558318E-03    0.28563828E-02
    3   -0.19518385E+03   -0.57868915E-05    0.50917184E-03
    4   -0.19518385E+03   -0.11847271E-05    0.48482330E-04
    5   -0.19518385E+03   -0.53048325E-07    0.16327901E-04
    6   -0.19518385E+03   -0.14937882E-08    0.45491539E-05
    7   -0.19518385E+03   -0.31690206E-10    0.11980182E-05
    8   -0.19518385E+03   -0.12789769E-11    0.26475325E-06
    9   -0.19518385E+03   -0.19895197E-12    0.45839816E-07
   10   -0.19518385E+03   -0.56843419E-13    0.72077451E-08

Total Energy:                     -193.2575982821 H        -5258.8068 eV
Extrapolated to 0K:               -193.2575982821 H        -5258.8068 eV
Total Mermin free energy:         -193.2575982821 H        -5258.8068 eV
Force related energy:             -193.2575982821 H        -5258.8068 eV

Volume:                              0.112628E+05 au^3   0.166897E+04 A^3
Pressure:                            0.877026E-05 au     0.258030E+09 Pa
>> Charges saved for restart in charges.bin

total energy  -1.9325760E+02 H       energy change -4.4142319E-04 H
gradient norm  1.5793000E-02 H/a0    max. gradient  5.1059756E-03 H/a0
step length    9.2371782E-02 a0      max. step      1.6207805E-02 a0

--------------------------------------------------------------------------------

***  Geometry step: 32

 iSCC Total electronic   Diff electronic      SCC error    
    1   -0.19518385E+03    0.00000000E+00    0.45753635E-02
    2   -0.19517969E+03    0.41599374E-02    0.26374826E-02
    3   -0.19517970E+03   -0.60263877E-05    0.50462532E-03
    4   -0.19517970E+03   -0.11934764E-05    0.69307609E-04
    5   -0.19517970E+03   -0.56553944E-07    0.25332351E-04
    6   -0.19517970E+03   -0.21491360E-08    0.65445549E-05
    7   -0.19517970E+03   -0.74834361E-10    0.12124049E-05
    8   -0.19517970E+03   -0.31548097E-11    0.27011648E-06
    9   -0.19517970E+03   -0.34106051E-12    0.36183779E-07
   10   -0.19517970E+03    0.00000000E+00    0.79501254E-08

Total Energy:                     -193.2580480046 H        -5258.8191 eV
Extrapolated to 0K:               -193.2580480046 H        -5258.8191 eV
Total Mermin free energy:         -193.2580480046 H        -5258.8191 eV
Force related energy:             -193.2580480046 H        -5258.8191 eV

Volume:                              0.112735E+05 au^3   0.167056E+04 A^3
Pressure:                            0.641398E-05 au     0.188706E+09 Pa
>> Charges saved for restart in charges.bin

total energy  -1.9325805E+02 H       energy change -4.4972252E-04 H
gradient norm  1.6931082E-02 H/a0    max. gradient  4.0931264E-03 H/a0
step length    9.9652285E-02 a0      max. step      2.0349930E-02 a0

--------------------------------------------------------------------------------

***  Geometry step: 33

 iSCC Total electronic   Diff electronic      SCC error    
    1   -0.19517970E+03    0.00000000E+00    0.29418639E-02
    2   -0.19517514E+03    0.45625111E-02    0.17426514E-02
    3   -0.19517514E+03   -0.69635550E-05    0.39451294E-03
    4   -0.19517514E+03   -0.12747216E-05    0.77862177E-04
    5   -0.19517514E+03   -0.65811975E-07    0.28482308E-04
    6   -0.19517514E+03   -0.24282940E-08    0.78014344E-05
    7   -0.19517514E+03   -0.83048235E-10    0.12345806E-05
    8   -0.19517514E+03   -0.38653525E-11    0.24438687E-06
    9   -0.19517514E+03   -0.34106051E-12    0.43572153E-07
   10   -0.19517514E+03    0.00000000E+00    0.67267298E-08

Total Energy:                     -193.2585607162 H        -5258.8330 eV
Extrapolated to 0K:               -193.2585607162 H        -5258.8330 eV
Total Mermin free energy:         -193.2585607162 H        -5258.8330 eV
Force related energy:             -193.2585607162 H        -5258.8330 eV

Volume:                              0.112823E+05 au^3   0.167186E+04 A^3
Pressure:                            0.396866E-05 au     0.116762E+09 Pa
>> Charges saved for restart in charges.bin

total energy  -1.9325856E+02 H       energy change -5.1271162E-04 H
gradient norm  1.7914487E-02 H/a0    max. gradient  3.4442141E-03 H/a0
step length    1.1663260E-01 a0      max. step      2.5940215E-02 a0

--------------------------------------------------------------------------------

***  Geometry step: 34

 iSCC Total electronic   Diff electronic      SCC error    
    1   -0.19517514E+03    0.00000000E+00    0.36000015E-02
    2   -0.19517221E+03    0.29390470E-02    0.20759399E-02
    3   -0.19517222E+03   -0.10957081E-04    0.50901030E-03
    4   -0.19517222E+03   -0.19093644E-05    0.81497119E-04
    5   -0.19517222E+03   -0.73813254E-07    0.24987322E-04
    6   -0.19517222E+03   -0.34562220E-08    0.86680131E-05
    7   -0.19517222E+03   -0.72361672E-10    0.16885185E-05
    8   -0.19517222E+03   -0.38653525E-11    0.30708671E-06
    9   -0.19517222E+03   -0.31263880E-12    0.49421288E-07
   10   -0.19517222E+03   -0.56843419E-13    0.80353302E-08

Total Energy:                     -193.2591539288 H        -5258.8491 eV
Extrapolated to 0K:               -193.2591539288 H        -5258.8491 eV
Total Mermin free energy:         -193.2591539288 H        -5258.8491 eV
Force related energy:             -193.2591539288 H        -5258.8491 eV

Volume:                              0.112915E+05 au^3   0.167323E+04 A^3
Pressure:                            0.201629E-05 au     0.593213E+08 Pa
>> Charges saved for restart in charges.bin

total energy  -1.9325915E+02 H       energy change -5.9321258E-04 H
gradient norm  1.7886389E-02 H/a0    max. gradient  3.2038942E-03 H/a0
step length    1.4273116E-01 a0      max. step      3.2092690E-02 a0

--------------------------------------------------------------------------------

***  Geometry step: 35

 iSCC Total electronic   Diff electronic      SCC error    
    1   -0.19517222E+03    0.00000000E+00    0.42214859E-02
    2   -0.19517439E+03   -0.21673129E-02    0.24163846E-02
    3   -0.19517440E+03   -0.11752789E-04    0.62122909E-03
    4   -0.19517440E+03   -0.20333630E-05    0.51242368E-04
    5   -0.19517440E+03   -0.60327636E-07    0.80888241E-05
    6   -0.19517440E+03   -0.24469102E-08    0.24719855E-05
    7   -0.19517440E+03   -0.28478553E-10    0.53656215E-06
    8   -0.19517440E+03   -0.10231815E-11    0.13035152E-06
    9   -0.19517440E+03   -0.14210855E-12    0.33373365E-07
   10   -0.19517440E+03   -0.56843419E-13    0.77342652E-08

Total Energy:                     -193.2597156996 H        -5258.8644 eV
Extrapolated to 0K:               -193.2597156996 H        -5258.8644 eV
Total Mermin free energy:         -193.2597156996 H        -5258.8644 eV
Force related energy:             -193.2597156996 H        -5258.8644 eV

Volume:                              0.112996E+05 au^3   0.167443E+04 A^3
Pressure:                            0.189132E-05 au     0.556445E+08 Pa
>> Charges saved for restart in charges.bin

total energy  -1.9325972E+02 H       energy change -5.6177079E-04 H
gradient norm  1.6914912E-02 H/a0    max. gradient  5.4644002E-03 H/a0
step length    1.4355611E-01 a0      max. step      3.1264455E-02 a0

--------------------------------------------------------------------------------

***  Geometry step: 36

 iSCC Total electronic   Diff electronic      SCC error    
    1   -0.19517440E+03    0.00000000E+00    0.52153608E-02
    2   -0.19518115E+03   -0.67520570E-02    0.29554931E-02
    3   -0.19518116E+03   -0.11336424E-04    0.72796600E-03
    4   -0.19518116E+03   -0.19112204E-05    0.47491607E-04
    5   -0.19518116E+03   -0.66237163E-07    0.16534349E-04
    6   -0.19518116E+03   -0.26488181E-08    0.58474087E-05
    7   -0.19518116E+03   -0.39335646E-10    0.13201485E-05
    8   -0.19518116E+03   -0.20179414E-11    0.36884071E-06
    9   -0.19518116E+03   -0.28421709E-12    0.65790779E-07
   10   -0.19518116E+03   -0.56843419E-13    0.73434889E-08

Total Energy:                     -193.2601969104 H        -5258.8775 eV
Extrapolated to 0K:               -193.2601969104 H        -5258.8775 eV
Total Mermin free energy:         -193.2601969104 H        -5258.8775 eV
Force related energy:             -193.2601969104 H        -5258.8775 eV

Volume:                              0.113071E+05 au^3   0.167555E+04 A^3
Pressure:                            0.357935E-05 au     0.105308E+09 Pa
>> Charges saved for restart in charges.bin

total energy  -1.9326020E+02 H       energy change -4.8121088E-04 H
gradient norm  1.6036755E-02 H/a0    max. gradient  5.8580844E-03 H/a0
step length    1.3453752E-01 a0      max. step      2.6881624E-02 a0

--------------------------------------------------------------------------------

***  Geometry step: 37

 iSCC Total electronic   Diff electronic      SCC error    
    1   -0.19518116E+03    0.00000000E+00    0.43906362E-02
    2   -0.19518916E+03   -0.80000306E-02    0.25877887E-02
    3   -0.19518917E+03   -0.99885213E-05    0.70617555E-03
    4   -0.19518918E+03   -0.15869895E-05    0.85420926E-04
    5   -0.19518918E+03   -0.67790666E-07    0.29448949E-04
    6   -0.19518918E+03   -0.32215439E-08    0.92487600E-05
    7   -0.19518918E+03   -0.59571903E-10    0.10603265E-05
    8   -0.19518918E+03   -0.43485215E-11    0.23195675E-06
    9   -0.19518918E+03   -0.28421709E-12    0.48818430E-07
   10   -0.19518918E+03    0.00000000E+00    0.64777312E-08

Total Energy:                     -193.2606335051 H        -5258.8894 eV
Extrapolated to 0K:               -193.2606335051 H        -5258.8894 eV
Total Mermin free energy:         -193.2606335051 H        -5258.8894 eV
Force related energy:             -193.2606335051 H        -5258.8894 eV

Volume:                              0.113151E+05 au^3   0.167672E+04 A^3
Pressure:                            0.618351E-05 au     0.181925E+09 Pa
>> Charges saved for restart in charges.bin

total energy  -1.9326063E+02 H       energy change -4.3659470E-04 H
gradient norm  1.6091329E-02 H/a0    max. gradient  5.3653528E-03 H/a0
step length    1.2860293E-01 a0      max. step      2.3278186E-02 a0

--------------------------------------------------------------------------------

***  Geometry step: 38

 iSCC Total electronic   Diff electronic      SCC error    
    1   -0.19518918E+03    0.00000000E+00    0.36158886E-02
    2   -0.19519449E+03   -0.53103726E-02    0.19198291E-02
    3   -0.19519450E+03   -0.12253015E-04    0.55323148E-03
    4   -0.19519450E+03   -0.18292751E-05    0.11618996E-03
    5   -0.19519450E+03   -0.68831099E-07    0.35938625E-04
    6   -0.19519450E+03   -0.41433736E-08    0.11196781E-04
    7   -0.19519450E+03   -0.87510443E-10    0.13117835E-05
    8   -0.19519450E+03   -0.52864380E-11    0.24503036E-06
    9   -0.19519450E+03   -0.22737368E-12    0.62739538E-07
   10   -0.19519450E+03   -0.14210855E-12    0.82470315E-08

Total Energy:                     -193.2611206526 H        -5258.9027 eV
Extrapolated to 0K:               -193.2611206526 H        -5258.9027 eV
Total Mermin free energy:         -193.2611206526 H        -5258.9027 eV
Force related energy:             -193.2611206526 H        -5258.9027 eV

Volume:                              0.113261E+05 au^3   0.167835E+04 A^3
Pressure:                            0.743952E-05 au     0.218878E+09 Pa
>> Charges saved for restart in charges.bin

total energy  -1.9326112E+02 H       energy change -4.8714744E-04 H
gradient norm  1.6870813E-02 H/a0    max. gradient  4.5476477E-03 H/a0
step length    1.4113031E-01 a0      max. step      2.5894834E-02 a0

--------------------------------------------------------------------------------

***  Geometry step: 39

 iSCC Total electronic   Diff electronic      SCC error    
    1   -0.19519450E+03    0.00000000E+00    0.42806178E-02
    2   -0.19519760E+03   -0.31012029E-02    0.24226483E-02
    3   -0.19519762E+03   -0.20413522E-04    0.70194210E-03
    4   -0.19519763E+03   -0.29783527E-05    0.15701014E-03
    5   -0.19519763E+03   -0.10904614E-06    0.45854330E-04
    6   -0.19519763E+03   -0.67751103E-08    0.14697575E-04
    7   -0.19519763E+03   -0.13037038E-09    0.20714877E-05
    8   -0.19519763E+03   -0.81001872E-11    0.32651787E-06
    9   -0.19519763E+03   -0.54001248E-12    0.78527646E-07
   10   -0.19519763E+03   -0.17053026E-12    0.10466445E-07
   11   -0.19519763E+03    0.56843419E-13    0.16222952E-08

Total Energy:                     -193.2617527323 H        -5258.9199 eV
Extrapolated to 0K:               -193.2617527323 H        -5258.9199 eV
Total Mermin free energy:         -193.2617527323 H        -5258.9199 eV
Force related energy:             -193.2617527323 H        -5258.9199 eV

Volume:                              0.113404E+05 au^3   0.168048E+04 A^3
Pressure:                            0.794247E-05 au     0.233676E+09 Pa
>> Charges saved for restart in charges.bin

total energy  -1.9326175E+02 H       energy change -6.3207971E-04 H
gradient norm  1.8006548E-02 H/a0    max. gradient  2.9853368E-03 H/a0
step length    1.8886561E-01 a0      max. step      3.6628770E-02 a0

--------------------------------------------------------------------------------

***  Geometry step: 40

 iSCC Total electronic   Diff electronic      SCC error    
    1   -0.19519763E+03    0.00000000E+00    0.40835517E-02
    2   -0.19519530E+03    0.23266376E-02    0.23327633E-02
    3   -0.19519532E+03   -0.19932154E-04    0.67920647E-03
    4   -0.19519532E+03   -0.25972487E-05    0.12384066E-03
    5   -0.19519532E+03   -0.11917450E-06    0.36836831E-04
    6   -0.19519532E+03   -0.58461467E-08    0.11722821E-04
    7   -0.19519532E+03   -0.84355634E-10    0.19363513E-05
    8   -0.19519532E+03   -0.55138116E-11    0.29638653E-06
    9   -0.19519532E+03   -0.56843419E-12    0.83815866E-07
   10   -0.19519532E+03   -0.56843419E-13    0.11062304E-07
   11   -0.19519532E+03   -0.28421709E-13    0.20601201E-08

Total Energy:                     -193.2623547606 H        -5258.9362 eV
Extrapolated to 0K:               -193.2623547606 H        -5258.9362 eV
Total Mermin free energy:         -193.2623547606 H        -5258.9362 eV
Force related energy:             -193.2623547606 H        -5258.9362 eV

Volume:                              0.113541E+05 au^3   0.168251E+04 A^3
Pressure:                            0.623726E-05 au     0.183506E+09 Pa
>> Charges saved for restart in charges.bin

total energy  -1.9326235E+02 H       energy change -6.0202835E-04 H
gradient norm  1.7545799E-02 H/a0    max. gradient  4.7619203E-03 H/a0
step length    1.9287401E-01 a0      max. step      4.1650460E-02 a0

--------------------------------------------------------------------------------

***  Geometry step: 41

 iSCC Total electronic   Diff electronic      SCC error    
    1   -0.19519532E+03    0.00000000E+00    0.45100336E-02
    2   -0.19519082E+03    0.45055932E-02    0.21243026E-02
    3   -0.19519083E+03   -0.18048787E-04    0.63914857E-03
    4   -0.19519084E+03   -0.21638548E-05    0.72965533E-04
    5   -0.19519084E+03   -0.11747591E-06    0.20699084E-04
    6   -0.19519084E+03   -0.41843009E-08    0.66680022E-05
    7   -0.19519084E+03   -0.45417892E-10    0.14022232E-05
    8   -0.19519084E+03   -0.28705927E-11    0.24097382E-06
    9   -0.19519084E+03   -0.48316906E-12    0.58561962E-07
   10   -0.19519084E+03    0.28421709E-13    0.76072144E-08

Total Energy:                     -193.2628755145 H        -5258.9504 eV
Extrapolated to 0K:               -193.2628755145 H        -5258.9504 eV
Total Mermin free energy:         -193.2628755145 H        -5258.9504 eV
Force related energy:             -193.2628755145 H        -5258.9504 eV

Volume:                              0.113636E+05 au^3   0.168391E+04 A^3
Pressure:                            0.397889E-05 au     0.117063E+09 Pa
>> Charges saved for restart in charges.bin

total energy  -1.9326288E+02 H       energy change -5.2075388E-04 H
gradient norm  1.4960300E-02 H/a0    max. gradient  3.9090502E-03 H/a0
step length    1.7624798E-01 a0      max. step      4.3509992E-02 a0

--------------------------------------------------------------------------------

***  Geometry step: 42

 iSCC Total electronic   Diff electronic      SCC error    
    1   -0.19519084E+03    0.00000000E+00    0.31327683E-02
    2   -0.19518779E+03    0.30432101E-02    0.16844039E-02
    3   -0.19518780E+03   -0.10803903E-04    0.46500549E-03
    4   -0.19518781E+03   -0.13880537E-05    0.67606802E-04
    5   -0.19518781E+03   -0.60950470E-07    0.18111257E-04
    6   -0.19518781E+03   -0.32091236E-08    0.69639969E-05
    7   -0.19518781E+03   -0.47691628E-10    0.15163623E-05
    8   -0.19518781E+03   -0.22453150E-11    0.31716559E-06
    9   -0.19518781E+03   -0.11368684E-12    0.66317769E-07
   10   -0.19518781E+03   -0.56843419E-13    0.93986516E-08

Total Energy:                     -193.2632351458 H        -5258.9602 eV
Extrapolated to 0K:               -193.2632351458 H        -5258.9602 eV
Total Mermin free energy:         -193.2632351458 H        -5258.9602 eV
Force related energy:             -193.2632351458 H        -5258.9602 eV

Volume:                              0.113686E+05 au^3   0.168465E+04 A^3
Pressure:                            0.239049E-05 au     0.703306E+08 Pa
>> Charges saved for restart in charges.bin

total energy  -1.9326324E+02 H       energy change -3.5963131E-04 H
gradient norm  1.3355039E-02 H/a0    max. gradient  2.6735419E-03 H/a0
step length    1.2137235E-01 a0      max. step      3.1620867E-02 a0

--------------------------------------------------------------------------------

***  Geometry step: 43

 iSCC Total electronic   Diff electronic      SCC error    
    1   -0.19518781E+03    0.00000000E+00    0.34315355E-02
    2   -0.19518721E+03    0.59178602E-03    0.19370808E-02
    3   -0.19518722E+03   -0.89102101E-05    0.53068896E-03
    4   -0.19518722E+03   -0.13950056E-05    0.68213934E-04
    5   -0.19518722E+03   -0.52645987E-07    0.21780924E-04
    6   -0.19518722E+03   -0.35643382E-08    0.80792751E-05
    7   -0.19518722E+03   -0.60254024E-10    0.13704754E-05
    8   -0.19518722E+03   -0.28990144E-11    0.27796608E-06
    9   -0.19518722E+03   -0.22737368E-12    0.56956921E-07
   10   -0.19518722E+03    0.85265128E-13    0.85186409E-08

Total Energy:                     -193.2635568641 H        -5258.9690 eV
Extrapolated to 0K:               -193.2635568641 H        -5258.9690 eV
Total Mermin free energy:         -193.2635568641 H        -5258.9690 eV
Force related energy:             -193.2635568641 H        -5258.9690 eV

Volume:                              0.113738E+05 au^3   0.168542E+04 A^3
Pressure:                            0.175798E-05 au     0.517216E+08 Pa
>> Charges saved for restart in charges.bin

total energy  -1.9326356E+02 H       energy change -3.2171824E-04 H
gradient norm  1.3110218E-02 H/a0    max. gradient  2.7152761E-03 H/a0
step length    1.0537539E-01 a0      max. step      2.5969405E-02 a0

--------------------------------------------------------------------------------

***  Geometry step: 44

 iSCC Total electronic   Diff electronic      SCC error    
    1   -0.19518722E+03    0.00000000E+00    0.39611458E-02
    2   -0.19518952E+03   -0.22920355E-02    0.23166165E-02
    3   -0.19518952E+03   -0.66323157E-05    0.53755395E-03
    4   -0.19518952E+03   -0.11850526E-05    0.81857897E-04
    5   -0.19518952E+03   -0.50989172E-07    0.27584041E-04
    6   -0.19518952E+03   -0.33717811E-08    0.85800342E-05
    7   -0.19518952E+03   -0.57895022E-10    0.11196416E-05
    8   -0.19518952E+03   -0.31832315E-11    0.20112409E-06
    9   -0.19518952E+03   -0.25579538E-12    0.44539163E-07
   10   -0.19518952E+03    0.85265128E-13    0.72482527E-08

Total Energy:                     -193.2638642404 H        -5258.9773 eV
Extrapolated to 0K:               -193.2638642404 H        -5258.9773 eV
Total Mermin free energy:         -193.2638642404 H        -5258.9773 eV
Force related energy:             -193.2638642404 H        -5258.9773 eV

Volume:                              0.113791E+05 au^3   0.168621E+04 A^3
Pressure:                            0.225420E-05 au     0.663207E+08 Pa
>> Charges saved for restart in charges.bin

total energy  -1.9326386E+02 H       energy change -3.0737630E-04 H
gradient norm  1.3362582E-02 H/a0    max. gradient  2.8610217E-03 H/a0
step length    1.0186902E-01 a0      max. step      2.2340046E-02 a0

--------------------------------------------------------------------------------

***  Geometry step: 45

 iSCC Total electronic   Diff electronic      SCC error    
    1   -0.19518952E+03    0.00000000E+00    0.34290018E-02
    2   -0.19519360E+03   -0.40740652E-02    0.20566568E-02
    3   -0.19519360E+03   -0.66981583E-05    0.50210742E-03
    4   -0.19519361E+03   -0.11137944E-05    0.89835671E-04
    5   -0.19519361E+03   -0.62509230E-07    0.31315554E-04
    6   -0.19519361E+03   -0.37561847E-08    0.82874184E-05
    7   -0.19519361E+03   -0.60822458E-10    0.82246646E-06
    8   -0.19519361E+03   -0.47464255E-11    0.16372354E-06
    9   -0.19519361E+03   -0.25579538E-12    0.49671705E-07
   10   -0.19519361E+03    0.56843419E-13    0.63658154E-08

Total Energy:                     -193.2641983100 H        -5258.9864 eV
Extrapolated to 0K:               -193.2641983100 H        -5258.9864 eV
Total Mermin free energy:         -193.2641983100 H        -5258.9864 eV
Force related energy:             -193.2641983100 H        -5258.9864 eV

Volume:                              0.113865E+05 au^3   0.168730E+04 A^3
Pressure:                            0.329720E-05 au     0.970070E+08 Pa
>> Charges saved for restart in charges.bin

total energy  -1.9326420E+02 H       energy change -3.3406967E-04 H
gradient norm  1.3305740E-02 H/a0    max. gradient  2.6831043E-03 H/a0
step length    1.2691039E-01 a0      max. step      2.4663648E-02 a0

--------------------------------------------------------------------------------

***  Geometry step: 46

 iSCC Total electronic   Diff electronic      SCC error    
    1   -0.19519361E+03    0.00000000E+00    0.31444681E-02
    2   -0.19519808E+03   -0.44723995E-02    0.18149028E-02
    3   -0.19519809E+03   -0.67258504E-05    0.49207104E-03
    4   -0.19519809E+03   -0.91915015E-06    0.92584754E-04
    5   -0.19519809E+03   -0.55474800E-07    0.31174864E-04
    6   -0.19519809E+03   -0.32712251E-08    0.80440528E-05
    7   -0.19519809E+03   -0.60737193E-10    0.57156571E-06
    8   -0.19519809E+03   -0.54285465E-11    0.21957874E-06
    9   -0.19519809E+03   -0.22737368E-12    0.60568853E-07
   10   -0.19519809E+03   -0.28421709E-13    0.55387082E-08

Total Energy:                     -193.2645101275 H        -5258.9949 eV
Extrapolated to 0K:               -193.2645101275 H        -5258.9949 eV
Total Mermin free energy:         -193.2645101275 H        -5258.9949 eV
Force related energy:             -193.2645101275 H        -5258.9949 eV

Volume:                              0.113935E+05 au^3   0.168835E+04 A^3
Pressure:                            0.463049E-05 au     0.136234E+09 Pa
>> Charges saved for restart in charges.bin

total energy  -1.9326451E+02 H       energy change -3.1181745E-04 H
gradient norm  1.2642204E-02 H/a0    max. gradient  2.8424586E-03 H/a0
step length    1.3595714E-01 a0      max. step      2.6797355E-02 a0

--------------------------------------------------------------------------------

***  Geometry step: 47

 iSCC Total electronic   Diff electronic      SCC error    
    1   -0.19519809E+03    0.00000000E+00    0.29579966E-02
    2   -0.19520006E+03   -0.19690610E-02    0.12718870E-02
    3   -0.19520006E+03   -0.72304483E-05    0.47855578E-03
    4   -0.19520006E+03   -0.10258150E-05    0.10490169E-03
    5   -0.19520006E+03   -0.43890765E-07    0.29261066E-04
    6   -0.19520006E+03   -0.38103565E-08    0.75883676E-05
    7   -0.19520006E+03   -0.70798478E-10    0.60878927E-06
    8   -0.19520006E+03   -0.49169557E-11    0.15938688E-06
    9   -0.19520006E+03   -0.28421709E-12    0.44880485E-07
   10   -0.19520006E+03    0.28421709E-13    0.49961937E-08

Total Energy:                     -193.2647925574 H        -5259.0026 eV
Extrapolated to 0K:               -193.2647925574 H        -5259.0026 eV
Total Mermin free energy:         -193.2647925574 H        -5259.0026 eV
Force related energy:             -193.2647925574 H        -5259.0026 eV

Volume:                              0.114023E+05 au^3   0.168965E+04 A^3
Pressure:                            0.488485E-05 au     0.143717E+09 Pa
>> Charges saved for restart in charges.bin

total energy  -1.9326479E+02 H       energy change -2.8242992E-04 H
gradient norm  1.1613554E-02 H/a0    max. gradient  2.3713197E-03 H/a0
step length    1.4494419E-01 a0      max. step      3.0435006E-02 a0

--------------------------------------------------------------------------------

***  Geometry step: 48

 iSCC Total electronic   Diff electronic      SCC error    
    1   -0.19520006E+03    0.00000000E+00    0.32579944E-02
    2   -0.19519995E+03    0.11293248E-03    0.18009901E-02
    3   -0.19519996E+03   -0.56477630E-05    0.42899248E-03
    4   -0.19519996E+03   -0.89581880E-06    0.92689774E-04
    5   -0.19519996E+03   -0.36762032E-07    0.26173527E-04
    6   -0.19519996E+03   -0.32342484E-08    0.66399337E-05
    7   -0.19519996E+03   -0.55450755E-10    0.79147170E-06
    8   -0.19519996E+03   -0.31263880E-11    0.14256146E-06
    9   -0.19519996E+03   -0.22737368E-12    0.53852718E-07
   10   -0.19519996E+03    0.11368684E-12    0.74916184E-08

Total Energy:                     -193.2650180906 H        -5259.0087 eV
Extrapolated to 0K:               -193.2650180906 H        -5259.0087 eV
Total Mermin free energy:         -193.2650180906 H        -5259.0087 eV
Force related energy:             -193.2650180906 H        -5259.0087 eV

Volume:                              0.114080E+05 au^3   0.169048E+04 A^3
Pressure:                            0.455596E-05 au     0.134041E+09 Pa
>> Charges saved for restart in charges.bin

total energy  -1.9326502E+02 H       energy change -2.2553315E-04 H
gradient norm  1.0297698E-02 H/a0    max. gradient  2.1146338E-03 H/a0
step length    1.0472267E-01 a0      max. step      2.5346404E-02 a0

--------------------------------------------------------------------------------

***  Geometry step: 49

 iSCC Total electronic   Diff electronic      SCC error    
    1   -0.19519996E+03    0.00000000E+00    0.36904235E-02
    2   -0.19519812E+03    0.18371625E-02    0.21084610E-02
    3   -0.19519812E+03   -0.43605913E-05    0.42662747E-03
    4   -0.19519813E+03   -0.84281254E-06    0.65598497E-04
    5   -0.19519813E+03   -0.33094636E-07    0.17867063E-04
    6   -0.19519813E+03   -0.24985525E-08    0.50660245E-05
    7   -0.19519813E+03   -0.47293724E-10    0.96665316E-06
    8   -0.19519813E+03   -0.18189894E-11    0.18836098E-06
    9   -0.19519813E+03    0.28421709E-13    0.40399210E-07
   10   -0.19519813E+03   -0.56843419E-13    0.65671206E-08

Total Energy:                     -193.2651952703 H        -5259.0135 eV
Extrapolated to 0K:               -193.2651952703 H        -5259.0135 eV
Total Mermin free energy:         -193.2651952703 H        -5259.0135 eV
Force related energy:             -193.2651952703 H        -5259.0135 eV

Volume:                              0.114114E+05 au^3   0.169100E+04 A^3
Pressure:                            0.376903E-05 au     0.110889E+09 Pa
>> Charges saved for restart in charges.bin

total energy  -1.9326520E+02 H       energy change -1.7717973E-04 H
gradient norm  9.2257103E-03 H/a0    max. gradient  2.3248913E-03 H/a0
step length    7.6074267E-02 a0      max. step      2.1030021E-02 a0

--------------------------------------------------------------------------------

***  Geometry step: 50

 iSCC Total electronic   Diff electronic      SCC error    
    1   -0.19519813E+03    0.00000000E+00    0.25292723E-02
    2   -0.19519579E+03    0.23301736E-02    0.14981840E-02
    3   -0.19519580E+03   -0.31616486E-05    0.36169886E-03
    4   -0.19519580E+03   -0.60625035E-06    0.38928462E-04
    5   -0.19519580E+03   -0.22128461E-07    0.84273981E-05
    6   -0.19519580E+03   -0.11027339E-08    0.21295851E-05
    7   -0.19519580E+03   -0.26716407E-10    0.56559963E-06
    8   -0.19519580E+03   -0.73896445E-12    0.16973594E-06
    9   -0.19519580E+03    0.28421709E-13    0.36880672E-07
   10   -0.19519580E+03    0.28421709E-13    0.55408087E-08

Total Energy:                     -193.2653327501 H        -5259.0173 eV
Extrapolated to 0K:               -193.2653327501 H        -5259.0173 eV
Total Mermin free energy:         -193.2653327501 H        -5259.0173 eV
Force related energy:             -193.2653327501 H        -5259.0173 eV

Volume:                              0.114140E+05 au^3   0.169137E+04 A^3
Pressure:                            0.273203E-05 au     0.803791E+08 Pa
>> Charges saved for restart in charges.bin

total energy  -1.9326533E+02 H       energy change -1.3747975E-04 H
gradient norm  8.9995729E-03 H/a0    max. gradient  1.6328232E-03 H/a0
step length    5.3674395E-02 a0      max. step      1.5060028E-02 a0

[...]
Pressure:                            0.334832E-07 au     0.985109E+06 Pa
>> Charges saved for restart in charges.bin

total energy  -1.9327522E+02 H       energy change -1.3912959E-06 H
gradient norm  6.3889966E-04 H/a0    max. gradient  1.4012555E-04 H/a0
step length    8.3700026E-03 a0      max. step      2.6384582E-03 a0

--------------------------------------------------------------------------------

***  Geometry step: 182

 iSCC Total electronic   Diff electronic      SCC error    
    1   -0.19518312E+03    0.00000000E+00    0.18111534E-03
    2   -0.19518310E+03    0.17667732E-04    0.74800283E-04
    3   -0.19518310E+03   -0.17200136E-07    0.19808992E-04
    4   -0.19518310E+03   -0.27187639E-08    0.30166922E-05
    5   -0.19518310E+03   -0.10416557E-09    0.10830841E-05
    6   -0.19518310E+03   -0.48885340E-11    0.27714055E-06
    7   -0.19518310E+03   -0.28421709E-13    0.31540094E-07
    8   -0.19518310E+03   -0.56843419E-13    0.47503033E-08

Total Energy:                     -193.2752170261 H        -5259.2862 eV
Extrapolated to 0K:               -193.2752170261 H        -5259.2862 eV
Total Mermin free energy:         -193.2752170261 H        -5259.2862 eV
Force related energy:             -193.2752170261 H        -5259.2862 eV

Volume:                              0.111842E+05 au^3   0.165734E+04 A^3
Pressure:                            0.385128E-07 au     0.113308E+07 Pa
>> Charges saved for restart in charges.bin

total energy  -1.9327522E+02 H       energy change -5.8405243E-07 H
gradient norm  5.2446120E-04 H/a0    max. gradient  1.1020279E-04 H/a0
step length    2.4112287E-03 a0      max. step      5.7520945E-04 a0

--------------------------------------------------------------------------------

***  Geometry step: 183

 iSCC Total electronic   Diff electronic      SCC error    
    1   -0.19518310E+03    0.00000000E+00    0.16649465E-03
    2   -0.19518306E+03    0.40300468E-04    0.89476142E-04
    3   -0.19518306E+03   -0.18794907E-07    0.25589164E-04
    4   -0.19518306E+03   -0.27802685E-08    0.30156919E-05
    5   -0.19518306E+03   -0.11291945E-09    0.11650008E-05
    6   -0.19518306E+03   -0.58832939E-11    0.33659738E-06
    7   -0.19518306E+03   -0.85265128E-13    0.27695101E-07
    8   -0.19518306E+03   -0.11368684E-12    0.47819326E-08

Total Energy:                     -193.2752175815 H        -5259.2863 eV
Extrapolated to 0K:               -193.2752175815 H        -5259.2863 eV
Total Mermin free energy:         -193.2752175815 H        -5259.2863 eV
Force related energy:             -193.2752175815 H        -5259.2863 eV

Volume:                              0.111842E+05 au^3   0.165733E+04 A^3
Pressure:                            0.270405E-07 au     0.795558E+06 Pa
>> Charges saved for restart in charges.bin

total energy  -1.9327522E+02 H       energy change -5.5537336E-07 H
gradient norm  5.2918924E-04 H/a0    max. gradient  1.2325326E-04 H/a0
step length    2.8719698E-03 a0      max. step      5.8069656E-04 a0

--------------------------------------------------------------------------------

***  Geometry step: 184

 iSCC Total electronic   Diff electronic      SCC error    
    1   -0.19518306E+03    0.00000000E+00    0.14403147E-03
    2   -0.19518308E+03   -0.18868593E-04    0.82717806E-04
    3   -0.19518308E+03   -0.16312981E-07    0.26160177E-04
    4   -0.19518308E+03   -0.20259563E-08    0.26222323E-05
    5   -0.19518308E+03   -0.82536644E-10    0.65527532E-06
    6   -0.19518308E+03   -0.48032689E-11    0.25234244E-06
    7   -0.19518308E+03    0.28421709E-13    0.37444281E-07
    8   -0.19518308E+03    0.28421709E-13    0.41594834E-08

Total Energy:                     -193.2752183583 H        -5259.2863 eV
Extrapolated to 0K:               -193.2752183583 H        -5259.2863 eV
Total Mermin free energy:         -193.2752183583 H        -5259.2863 eV
Force related energy:             -193.2752183583 H        -5259.2863 eV

Volume:                              0.111846E+05 au^3   0.165738E+04 A^3
Pressure:                            0.173956E-07 au     0.511797E+06 Pa
>> Charges saved for restart in charges.bin

total energy  -1.9327522E+02 H       energy change -7.7686332E-07 H
gradient norm  6.7327162E-04 H/a0    max. gradient  1.7970358E-04 H/a0
step length    9.5137761E-03 a0      max. step      2.0361359E-03 a0

--------------------------------------------------------------------------------

***  Geometry step: 185

 iSCC Total electronic   Diff electronic      SCC error    
    1   -0.19518308E+03    0.00000000E+00    0.15019596E-03
    2   -0.19518302E+03    0.58726386E-04    0.68922010E-04
    3   -0.19518302E+03   -0.19088361E-07    0.22548570E-04
    4   -0.19518302E+03   -0.25275142E-08    0.22721525E-05
    5   -0.19518302E+03   -0.72759576E-10    0.43066102E-06
    6   -0.19518302E+03   -0.44337867E-11    0.17385232E-06
    7   -0.19518302E+03   -0.56843419E-13    0.37622765E-07
    8   -0.19518302E+03   -0.56843419E-13    0.53248632E-08

Total Energy:                     -193.2752193591 H        -5259.2863 eV
Extrapolated to 0K:               -193.2752193591 H        -5259.2863 eV
Total Mermin free energy:         -193.2752193591 H        -5259.2863 eV
Force related energy:             -193.2752193591 H        -5259.2863 eV

Volume:                              0.111850E+05 au^3   0.165744E+04 A^3
Pressure:                           -0.278389E-07 au    -0.819050E+06 Pa
>> Charges saved for restart in charges.bin

total energy  -1.9327522E+02 H       energy change -1.0007346E-06 H
gradient norm  8.1503920E-04 H/a0    max. gradient  2.0627656E-04 H/a0
step length    1.0317625E-02 a0      max. step      2.3250009E-03 a0

--------------------------------------------------------------------------------

***  Geometry step: 186

 iSCC Total electronic   Diff electronic      SCC error    
    1   -0.19518302E+03    0.00000000E+00    0.27135860E-03
    2   -0.19518299E+03    0.34306276E-04    0.11050368E-03
    3   -0.19518299E+03   -0.48752611E-07    0.29361459E-04
    4   -0.19518299E+03   -0.69203736E-08    0.28287147E-05
    5   -0.19518299E+03   -0.16223112E-09    0.58755071E-06
    6   -0.19518299E+03   -0.84412477E-11    0.23204890E-06
    7   -0.19518299E+03   -0.17053026E-12    0.56651790E-07
    8   -0.19518299E+03   -0.85265128E-13    0.86840677E-08

Total Energy:                     -193.2752209349 H        -5259.2864 eV
Extrapolated to 0K:               -193.2752209349 H        -5259.2864 eV
Total Mermin free energy:         -193.2752209349 H        -5259.2864 eV
Force related energy:             -193.2752209349 H        -5259.2864 eV

Volume:                              0.111856E+05 au^3   0.165753E+04 A^3
Pressure:                           -0.710437E-07 au    -0.209018E+07 Pa
>> Charges saved for restart in charges.bin

total energy  -1.9327522E+02 H       energy change -1.5758067E-06 H
gradient norm  9.2949493E-04 H/a0    max. gradient  2.2736784E-04 H/a0
step length    1.3206608E-02 a0      max. step      3.7985513E-03 a0

--------------------------------------------------------------------------------

***  Geometry step: 187

 iSCC Total electronic   Diff electronic      SCC error    
    1   -0.19518299E+03    0.00000000E+00    0.38509655E-03
    2   -0.19518299E+03   -0.37869781E-05    0.15269689E-03
    3   -0.19518299E+03   -0.80039456E-07    0.44373665E-04
    4   -0.19518299E+03   -0.11812347E-07    0.28331341E-05
    5   -0.19518299E+03   -0.31045033E-09    0.71085303E-06
    6   -0.19518299E+03   -0.12875034E-10    0.26238248E-06
    7   -0.19518299E+03   -0.14210855E-12    0.67029986E-07
    8   -0.19518299E+03    0.00000000E+00    0.99828767E-08

Total Energy:                     -193.2752227437 H        -5259.2864 eV
Extrapolated to 0K:               -193.2752227437 H        -5259.2864 eV
Total Mermin free energy:         -193.2752227437 H        -5259.2864 eV
Force related energy:             -193.2752227437 H        -5259.2864 eV

Volume:                              0.111860E+05 au^3   0.165760E+04 A^3
Pressure:                           -0.971206E-07 au    -0.285738E+07 Pa
>> Charges saved for restart in charges.bin

total energy  -1.9327522E+02 H       energy change -1.8087750E-06 H
gradient norm  9.0455075E-04 H/a0    max. gradient  2.7296050E-04 H/a0
step length    1.3617975E-02 a0      max. step      4.1592458E-03 a0

--------------------------------------------------------------------------------

***  Geometry step: 188

 iSCC Total electronic   Diff electronic      SCC error    
    1   -0.19518299E+03    0.00000000E+00    0.32440563E-03
    2   -0.19518307E+03   -0.77435862E-04    0.13478311E-03
    3   -0.19518307E+03   -0.61878808E-07    0.40947302E-04
    4   -0.19518307E+03   -0.89632977E-08    0.31974253E-05
    5   -0.19518307E+03   -0.25602276E-09    0.56826486E-06
    6   -0.19518307E+03   -0.13045565E-10    0.21100433E-06
    7   -0.19518307E+03   -0.28421709E-12    0.48200830E-07
    8   -0.19518307E+03   -0.28421709E-13    0.86784366E-08

Total Energy:                     -193.2752240888 H        -5259.2864 eV
Extrapolated to 0K:               -193.2752240888 H        -5259.2864 eV
Total Mermin free energy:         -193.2752240888 H        -5259.2864 eV
Force related energy:             -193.2752240888 H        -5259.2864 eV

Volume:                              0.111860E+05 au^3   0.165760E+04 A^3
Pressure:                           -0.763851E-07 au    -0.224733E+07 Pa
>> Charges saved for restart in charges.bin

total energy  -1.9327522E+02 H       energy change -1.3451724E-06 H
gradient norm  7.0968202E-04 H/a0    max. gradient  2.1003458E-04 H/a0
step length    1.0636921E-02 a0      max. step      2.8164850E-03 a0

--------------------------------------------------------------------------------

***  Geometry step: 189

 iSCC Total electronic   Diff electronic      SCC error    
    1   -0.19518307E+03    0.00000000E+00    0.18888423E-03
    2   -0.19518322E+03   -0.15545221E-03    0.66203325E-04
    3   -0.19518322E+03   -0.19815730E-07    0.17360385E-04
    4   -0.19518322E+03   -0.28922500E-08    0.28127044E-05
    5   -0.19518322E+03   -0.75715434E-10    0.44525825E-06
    6   -0.19518322E+03   -0.55990768E-11    0.15646957E-06
    7   -0.19518322E+03   -0.28421709E-13    0.38254842E-07
    8   -0.19518322E+03   -0.85265128E-13    0.60108110E-08

Total Energy:                     -193.2752247749 H        -5259.2865 eV
Extrapolated to 0K:               -193.2752247749 H        -5259.2865 eV
Total Mermin free energy:         -193.2752247749 H        -5259.2865 eV
Force related energy:             -193.2752247749 H        -5259.2865 eV

Volume:                              0.111858E+05 au^3   0.165757E+04 A^3
Pressure:                           -0.114776E-07 au    -0.337681E+06 Pa
>> Charges saved for restart in charges.bin

total energy  -1.9327522E+02 H       energy change -6.8603620E-07 H
gradient norm  5.0712220E-04 H/a0    max. gradient  1.0036958E-04 H/a0
step length    2.9699206E-03 a0      max. step      7.0370686E-04 a0

--------------------------------------------------------------------------------

***  Geometry step: 190

 iSCC Total electronic   Diff electronic      SCC error    
    1   -0.19518322E+03    0.00000000E+00    0.12013132E-03
    2   -0.19518331E+03   -0.87144325E-04    0.52936740E-04
    3   -0.19518331E+03   -0.12192800E-07    0.17490933E-04
    4   -0.19518331E+03   -0.18552271E-08    0.21374811E-05
    5   -0.19518331E+03   -0.46981086E-10    0.40287159E-06
    6   -0.19518331E+03   -0.30979663E-11    0.14905570E-06
    7   -0.19518331E+03    0.28421709E-13    0.32768891E-07
    8   -0.19518331E+03   -0.56843419E-13    0.34862393E-08

Total Energy:                     -193.2752252545 H        -5259.2865 eV
Extrapolated to 0K:               -193.2752252545 H        -5259.2865 eV
Total Mermin free energy:         -193.2752252545 H        -5259.2865 eV
Force related energy:             -193.2752252545 H        -5259.2865 eV

Volume:                              0.111857E+05 au^3   0.165755E+04 A^3
Pressure:                            0.293544E-07 au     0.863635E+06 Pa
>> Charges saved for restart in charges.bin

total energy  -1.9327523E+02 H       energy change -4.7964511E-07 H
gradient norm  4.8243376E-04 H/a0    max. gradient  1.0236111E-04 H/a0
step length    2.6891796E-03 a0      max. step      5.9659904E-04 a0

--------------------------------------------------------------------------------

***  Geometry step: 191

 iSCC Total electronic   Diff electronic      SCC error    
    1   -0.19518331E+03    0.00000000E+00    0.97971457E-04
    2   -0.19518338E+03   -0.70982065E-04    0.57762671E-04
    3   -0.19518338E+03   -0.76880156E-08    0.14587839E-04
    4   -0.19518338E+03   -0.14076988E-08    0.10763787E-05
    5   -0.19518338E+03   -0.41580961E-10    0.31307462E-06
    6   -0.19518338E+03   -0.13926638E-11    0.10918530E-06
    7   -0.19518338E+03    0.00000000E+00    0.16005509E-07
    8   -0.19518338E+03    0.28421709E-13    0.22690609E-08

Total Energy:                     -193.2752256843 H        -5259.2865 eV
Extrapolated to 0K:               -193.2752256843 H        -5259.2865 eV
Total Mermin free energy:         -193.2752256843 H        -5259.2865 eV
Force related energy:             -193.2752256843 H        -5259.2865 eV

Volume:                              0.111857E+05 au^3   0.165755E+04 A^3
Pressure:                            0.612149E-07 au     0.180100E+07 Pa
>> Charges saved for restart in charges.bin

total energy  -1.9327523E+02 H       energy change -4.2982873E-07 H
gradient norm  5.3141167E-04 H/a0    max. gradient  1.4244166E-04 H/a0
step length    1.5556007E-03 a0      max. step      3.7257175E-04 a0

--------------------------------------------------------------------------------

***  Geometry step: 192

 iSCC Total electronic   Diff electronic      SCC error    
    1   -0.19518338E+03    0.00000000E+00    0.19394975E-03
    2   -0.19518340E+03   -0.21557094E-04    0.89129178E-04
    3   -0.19518340E+03   -0.31856302E-07    0.28742405E-04
    4   -0.19518340E+03   -0.45469335E-08    0.35203435E-05
    5   -0.19518340E+03   -0.12099122E-09    0.11875947E-05
    6   -0.19518340E+03   -0.54569682E-11    0.39697059E-06
    7   -0.19518340E+03   -0.28421709E-12    0.41178741E-07
    8   -0.19518340E+03    0.14210855E-12    0.46674740E-08

Total Energy:                     -193.2752267753 H        -5259.2865 eV
Extrapolated to 0K:               -193.2752267753 H        -5259.2865 eV
Total Mermin free energy:         -193.2752267753 H        -5259.2865 eV
Force related energy:             -193.2752267753 H        -5259.2865 eV

Volume:                              0.111856E+05 au^3   0.165753E+04 A^3
Pressure:                            0.749361E-07 au     0.220469E+07 Pa
>> Charges saved for restart in charges.bin

total energy  -1.9327523E+02 H       energy change -1.0909776E-06 H
gradient norm  7.3130080E-04 H/a0    max. gradient  1.5336797E-04 H/a0
step length    9.9797863E-03 a0      max. step      2.0736452E-03 a0

--------------------------------------------------------------------------------

***  Geometry step: 193

 iSCC Total electronic   Diff electronic      SCC error    
    1   -0.19518340E+03    0.00000000E+00    0.19277102E-03
    2   -0.19518348E+03   -0.72814728E-04    0.90631067E-04
    3   -0.19518348E+03   -0.34642795E-07    0.34357099E-04
    4   -0.19518348E+03   -0.44296655E-08    0.31317277E-05
    5   -0.19518348E+03   -0.96378017E-10    0.47688859E-06
    6   -0.19518348E+03   -0.49453774E-11    0.19025810E-06
    7   -0.19518348E+03   -0.17053026E-12    0.42533048E-07
    8   -0.19518348E+03    0.00000000E+00    0.50424327E-08

Total Energy:                     -193.2752279611 H        -5259.2865 eV
Extrapolated to 0K:               -193.2752279611 H        -5259.2865 eV
Total Mermin free energy:         -193.2752279611 H        -5259.2865 eV
Force related energy:             -193.2752279611 H        -5259.2865 eV

Volume:                              0.111858E+05 au^3   0.165756E+04 A^3
Pressure:                            0.905516E-07 au     0.266412E+07 Pa
>> Charges saved for restart in charges.bin

total energy  -1.9327523E+02 H       energy change -1.1858225E-06 H
gradient norm  8.2931454E-04 H/a0    max. gradient  1.7239271E-04 H/a0
step length    1.5284535E-02 a0      max. step      3.3738946E-03 a0

--------------------------------------------------------------------------------

***  Geometry step: 194

 iSCC Total electronic   Diff electronic      SCC error    
    1   -0.19518348E+03    0.00000000E+00    0.23253242E-03
    2   -0.19518350E+03   -0.23689643E-04    0.11411949E-03
    3   -0.19518350E+03   -0.40830855E-07    0.39703591E-04
    4   -0.19518350E+03   -0.54289444E-08    0.23665293E-05
    5   -0.19518350E+03   -0.10552981E-09    0.29133667E-06
    6   -0.19518350E+03   -0.45474735E-11    0.11464279E-06
    7   -0.19518350E+03   -0.85265128E-13    0.26154444E-07
    8   -0.19518350E+03    0.56843419E-13    0.62170655E-08

Total Energy:                     -193.2752292369 H        -5259.2866 eV
Extrapolated to 0K:               -193.2752292369 H        -5259.2866 eV
Total Mermin free energy:         -193.2752292369 H        -5259.2866 eV
Force related energy:             -193.2752292369 H        -5259.2866 eV

Volume:                              0.111861E+05 au^3   0.165762E+04 A^3
Pressure:                            0.768716E-07 au     0.226164E+07 Pa
>> Charges saved for restart in charges.bin

total energy  -1.9327523E+02 H       energy change -1.2757813E-06 H
gradient norm  7.4805037E-04 H/a0    max. gradient  1.3329652E-04 H/a0
step length    1.8449477E-02 a0      max. step      4.3616994E-03 a0

--------------------------------------------------------------------------------

***  Geometry step: 195

 iSCC Total electronic   Diff electronic      SCC error    
    1   -0.19518350E+03    0.00000000E+00    0.14595918E-03
    2   -0.19518344E+03    0.58083923E-04    0.59952227E-04
    3   -0.19518344E+03   -0.16493317E-07    0.18786359E-04
    4   -0.19518344E+03   -0.25848124E-08    0.34919054E-05
    5   -0.19518344E+03   -0.66762595E-10    0.10282760E-05
    6   -0.19518344E+03   -0.34390268E-11    0.24083602E-06
    7   -0.19518344E+03   -0.85265128E-13    0.32057015E-07
    8   -0.19518344E+03    0.56843419E-13    0.32774490E-08

Total Energy:                     -193.2752300368 H        -5259.2866 eV
Extrapolated to 0K:               -193.2752300368 H        -5259.2866 eV
Total Mermin free energy:         -193.2752300368 H        -5259.2866 eV
Force related energy:             -193.2752300368 H        -5259.2866 eV

Volume:                              0.111863E+05 au^3   0.165764E+04 A^3
Pressure:                            0.323572E-07 au     0.951983E+06 Pa
>> Charges saved for restart in charges.bin

total energy  -1.9327523E+02 H       energy change -7.9983977E-07 H
gradient norm  5.2797980E-04 H/a0    max. gradient  8.5481709E-05 H/a0
step length    3.1192862E-03 a0      max. step      6.6518544E-04 a0

Geometry converged

--------------------------------------------------------------------------------
DFTB+ running times                          cpu [s]             wall clock [s]
--------------------------------------------------------------------------------
Pre-SCC initialisation                 +       6.73 (  0.2%)       3.17 (  0.8%)
SCC                                    +    2677.59 ( 92.5%)     349.31 ( 90.6%)
Post-SCC processing                    +     211.43 (  7.3%)      32.91 (  8.5%)
--------------------------------------------------------------------------------
Missing                                +       0.09 (  0.0%)       0.01 (  0.0%)
Total                                  =    2895.84 (100.0%)     385.39 (100.0%)
--------------------------------------------------------------------------------
