|===============================================================================
|
|  DFTB+ release 24.1
|
|  Copyright (C) 2006 - 2024  DFTB+ developers group
|
|===============================================================================
|
|  When publishing results obtained with DFTB+, please cite the following
|  reference:
|
|  * DFTB+, a software package for efficient approximate density functional
|    theory based atomistic simulations, J. Chem. Phys. 152, 124101 (2020).
|    [doi: 10.1063/1.5143190]
|
|  You should also cite additional publications crediting the parametrization
|  data you use. Please consult the documentation of the SK-files for the
|  references.
|
|===============================================================================

Reading input file 'dftb_in.hsd'
Parser version: 14

--------------------------------------------------------------------------------
Reading SK-files:
./SKFiles/Si-Si.skf
./SKFiles/Si-Ge.skf
./SKFiles/Si-O.skf
./SKFiles/Ge-Ge.skf
./SKFiles/Ge-O.skf
./SKFiles/O-O.skf
Done.


Processed input in HSD format written to 'dftb_pin.hsd'

Starting initialization...
--------------------------------------------------------------------------------
WARNING!
-> Dipole printed for extended system : value printed is not well defined
MPI processes:               1
OpenMP threads:              8
BLACS orbital grid size:     1 x 1
BLACS atom grid size:        1 x 1
Chosen random seed:          157393554
Current stacksize:           unlimited
Mode:                        Static calculation
Self consistent charges:     Yes
SCC-tolerance:                 0.100000E-07
Max. scc iterations:                    500
Shell resolved Hubbard:      No
Spin polarisation:           No
Nr. of up electrons:           192.000000
Nr. of down electrons:         192.000000
Periodic boundaries:         Yes
Electronic solver:           Relatively robust
Mixer:                       Broyden mixer
Mixing parameter:                  0.200000
Maximal SCC-cycles:                     500
Nr. of chrg. vec. in memory:            500
Electronic temperature:              0.100000E-07 H      0.272114E-06 eV
Initial charges:             Set automatically (system chrg:   0.000E+00)
Included shells:            Si:  s, p, d
                            Ge:  s, p, d
                             O:  s, p
K-points and weights:           1:  0.500000  0.500000  0.500000     1.000000

K-points in absolute space:     1:  0.025319  0.017606  0.037774

Extra options:
                             Mulliken analysis
Force type                   original

--------------------------------------------------------------------------------

***  Geometry step: 0

 iSCC Total electronic   Diff electronic      SCC error    
    1    0.00000000E+00    0.00000000E+00    0.14347600E+01
    2   -0.19732504E+03   -0.19732504E+03    0.97189506E+00
    3   -0.19766777E+03   -0.34272884E+00    0.39400969E-01
    4   -0.19795661E+03   -0.28883565E+00    0.22973284E-01
    5   -0.19795815E+03   -0.15394769E-02    0.37022757E-02
    6   -0.19795825E+03   -0.10522330E-03    0.13428642E-02
    7   -0.19795825E+03   -0.22683514E-05    0.30053581E-03
    8   -0.19795825E+03   -0.57861996E-06    0.39249095E-04
    9   -0.19795825E+03   -0.32102378E-07    0.15552547E-04
   10   -0.19795825E+03   -0.25769964E-09    0.34300930E-05
   11   -0.19795825E+03   -0.45901061E-10    0.28289262E-06
   12   -0.19795825E+03   -0.39506176E-11    0.13899274E-06
   13   -0.19795825E+03   -0.28421709E-13    0.16366358E-07
   14   -0.19795825E+03    0.28421709E-13    0.19157245E-08

Total Energy:                     -190.4240461337 H        -5181.7019 eV
Extrapolated to 0K:               -190.4240461337 H        -5181.7019 eV
Total Mermin free energy:         -190.4240461337 H        -5181.7019 eV
Force related energy:             -190.4240461337 H        -5181.7019 eV

Volume:                              0.913789E+04 au^3   0.135410E+04 A^3
Pressure:                            0.249519E-02 au     0.734109E+11 Pa
>> Charges saved for restart in charges.bin

total energy  -1.9042405E+02 H       energy change -1.9042405E+02 H
gradient norm  2.3314444E+00 H/a0    max. gradient  1.3914758E+00 H/a0
step length    0.0000000E+00 a0      max. step      0.0000000E+00 a0

--------------------------------------------------------------------------------

***  Geometry step: 1

 iSCC Total electronic   Diff electronic      SCC error    
    1   -0.19795825E+03    0.00000000E+00    0.13932958E+00
    2   -0.19726268E+03    0.69557574E+00    0.62373737E-01
    3   -0.19727943E+03   -0.16750415E-01    0.20578740E-01
    4   -0.19728235E+03   -0.29201316E-02    0.21256243E-02
    5   -0.19728243E+03   -0.78082869E-04    0.89481616E-03
    6   -0.19728243E+03   -0.41224782E-05    0.23718918E-03
    7   -0.19728243E+03   -0.14738444E-06    0.33695182E-04
    8   -0.19728243E+03   -0.20815520E-07    0.96248541E-05
    9   -0.19728243E+03   -0.97097086E-09    0.36134400E-05
   10   -0.19728243E+03   -0.16314061E-10    0.83683020E-06
   11   -0.19728243E+03   -0.68212103E-12    0.14399731E-06
   12   -0.19728243E+03   -0.31263880E-12    0.23789648E-07
   13   -0.19728243E+03   -0.85265128E-13    0.26712343E-08

Total Energy:                     -191.1585164532 H        -5201.6879 eV
Extrapolated to 0K:               -191.1585164532 H        -5201.6879 eV
Total Mermin free energy:         -191.1585164532 H        -5201.6879 eV
Force related energy:             -191.1585164532 H        -5201.6879 eV

Volume:                              0.972448E+04 au^3   0.144102E+04 A^3
Pressure:                            0.176076E-02 au     0.518034E+11 Pa
>> Charges saved for restart in charges.bin

total energy  -1.9115852E+02 H       energy change -7.3447032E-01 H
gradient norm  1.5012086E+00 H/a0    max. gradient  2.7304546E-01 H/a0
step length    8.0827857E-01 a0      max. step      4.8240486E-01 a0

--------------------------------------------------------------------------------

***  Geometry step: 2

 iSCC Total electronic   Diff electronic      SCC error    
    1   -0.19728243E+03    0.00000000E+00    0.48455520E-01
    2   -0.19692656E+03    0.35586928E+00    0.25589226E-01
    3   -0.19692990E+03   -0.33330351E-02    0.67404470E-02
    4   -0.19693056E+03   -0.66645193E-03    0.83666369E-03
    5   -0.19693058E+03   -0.18975598E-04    0.24769733E-03
    6   -0.19693058E+03   -0.11348999E-05    0.11397746E-03
    7   -0.19693058E+03   -0.18588224E-07    0.26062421E-04
    8   -0.19693058E+03   -0.24261908E-08    0.57288230E-05
    9   -0.19693058E+03   -0.22291147E-09    0.13346095E-05
   10   -0.19693058E+03   -0.34674486E-11    0.37559140E-06
   11   -0.19693058E+03   -0.11368684E-12    0.59898504E-07
   12   -0.19693058E+03    0.28421709E-13    0.11804203E-07
   13   -0.19693058E+03   -0.11368684E-12    0.16159820E-08

Total Energy:                     -191.9649296596 H        -5223.6315 eV
Extrapolated to 0K:               -191.9649296596 H        -5223.6315 eV
Total Mermin free energy:         -191.9649296596 H        -5223.6315 eV
Force related energy:             -191.9649296596 H        -5223.6315 eV

Volume:                              0.988958E+04 au^3   0.146548E+04 A^3
Pressure:                            0.128690E-02 au     0.378619E+11 Pa
>> Charges saved for restart in charges.bin

total energy  -1.9196493E+02 H       energy change -8.0641321E-01 H
gradient norm  9.4916108E-01 H/a0    max. gradient  1.6733586E-01 H/a0
step length    7.4760506E-01 a0      max. step      1.5137872E-01 a0

--------------------------------------------------------------------------------

***  Geometry step: 3

 iSCC Total electronic   Diff electronic      SCC error    
    1   -0.19693058E+03    0.00000000E+00    0.69868661E-01
    2   -0.19654845E+03    0.38213150E+00    0.30231721E-01
    3   -0.19655302E+03   -0.45727792E-02    0.10770890E-01
    4   -0.19655384E+03   -0.81348305E-03    0.18614678E-02
    5   -0.19655388E+03   -0.37962711E-04    0.30408594E-03
    6   -0.19655388E+03   -0.21513246E-05    0.11556461E-03
    7   -0.19655388E+03   -0.39764899E-07    0.30493848E-04
    8   -0.19655388E+03   -0.34468997E-08    0.53915923E-05
    9   -0.19655388E+03   -0.38929215E-09    0.13429897E-05
   10   -0.19655388E+03   -0.11681323E-10    0.52180644E-06
   11   -0.19655388E+03   -0.25579538E-12    0.15782845E-06
   12   -0.19655388E+03    0.28421709E-13    0.24891472E-07
   13   -0.19655388E+03   -0.28421709E-13    0.30941942E-08

Total Energy:                     -192.5064022635 H        -5238.3657 eV
Extrapolated to 0K:               -192.5064022635 H        -5238.3657 eV
Total Mermin free energy:         -192.5064022635 H        -5238.3657 eV
Force related energy:             -192.5064022635 H        -5238.3657 eV

Volume:                              0.100239E+05 au^3   0.148539E+04 A^3
Pressure:                            0.919158E-03 au     0.270426E+11 Pa
>> Charges saved for restart in charges.bin

total energy  -1.9250640E+02 H       energy change -5.4147260E-01 H
gradient norm  5.9265948E-01 H/a0    max. gradient  1.5107877E-01 H/a0
step length    7.8272536E-01 a0      max. step      1.7769871E-01 a0

--------------------------------------------------------------------------------

***  Geometry step: 4

 iSCC Total electronic   Diff electronic      SCC error    
    1   -0.19655388E+03    0.00000000E+00    0.64953839E-01
    2   -0.19616272E+03    0.39115579E+00    0.35573658E-01
    3   -0.19616528E+03   -0.25625864E-02    0.65067903E-02
    4   -0.19616587E+03   -0.59071890E-03    0.88493514E-03
    5   -0.19616591E+03   -0.33031726E-04    0.28777302E-03
    6   -0.19616591E+03   -0.13046358E-05    0.94724166E-04
    7   -0.19616591E+03   -0.25319594E-07    0.33106876E-04
    8   -0.19616591E+03   -0.20380355E-08    0.85415817E-05
    9   -0.19616591E+03   -0.28180125E-09    0.20336331E-05
   10   -0.19616591E+03   -0.68780537E-11    0.32770487E-06
   11   -0.19616591E+03   -0.62527761E-12    0.97491391E-07
   12   -0.19616591E+03    0.00000000E+00    0.26288535E-07
   13   -0.19616591E+03   -0.28421709E-13    0.32586382E-08

Total Energy:                     -192.8131574364 H        -5246.7130 eV
Extrapolated to 0K:               -192.8131574364 H        -5246.7130 eV
Total Mermin free energy:         -192.8131574364 H        -5246.7130 eV
Force related energy:             -192.8131574364 H        -5246.7130 eV

Volume:                              0.101611E+05 au^3   0.150572E+04 A^3
Pressure:                            0.639379E-03 au     0.188112E+11 Pa
>> Charges saved for restart in charges.bin

total energy  -1.9281316E+02 H       energy change -3.0675517E-01 H
gradient norm  4.4776454E-01 H/a0    max. gradient  2.5100877E-01 H/a0
step length    7.2862939E-01 a0      max. step      1.4448187E-01 a0

--------------------------------------------------------------------------------

***  Geometry step: 5

 iSCC Total electronic   Diff electronic      SCC error    
    1   -0.19616591E+03    0.00000000E+00    0.65007712E-01
    2   -0.19573113E+03    0.43478098E+00    0.40000690E-01
    3   -0.19573307E+03   -0.19425368E-02    0.70927207E-02
    4   -0.19573353E+03   -0.45681226E-03    0.12752760E-02
    5   -0.19573356E+03   -0.29253556E-04    0.28954545E-03
    6   -0.19573356E+03   -0.76900315E-06    0.10139229E-03
    7   -0.19573356E+03   -0.15860195E-07    0.36927413E-04
    8   -0.19573356E+03   -0.12942962E-08    0.92432264E-05
    9   -0.19573356E+03   -0.14537704E-09    0.23476646E-05
   10   -0.19573356E+03   -0.73896445E-11    0.24513743E-06
   11   -0.19573356E+03   -0.48316906E-12    0.37764670E-07
   12   -0.19573356E+03   -0.17053026E-12    0.99975805E-08

Total Energy:                     -192.9918645650 H        -5251.5758 eV
Extrapolated to 0K:               -192.9918645650 H        -5251.5758 eV
Total Mermin free energy:         -192.9918645650 H        -5251.5758 eV
Force related energy:             -192.9918645650 H        -5251.5758 eV

Volume:                              0.103636E+05 au^3   0.153573E+04 A^3
Pressure:                            0.386689E-03 au     0.113768E+11 Pa
>> Charges saved for restart in charges.bin

total energy  -1.9299186E+02 H       energy change -1.7870713E-01 H
gradient norm  3.1643051E-01 H/a0    max. gradient  1.6897239E-01 H/a0
step length    6.9325117E-01 a0      max. step      2.3793538E-01 a0

--------------------------------------------------------------------------------

***  Geometry step: 6

 iSCC Total electronic   Diff electronic      SCC error    
    1   -0.19573356E+03    0.00000000E+00    0.48703455E-01
    2   -0.19540605E+03    0.32750642E+00    0.26812951E-01
    3   -0.19540743E+03   -0.13825811E-02    0.44466427E-02
    4   -0.19540772E+03   -0.28708043E-03    0.77861358E-03
    5   -0.19540773E+03   -0.14128011E-04    0.22181734E-03
    6   -0.19540774E+03   -0.57673134E-06    0.88111832E-04
    7   -0.19540774E+03   -0.77757534E-08    0.23751535E-04
    8   -0.19540774E+03   -0.65205086E-09    0.58037269E-05
    9   -0.19540774E+03   -0.10265921E-09    0.13107085E-05
   10   -0.19540774E+03   -0.37800874E-11    0.17444107E-06
   11   -0.19540774E+03   -0.39790393E-12    0.30289050E-07
   12   -0.19540774E+03    0.56843419E-13    0.70604083E-08

Total Energy:                     -193.0750115510 H        -5253.8384 eV
Extrapolated to 0K:               -193.0750115510 H        -5253.8384 eV
Total Mermin free energy:         -193.0750115510 H        -5253.8384 eV
Force related energy:             -193.0750115510 H        -5253.8384 eV

Volume:                              0.105178E+05 au^3   0.155858E+04 A^3
Pressure:                            0.222626E-03 au     0.654987E+10 Pa
>> Charges saved for restart in charges.bin

total energy  -1.9307501E+02 H       energy change -8.3146986E-02 H
gradient norm  1.9217423E-01 H/a0    max. gradient  9.5578851E-02 H/a0
step length    5.5744044E-01 a0      max. step      1.1931773E-01 a0

--------------------------------------------------------------------------------

***  Geometry step: 7

 iSCC Total electronic   Diff electronic      SCC error    
    1   -0.19540774E+03    0.00000000E+00    0.40452846E-01
    2   -0.19520923E+03    0.19850601E+00    0.17962082E-01
    3   -0.19521021E+03   -0.98317557E-03    0.35930257E-02
    4   -0.19521039E+03   -0.17276894E-03    0.57683913E-03
    5   -0.19521039E+03   -0.51890591E-05    0.22976082E-03
    6   -0.19521039E+03   -0.23552732E-06    0.82566794E-04
    7   -0.19521039E+03   -0.50459050E-08    0.19861740E-04
    8   -0.19521039E+03   -0.41490011E-09    0.39218065E-05
    9   -0.19521039E+03   -0.50476956E-10    0.89026696E-06
   10   -0.19521039E+03   -0.26147973E-11    0.17353902E-06
   11   -0.19521039E+03   -0.17053026E-12    0.16324019E-07
   12   -0.19521039E+03    0.28421709E-13    0.33981280E-08

Total Energy:                     -193.1127459887 H        -5254.8652 eV
Extrapolated to 0K:               -193.1127459887 H        -5254.8652 eV
Total Mermin free energy:         -193.1127459887 H        -5254.8652 eV
Force related energy:             -193.1127459887 H        -5254.8652 eV

Volume:                              0.106072E+05 au^3   0.157182E+04 A^3
Pressure:                            0.132082E-03 au     0.388600E+10 Pa
>> Charges saved for restart in charges.bin

total energy  -1.9311275E+02 H       energy change -3.7734438E-02 H
gradient norm  1.5053129E-01 H/a0    max. gradient  6.4595970E-02 H/a0
step length    4.4938723E-01 a0      max. step      8.3839519E-02 a0

--------------------------------------------------------------------------------

***  Geometry step: 8

 iSCC Total electronic   Diff electronic      SCC error    
    1   -0.19521039E+03    0.00000000E+00    0.19324980E-01
    2   -0.19510548E+03    0.10491468E+00    0.78038011E-02
    3   -0.19510576E+03   -0.28235229E-03    0.21089790E-02
    4   -0.19510581E+03   -0.53087774E-04    0.36185251E-03
    5   -0.19510581E+03   -0.14841586E-05    0.84616568E-04
    6   -0.19510581E+03   -0.81930722E-07    0.18766200E-04
    7   -0.19510581E+03   -0.42893475E-08    0.80620946E-05
    8   -0.19510581E+03   -0.16274271E-09    0.26741485E-05
    9   -0.19510581E+03   -0.78443918E-11    0.74861477E-06
   10   -0.19510581E+03   -0.85265128E-12    0.10642158E-06
   11   -0.19510581E+03   -0.28421709E-13    0.14915066E-07
   12   -0.19510581E+03    0.00000000E+00    0.31197906E-08

Total Energy:                     -193.1362416352 H        -5255.5045 eV
Extrapolated to 0K:               -193.1362416352 H        -5255.5045 eV
Total Mermin free energy:         -193.1362416352 H        -5255.5045 eV
Force related energy:             -193.1362416352 H        -5255.5045 eV

Volume:                              0.106653E+05 au^3   0.158043E+04 A^3
Pressure:                            0.789796E-04 au     0.232366E+10 Pa
>> Charges saved for restart in charges.bin

total energy  -1.9313624E+02 H       energy change -2.3495647E-02 H
gradient norm  1.1040693E-01 H/a0    max. gradient  2.5796254E-02 H/a0
step length    3.5493743E-01 a0      max. step      6.9480707E-02 a0

--------------------------------------------------------------------------------

***  Geometry step: 9

 iSCC Total electronic   Diff electronic      SCC error    
    1   -0.19510581E+03    0.00000000E+00    0.22082634E-01
    2   -0.19508729E+03    0.18526210E-01    0.12835907E-01
    3   -0.19508758E+03   -0.28893069E-03    0.31964765E-02
    4   -0.19508763E+03   -0.49413047E-04    0.36075396E-03
    5   -0.19508763E+03   -0.18786756E-05    0.64762037E-04
    6   -0.19508763E+03   -0.18583040E-06    0.23265010E-04
    7   -0.19508763E+03   -0.23974280E-08    0.66914196E-05
    8   -0.19508763E+03   -0.82195584E-10    0.15434959E-05
    9   -0.19508763E+03   -0.53148597E-11    0.29455644E-06
   10   -0.19508763E+03   -0.88107299E-12    0.83243360E-07
   11   -0.19508763E+03   -0.85265128E-13    0.17789743E-07
   12   -0.19508763E+03    0.00000000E+00    0.10749179E-08

Total Energy:                     -193.1579471403 H        -5256.0952 eV
Extrapolated to 0K:               -193.1579471403 H        -5256.0952 eV
Total Mermin free energy:         -193.1579471403 H        -5256.0952 eV
Force related energy:             -193.1579471403 H        -5256.0952 eV

Volume:                              0.106906E+05 au^3   0.158418E+04 A^3
Pressure:                            0.581217E-04 au     0.171000E+10 Pa
>> Charges saved for restart in charges.bin

total energy  -1.9315795E+02 H       energy change -2.1705505E-02 H
gradient norm  9.3397800E-02 H/a0    max. gradient  1.7573527E-02 H/a0
step length    3.6856055E-01 a0      max. step      7.6347107E-02 a0

--------------------------------------------------------------------------------

***  Geometry step: 10

 iSCC Total electronic   Diff electronic      SCC error    
    1   -0.19508763E+03    0.00000000E+00    0.29795011E-01
    2   -0.19512922E+03   -0.41588756E-01    0.17194434E-01
    3   -0.19512976E+03   -0.54059099E-03    0.28523016E-02
    4   -0.19512987E+03   -0.11578816E-03    0.45726813E-03
    5   -0.19512988E+03   -0.59471624E-05    0.17988707E-03
    6   -0.19512988E+03   -0.20363316E-06    0.63563655E-04
    7   -0.19512988E+03   -0.62468928E-08    0.10721761E-04
    8   -0.19512988E+03   -0.27651481E-09    0.24397923E-05
    9   -0.19512988E+03   -0.25096369E-10    0.42018531E-06
   10   -0.19512988E+03   -0.31832315E-11    0.10455832E-06
   11   -0.19512988E+03   -0.11368684E-12    0.14994986E-07
   12   -0.19512988E+03    0.56843419E-13    0.29498706E-08

Total Energy:                     -193.1771923757 H        -5256.6189 eV
Extrapolated to 0K:               -193.1771923757 H        -5256.6189 eV
Total Mermin free energy:         -193.1771923757 H        -5256.6189 eV
Force related energy:             -193.1771923757 H        -5256.6189 eV

Volume:                              0.107011E+05 au^3   0.158574E+04 A^3
Pressure:                            0.628239E-04 au     0.184834E+10 Pa
>> Charges saved for restart in charges.bin

total energy  -1.9317719E+02 H       energy change -1.9245235E-02 H
gradient norm  1.0064893E-01 H/a0    max. gradient  4.2110392E-02 H/a0
step length    4.3189739E-01 a0      max. step      7.5789618E-02 a0

--------------------------------------------------------------------------------

***  Geometry step: 11

 iSCC Total electronic   Diff electronic      SCC error    
    1   -0.19512988E+03    0.00000000E+00    0.23348252E-01
    2   -0.19517759E+03   -0.47707196E-01    0.13831401E-01
    3   -0.19517808E+03   -0.49691127E-03    0.29551361E-02
    4   -0.19517818E+03   -0.93027500E-04    0.53646368E-03
    5   -0.19517818E+03   -0.48615954E-05    0.19754535E-03
    6   -0.19517818E+03   -0.28504124E-06    0.69864222E-04
    7   -0.19517818E+03   -0.69182704E-08    0.12408517E-04
    8   -0.19517818E+03   -0.30462388E-09    0.20552934E-05
    9   -0.19517818E+03   -0.28762770E-10    0.28802557E-06
   10   -0.19517818E+03   -0.35527137E-11    0.63434943E-07
   11   -0.19517818E+03   -0.14210855E-12    0.13965479E-07
   12   -0.19517818E+03    0.28421709E-13    0.24912290E-08

Total Energy:                     -193.1875752507 H        -5256.9014 eV
Extrapolated to 0K:               -193.1875752507 H        -5256.9014 eV
Total Mermin free energy:         -193.1875752507 H        -5256.9014 eV
Force related energy:             -193.1875752507 H        -5256.9014 eV

Volume:                              0.107043E+05 au^3   0.158622E+04 A^3
Pressure:                            0.722590E-04 au     0.212593E+10 Pa
>> Charges saved for restart in charges.bin

total energy  -1.9318758E+02 H       energy change -1.0382875E-02 H
gradient norm  9.3865230E-02 H/a0    max. gradient  3.0630155E-02 H/a0
step length    3.2457877E-01 a0      max. step      4.6193933E-02 a0

--------------------------------------------------------------------------------

***  Geometry step: 12

 iSCC Total electronic   Diff electronic      SCC error    
    1   -0.19517818E+03    0.00000000E+00    0.17478363E-01
    2   -0.19519921E+03   -0.21033222E-01    0.10418812E-01
    3   -0.19519934E+03   -0.12874508E-03    0.16297042E-02
    4   -0.19519937E+03   -0.31553410E-04    0.39728302E-03
    5   -0.19519938E+03   -0.17569978E-05    0.14655728E-03
    6   -0.19519938E+03   -0.43186361E-07    0.39338184E-04
    7   -0.19519938E+03   -0.13356782E-08    0.37722164E-05
    8   -0.19519938E+03   -0.15396040E-09    0.85240379E-06
    9   -0.19519938E+03   -0.79580786E-11    0.23265662E-06
   10   -0.19519938E+03   -0.42632564E-12    0.37552698E-07
   11   -0.19519938E+03   -0.85265128E-13    0.40561772E-08

Total Energy:                     -193.1962179053 H        -5257.1366 eV
Extrapolated to 0K:               -193.1962179053 H        -5257.1366 eV
Total Mermin free energy:         -193.1962179053 H        -5257.1366 eV
Force related energy:             -193.1962179053 H        -5257.1366 eV

Volume:                              0.107226E+05 au^3   0.158892E+04 A^3
Pressure:                            0.731423E-04 au     0.215192E+10 Pa
>> Charges saved for restart in charges.bin

total energy  -1.9319622E+02 H       energy change -8.6426546E-03 H
gradient norm  7.3436659E-02 H/a0    max. gradient  1.5736069E-02 H/a0
step length    2.4445167E-01 a0      max. step      3.8764359E-02 a0

--------------------------------------------------------------------------------

***  Geometry step: 13

 iSCC Total electronic   Diff electronic      SCC error    
    1   -0.19519938E+03    0.00000000E+00    0.21355424E-01
    2   -0.19520887E+03   -0.94918607E-02    0.12291143E-01
    3   -0.19520904E+03   -0.17481995E-03    0.21683464E-02
    4   -0.19520909E+03   -0.45225479E-04    0.49530346E-03
    5   -0.19520909E+03   -0.23519236E-05    0.15904409E-03
    6   -0.19520909E+03   -0.73265824E-07    0.39145359E-04
    7   -0.19520909E+03   -0.17051605E-08    0.39145420E-05
    8   -0.19520909E+03   -0.18260948E-09    0.91020462E-06
    9   -0.19520909E+03   -0.17763568E-10    0.17214796E-06
   10   -0.19520909E+03   -0.48316906E-12    0.33554608E-07
   11   -0.19520909E+03   -0.85265128E-13    0.62016157E-08

Total Energy:                     -193.2068164391 H        -5257.4250 eV
Extrapolated to 0K:               -193.2068164391 H        -5257.4250 eV
Total Mermin free energy:         -193.2068164391 H        -5257.4250 eV
Force related energy:             -193.2068164391 H        -5257.4250 eV

Volume:                              0.107632E+05 au^3   0.159494E+04 A^3
Pressure:                            0.688516E-04 au     0.202568E+10 Pa
>> Charges saved for restart in charges.bin

total energy  -1.9320682E+02 H       energy change -1.0598534E-02 H
gradient norm  6.4356941E-02 H/a0    max. gradient  1.5821121E-02 H/a0
step length    3.2266692E-01 a0      max. step      5.7737289E-02 a0

--------------------------------------------------------------------------------

***  Geometry step: 14

 iSCC Total electronic   Diff electronic      SCC error    
    1   -0.19520909E+03    0.00000000E+00    0.14580881E-01
    2   -0.19519042E+03    0.18669750E-01    0.87378342E-02
    3   -0.19519052E+03   -0.96460820E-04    0.18845545E-02
    4   -0.19519054E+03   -0.24417205E-04    0.44038945E-03
    5   -0.19519054E+03   -0.12035290E-05    0.13022269E-03
    6   -0.19519054E+03   -0.45449042E-07    0.29845670E-04
    7   -0.19519054E+03   -0.13967565E-08    0.38278795E-05
    8   -0.19519054E+03   -0.13559998E-09    0.74639323E-06
    9   -0.19519054E+03   -0.11652901E-10    0.23042051E-06
   10   -0.19519054E+03   -0.48316906E-12    0.37391067E-07
   11   -0.19519054E+03   -0.11368684E-12    0.43190576E-08

Total Energy:                     -193.2139005759 H        -5257.6177 eV
Extrapolated to 0K:               -193.2139005759 H        -5257.6177 eV
Total Mermin free energy:         -193.2139005759 H        -5257.6177 eV
Force related energy:             -193.2139005759 H        -5257.6177 eV

Volume:                              0.108155E+05 au^3   0.160269E+04 A^3
Pressure:                            0.554634E-04 au     0.163179E+10 Pa
>> Charges saved for restart in charges.bin

total energy  -1.9321390E+02 H       energy change -7.0841368E-03 H
gradient norm  6.0678486E-02 H/a0    max. gradient  1.2337669E-02 H/a0
step length    2.8197093E-01 a0      max. step      4.8540931E-02 a0

--------------------------------------------------------------------------------

***  Geometry step: 15

 iSCC Total electronic   Diff electronic      SCC error    
    1   -0.19519054E+03    0.00000000E+00    0.95031796E-02
    2   -0.19516291E+03    0.27633514E-01    0.59694729E-02
    3   -0.19516296E+03   -0.48620588E-04    0.16319501E-02
    4   -0.19516297E+03   -0.10100676E-04    0.31352726E-03
    5   -0.19516297E+03   -0.58070455E-06    0.10877282E-03
    6   -0.19516297E+03   -0.26549145E-07    0.23339756E-04
    7   -0.19516297E+03   -0.92504138E-09    0.27255817E-05
    8   -0.19516297E+03   -0.98992814E-10    0.62375566E-06
    9   -0.19516297E+03   -0.53148597E-11    0.21635443E-06
   10   -0.19516297E+03   -0.11368684E-12    0.26923804E-07
   11   -0.19516297E+03   -0.85265128E-13    0.34075462E-08

Total Energy:                     -193.2191034890 H        -5257.7593 eV
Extrapolated to 0K:               -193.2191034890 H        -5257.7593 eV
Total Mermin free energy:         -193.2191034890 H        -5257.7593 eV
Force related energy:             -193.2191034890 H        -5257.7593 eV

Volume:                              0.108682E+05 au^3   0.161050E+04 A^3
Pressure:                            0.389021E-04 au     0.114454E+10 Pa
>> Charges saved for restart in charges.bin

total energy  -1.9321910E+02 H       energy change -5.2029130E-03 H
gradient norm  5.2626466E-02 H/a0    max. gradient  9.7644378E-03 H/a0
step length    2.5901612E-01 a0      max. step      4.9284588E-02 a0

--------------------------------------------------------------------------------

***  Geometry step: 16

 iSCC Total electronic   Diff electronic      SCC error    
    1   -0.19516297E+03    0.00000000E+00    0.67724115E-02
    2   -0.19514194E+03    0.21029912E-01    0.42485735E-02
    3   -0.19514198E+03   -0.45298690E-04    0.14830412E-02
    4   -0.19514199E+03   -0.76008530E-05    0.31286774E-03
    5   -0.19514199E+03   -0.36979125E-06    0.99142687E-04
    6   -0.19514199E+03   -0.23871991E-07    0.21543386E-04
    7   -0.19514199E+03   -0.91989705E-09    0.28904573E-05
    8   -0.19514199E+03   -0.74066975E-10    0.43906060E-06
    9   -0.19514199E+03   -0.50306426E-11    0.11821964E-06
   10   -0.19514199E+03   -0.22737368E-12    0.29158394E-07
   11   -0.19514199E+03    0.28421709E-13    0.29955034E-08

Total Energy:                     -193.2238737276 H        -5257.8891 eV
Extrapolated to 0K:               -193.2238737276 H        -5257.8891 eV
Total Mermin free energy:         -193.2238737276 H        -5257.8891 eV
Force related energy:             -193.2238737276 H        -5257.8891 eV

Volume:                              0.109161E+05 au^3   0.161760E+04 A^3
Pressure:                            0.250195E-04 au     0.736099E+09 Pa
>> Charges saved for restart in charges.bin

total energy  -1.9322387E+02 H       energy change -4.7702386E-03 H
gradient norm  4.9375147E-02 H/a0    max. gradient  9.6845231E-03 H/a0
step length    2.5854906E-01 a0      max. step      5.1818309E-02 a0

--------------------------------------------------------------------------------

***  Geometry step: 17

 iSCC Total electronic   Diff electronic      SCC error    
    1   -0.19514199E+03    0.00000000E+00    0.11225707E-01
    2   -0.19513973E+03    0.22614414E-02    0.65514931E-02
    3   -0.19513979E+03   -0.60108548E-04    0.16134171E-02
    4   -0.19513980E+03   -0.10036249E-04    0.25415970E-03
    5   -0.19513980E+03   -0.52757579E-06    0.10039445E-03
    6   -0.19513980E+03   -0.27346317E-07    0.27896712E-04
    7   -0.19513980E+03   -0.77821483E-09    0.37009714E-05
    8   -0.19513980E+03   -0.73299589E-10    0.81006375E-06
    9   -0.19513980E+03   -0.48032689E-11    0.19293876E-06
   10   -0.19513980E+03   -0.31263880E-12    0.33786378E-07
   11   -0.19513980E+03   -0.56843419E-13    0.39654013E-08

Total Energy:                     -193.2288313447 H        -5258.0240 eV
Extrapolated to 0K:               -193.2288313447 H        -5258.0240 eV
Total Mermin free energy:         -193.2288313447 H        -5258.0240 eV
Force related energy:             -193.2288313447 H        -5258.0240 eV

Volume:                              0.109558E+05 au^3   0.162348E+04 A^3
Pressure:                            0.185824E-04 au     0.546712E+09 Pa
>> Charges saved for restart in charges.bin

total energy  -1.9322883E+02 H       energy change -4.9576172E-03 H
gradient norm  5.3603334E-02 H/a0    max. gradient  1.0493350E-02 H/a0
step length    2.7851705E-01 a0      max. step      5.6205422E-02 a0

--------------------------------------------------------------------------------

***  Geometry step: 18

 iSCC Total electronic   Diff electronic      SCC error    
    1   -0.19513980E+03    0.00000000E+00    0.14860249E-01
    2   -0.19515433E+03   -0.14526130E-01    0.87184899E-02
    3   -0.19515441E+03   -0.79285859E-04    0.22967611E-02
    4   -0.19515442E+03   -0.12337192E-04    0.19769687E-03
    5   -0.19515442E+03   -0.67289861E-06    0.44451822E-04
    6   -0.19515442E+03   -0.37220133E-07    0.16192568E-04
    7   -0.19515442E+03   -0.86316732E-09    0.39407679E-05
    8   -0.19515442E+03   -0.35981884E-10    0.14142417E-05
    9   -0.19515442E+03   -0.21884716E-11    0.32926570E-06
   10   -0.19515442E+03   -0.34106051E-12    0.40063402E-07
   11   -0.19515442E+03   -0.56843419E-13    0.44099258E-08

Total Energy:                     -193.2337478986 H        -5258.1578 eV
Extrapolated to 0K:               -193.2337478986 H        -5258.1578 eV
Total Mermin free energy:         -193.2337478986 H        -5258.1578 eV
Force related energy:             -193.2337478986 H        -5258.1578 eV

Volume:                              0.109856E+05 au^3   0.162790E+04 A^3
Pressure:                            0.207249E-04 au     0.609746E+09 Pa
>> Charges saved for restart in charges.bin

total energy  -1.9323375E+02 H       energy change -4.9165539E-03 H
gradient norm  5.3601355E-02 H/a0    max. gradient  1.0529451E-02 H/a0
step length    2.8919643E-01 a0      max. step      5.6002128E-02 a0

--------------------------------------------------------------------------------

***  Geometry step: 19

 iSCC Total electronic   Diff electronic      SCC error    
    1   -0.19515442E+03    0.00000000E+00    0.14295205E-01
    2   -0.19517511E+03   -0.20689608E-01    0.83895144E-02
    3   -0.19517522E+03   -0.11278274E-03    0.25972188E-02
    4   -0.19517524E+03   -0.15496094E-04    0.23607443E-03
    5   -0.19517524E+03   -0.73932171E-06    0.45504045E-04
    6   -0.19517524E+03   -0.46272106E-07    0.18511851E-04
    7   -0.19517524E+03   -0.10940653E-08    0.51261519E-05
    8   -0.19517524E+03   -0.38937742E-10    0.17197704E-05
    9   -0.19517524E+03   -0.24442670E-11    0.35481852E-06
   10   -0.19517524E+03   -0.34106051E-12    0.35655879E-07
   11   -0.19517524E+03   -0.28421709E-13    0.56852438E-08

Total Energy:                     -193.2384894100 H        -5258.2868 eV
Extrapolated to 0K:               -193.2384894100 H        -5258.2868 eV
Total Mermin free energy:         -193.2384894100 H        -5258.2868 eV
Force related energy:             -193.2384894100 H        -5258.2868 eV

Volume:                              0.110144E+05 au^3   0.163217E+04 A^3
Pressure:                            0.259025E-04 au     0.762078E+09 Pa
>> Charges saved for restart in charges.bin

total energy  -1.9323849E+02 H       energy change -4.7415113E-03 H
gradient norm  4.8910036E-02 H/a0    max. gradient  1.0322810E-02 H/a0
step length    3.1593988E-01 a0      max. step      5.7511452E-02 a0

--------------------------------------------------------------------------------

***  Geometry step: 20

 iSCC Total electronic   Diff electronic      SCC error    
    1   -0.19517524E+03    0.00000000E+00    0.10322216E-01
    2   -0.19518838E+03   -0.13144691E-01    0.50172373E-02
    3   -0.19518849E+03   -0.10876900E-03    0.17135458E-02
    4   -0.19518850E+03   -0.12195891E-04    0.31265842E-03
    5   -0.19518850E+03   -0.51366314E-06    0.90078977E-04
    6   -0.19518850E+03   -0.37179603E-07    0.27953562E-04
    7   -0.19518850E+03   -0.10575150E-08    0.42767300E-05
    8   -0.19518850E+03   -0.66279426E-10    0.99204761E-06
    9   -0.19518850E+03   -0.44622084E-11    0.29063749E-06
   10   -0.19518850E+03   -0.36948222E-12    0.34437524E-07
   11   -0.19518850E+03   -0.56843419E-13    0.48650031E-08

Total Energy:                     -193.2428170510 H        -5258.4046 eV
Extrapolated to 0K:               -193.2428170510 H        -5258.4046 eV
Total Mermin free energy:         -193.2428170510 H        -5258.4046 eV
Force related energy:             -193.2428170510 H        -5258.4046 eV

Volume:                              0.110474E+05 au^3   0.163706E+04 A^3
Pressure:                            0.279144E-04 au     0.821271E+09 Pa
>> Charges saved for restart in charges.bin

total energy  -1.9324282E+02 H       energy change -4.3276410E-03 H
gradient norm  4.4607864E-02 H/a0    max. gradient  9.0550886E-03 H/a0
step length    3.1666386E-01 a0      max. step      5.7465695E-02 a0

--------------------------------------------------------------------------------

***  Geometry step: 21

 iSCC Total electronic   Diff electronic      SCC error    
    1   -0.19518850E+03    0.00000000E+00    0.10793173E-01
    2   -0.19519281E+03   -0.43051027E-02    0.54271402E-02
    3   -0.19519294E+03   -0.13049208E-03    0.22449744E-02
    4   -0.19519296E+03   -0.15548054E-04    0.45401620E-03
    5   -0.19519296E+03   -0.76031026E-06    0.11957278E-03
    6   -0.19519296E+03   -0.45201887E-07    0.27587249E-04
    7   -0.19519296E+03   -0.13574493E-08    0.30426576E-05
    8   -0.19519296E+03   -0.14597390E-09    0.99533557E-06
    9   -0.19519296E+03   -0.73612227E-11    0.29371292E-06
   10   -0.19519296E+03   -0.59685590E-12    0.33986492E-07
   11   -0.19519296E+03    0.85265128E-13    0.62206347E-08

Total Energy:                     -193.2470944102 H        -5258.5210 eV
Extrapolated to 0K:               -193.2470944102 H        -5258.5210 eV
Total Mermin free energy:         -193.2470944102 H        -5258.5210 eV
Force related energy:             -193.2470944102 H        -5258.5210 eV

Volume:                              0.110877E+05 au^3   0.164303E+04 A^3
Pressure:                            0.259533E-04 au     0.763573E+09 Pa
>> Charges saved for restart in charges.bin

total energy  -1.9324709E+02 H       energy change -4.2773593E-03 H
gradient norm  4.2523718E-02 H/a0    max. gradient  9.1535094E-03 H/a0
step length    3.3904863E-01 a0      max. step      5.9551907E-02 a0

--------------------------------------------------------------------------------

***  Geometry step: 22

 iSCC Total electronic   Diff electronic      SCC error    
    1   -0.19519296E+03    0.00000000E+00    0.93035655E-02
    2   -0.19518644E+03    0.65175794E-02    0.51113202E-02
    3   -0.19518650E+03   -0.63391112E-04    0.15280744E-02
    4   -0.19518651E+03   -0.10134033E-04    0.33455323E-03
    5   -0.19518651E+03   -0.58673103E-06    0.10834136E-03
    6   -0.19518651E+03   -0.25864722E-07    0.19570353E-04
    7   -0.19518651E+03   -0.85154284E-09    0.22771442E-05
    8   -0.19518651E+03   -0.94956931E-10    0.43298992E-06
    9   -0.19518651E+03   -0.42916781E-11    0.10628955E-06
   10   -0.19518651E+03   -0.31263880E-12    0.21671395E-07
   11   -0.19518651E+03    0.00000000E+00    0.26549114E-08

Total Energy:                     -193.2497828321 H        -5258.5941 eV
Extrapolated to 0K:               -193.2497828321 H        -5258.5941 eV
Total Mermin free energy:         -193.2497828321 H        -5258.5941 eV
Force related energy:             -193.2497828321 H        -5258.5941 eV

Volume:                              0.111239E+05 au^3   0.164840E+04 A^3
Pressure:                            0.215219E-04 au     0.633197E+09 Pa
>> Charges saved for restart in charges.bin

total energy  -1.9324978E+02 H       energy change -2.6884218E-03 H
gradient norm  3.7869041E-02 H/a0    max. gradient  8.6703289E-03 H/a0
step length    2.5499536E-01 a0      max. step      4.6014541E-02 a0

--------------------------------------------------------------------------------

***  Geometry step: 23

 iSCC Total electronic   Diff electronic      SCC error    
    1   -0.19518651E+03    0.00000000E+00    0.73273973E-02
    2   -0.19517280E+03    0.13713634E-01    0.43574287E-02
    3   -0.19517283E+03   -0.28355944E-04    0.85993208E-03
    4   -0.19517283E+03   -0.60969049E-05    0.16207145E-03
    5   -0.19517283E+03   -0.29224856E-06    0.59798273E-04
    6   -0.19517283E+03   -0.87011358E-08    0.14046456E-04
    7   -0.19517283E+03   -0.31863578E-09    0.22656818E-05
    8   -0.19517283E+03   -0.27739588E-10    0.46742979E-06
    9   -0.19517283E+03   -0.23305802E-11    0.11081738E-06
   10   -0.19517283E+03   -0.19895197E-12    0.18429482E-07
   11   -0.19517283E+03    0.28421709E-13    0.34098524E-08

Total Energy:                     -193.2513488736 H        -5258.6368 eV
Extrapolated to 0K:               -193.2513488736 H        -5258.6368 eV
Total Mermin free energy:         -193.2513488736 H        -5258.6368 eV
Force related energy:             -193.2513488736 H        -5258.6368 eV

Volume:                              0.111541E+05 au^3   0.165287E+04 A^3
Pressure:                            0.146418E-04 au     0.430776E+09 Pa
>> Charges saved for restart in charges.bin

total energy  -1.9325135E+02 H       energy change -1.5660415E-03 H
gradient norm  2.8164101E-02 H/a0    max. gradient  7.7491295E-03 H/a0
step length    1.6092447E-01 a0      max. step      2.8782239E-02 a0

--------------------------------------------------------------------------------

***  Geometry step: 24

 iSCC Total electronic   Diff electronic      SCC error    
    1   -0.19517283E+03    0.00000000E+00    0.54922041E-02
    2   -0.19516356E+03    0.92761253E-02    0.31788392E-02
    3   -0.19516358E+03   -0.23285358E-04    0.78052868E-03
    4   -0.19516359E+03   -0.42453971E-05    0.10435563E-03
    5   -0.19516359E+03   -0.14378807E-06    0.24512718E-04
    6   -0.19516359E+03   -0.71667330E-08    0.81856187E-05
    7   -0.19516359E+03   -0.12269652E-09    0.23674962E-05
    8   -0.19516359E+03   -0.33537617E-11    0.42608849E-06
    9   -0.19516359E+03   -0.73896445E-12    0.58565737E-07
   10   -0.19516359E+03    0.28421709E-13    0.79265550E-08

Total Energy:                     -193.2522955391 H        -5258.6625 eV
Extrapolated to 0K:               -193.2522955391 H        -5258.6625 eV
Total Mermin free energy:         -193.2522955391 H        -5258.6625 eV
Force related energy:             -193.2522955391 H        -5258.6625 eV

Volume:                              0.111742E+05 au^3   0.165584E+04 A^3
Pressure:                            0.966803E-05 au     0.284443E+09 Pa
>> Charges saved for restart in charges.bin

total energy  -1.9325230E+02 H       energy change -9.4666554E-04 H
gradient norm  2.1324990E-02 H/a0    max. gradient  5.9297854E-03 H/a0
step length    9.4587328E-02 a0      max. step      1.9333969E-02 a0

--------------------------------------------------------------------------------

***  Geometry step: 25

 iSCC Total electronic   Diff electronic      SCC error    
    1   -0.19516359E+03    0.00000000E+00    0.32248606E-02
    2   -0.19516220E+03    0.13908690E-02    0.16941213E-02
    3   -0.19516221E+03   -0.11249278E-04    0.50556786E-03
    4   -0.19516221E+03   -0.15808446E-05    0.73151100E-04
    5   -0.19516221E+03   -0.55543836E-07    0.23956449E-04
    6   -0.19516221E+03   -0.34170000E-08    0.79306986E-05
    7   -0.19516221E+03   -0.62073013E-10    0.10420544E-05
    8   -0.19516221E+03   -0.35527137E-11    0.20901855E-06
    9   -0.19516221E+03   -0.22737368E-12    0.47685817E-07
   10   -0.19516221E+03   -0.11368684E-12    0.11818290E-07
   11   -0.19516221E+03    0.14210855E-12    0.16078907E-08

Total Energy:                     -193.2529316322 H        -5258.6798 eV
Extrapolated to 0K:               -193.2529316322 H        -5258.6798 eV
Total Mermin free energy:         -193.2529316322 H        -5258.6798 eV
Force related energy:             -193.2529316322 H        -5258.6798 eV

Volume:                              0.111869E+05 au^3   0.165773E+04 A^3
Pressure:                            0.802453E-05 au     0.236090E+09 Pa
>> Charges saved for restart in charges.bin

total energy  -1.9325293E+02 H       energy change -6.3609308E-04 H
gradient norm  2.2502776E-02 H/a0    max. gradient  6.3367735E-03 H/a0
step length    6.2882403E-02 a0      max. step      1.6082886E-02 a0

--------------------------------------------------------------------------------

***  Geometry step: 26

 iSCC Total electronic   Diff electronic      SCC error    
    1   -0.19516221E+03    0.00000000E+00    0.59331297E-02
    2   -0.19516584E+03   -0.36335963E-02    0.30314962E-02
    3   -0.19516587E+03   -0.28149797E-04    0.86216534E-03
    4   -0.19516587E+03   -0.40986845E-05    0.16380978E-03
    5   -0.19516587E+03   -0.19131190E-06    0.54160606E-04
    6   -0.19516587E+03   -0.84494616E-08    0.14016020E-04
    7   -0.19516587E+03   -0.18545165E-09    0.14182173E-05
    8   -0.19516587E+03   -0.18673063E-10    0.33475431E-06
    9   -0.19516587E+03   -0.11368684E-11    0.10837891E-06
   10   -0.19516587E+03    0.85265128E-13    0.15547055E-07
   11   -0.19516587E+03   -0.28421709E-13    0.16664119E-08

Total Energy:                     -193.2539306654 H        -5258.7070 eV
Extrapolated to 0K:               -193.2539306654 H        -5258.7070 eV
Total Mermin free energy:         -193.2539306654 H        -5258.7070 eV
Force related energy:             -193.2539306654 H        -5258.7070 eV

Volume:                              0.112093E+05 au^3   0.166105E+04 A^3
Pressure:                            0.775019E-05 au     0.228018E+09 Pa
>> Charges saved for restart in charges.bin

total energy  -1.9325393E+02 H       energy change -9.9903320E-04 H
gradient norm  2.4228508E-02 H/a0    max. gradient  5.4386074E-03 H/a0
step length    1.2091023E-01 a0      max. step      3.1458298E-02 a0

--------------------------------------------------------------------------------

***  Geometry step: 27

 iSCC Total electronic   Diff electronic      SCC error    
    1   -0.19516587E+03    0.00000000E+00    0.54397623E-02
    2   -0.19517183E+03   -0.59602647E-02    0.27708493E-02
    3   -0.19517186E+03   -0.23978449E-04    0.92467041E-03
    4   -0.19517186E+03   -0.36761413E-05    0.15388856E-03
    5   -0.19517186E+03   -0.18868329E-06    0.47901834E-04
    6   -0.19517186E+03   -0.69889552E-08    0.99948177E-05
    7   -0.19517186E+03   -0.18141577E-09    0.14016500E-05
    8   -0.19517186E+03   -0.13812951E-10    0.35165468E-06
    9   -0.19517186E+03   -0.12789769E-11    0.91773648E-07
   10   -0.19517186E+03   -0.28421709E-13    0.14571272E-07
   11   -0.19517186E+03    0.28421709E-13    0.25381697E-08

Total Energy:                     -193.2547838644 H        -5258.7302 eV
Extrapolated to 0K:               -193.2547838644 H        -5258.7302 eV
Total Mermin free energy:         -193.2547838644 H        -5258.7302 eV
Force related energy:             -193.2547838644 H        -5258.7302 eV

Volume:                              0.112341E+05 au^3   0.166472E+04 A^3
Pressure:                            0.824844E-05 au     0.242678E+09 Pa
>> Charges saved for restart in charges.bin

total energy  -1.9325478E+02 H       energy change -8.5319898E-04 H
gradient norm  2.2657356E-02 H/a0    max. gradient  5.9319927E-03 H/a0
step length    1.3654821E-01 a0      max. step      3.5272189E-02 a0

--------------------------------------------------------------------------------

***  Geometry step: 28

 iSCC Total electronic   Diff electronic      SCC error    
    1   -0.19517186E+03    0.00000000E+00    0.47024107E-02
    2   -0.19517802E+03   -0.61614207E-02    0.26237784E-02
    3   -0.19517805E+03   -0.21720532E-04    0.88246580E-03
    4   -0.19517805E+03   -0.34417994E-05    0.15169758E-03
    5   -0.19517805E+03   -0.16943588E-06    0.45905410E-04
    6   -0.19517805E+03   -0.61065464E-08    0.90348119E-05
    7   -0.19517805E+03   -0.19039703E-09    0.14187186E-05
    8   -0.19517805E+03   -0.13130830E-10    0.33756163E-06
    9   -0.19517805E+03   -0.16484591E-11    0.93975270E-07
   10   -0.19517805E+03    0.00000000E+00    0.12535122E-07
   11   -0.19517805E+03   -0.56843419E-13    0.29893097E-08

Total Energy:                     -193.2555381648 H        -5258.7508 eV
Extrapolated to 0K:               -193.2555381648 H        -5258.7508 eV
Total Mermin free energy:         -193.2555381648 H        -5258.7508 eV
Force related energy:             -193.2555381648 H        -5258.7508 eV

Volume:                              0.112596E+05 au^3   0.166849E+04 A^3
Pressure:                            0.915288E-05 au     0.269287E+09 Pa
>> Charges saved for restart in charges.bin

total energy  -1.9325554E+02 H       energy change -7.5430047E-04 H
gradient norm  1.8403355E-02 H/a0    max. gradient  3.4306180E-03 H/a0
step length    1.4472020E-01 a0      max. step      3.5502162E-02 a0

--------------------------------------------------------------------------------

***  Geometry step: 29

 iSCC Total electronic   Diff electronic      SCC error    
    1   -0.19517805E+03    0.00000000E+00    0.35298623E-02
    2   -0.19517963E+03   -0.15823957E-02    0.19904344E-02
    3   -0.19517964E+03   -0.11234662E-04    0.61984995E-03
    4   -0.19517964E+03   -0.17584012E-05    0.10770220E-03
    5   -0.19517964E+03   -0.78319317E-07    0.35049644E-04
    6   -0.19517964E+03   -0.25599149E-08    0.53980650E-05
    7   -0.19517964E+03   -0.74294348E-10    0.79405384E-06
    8   -0.19517964E+03   -0.57696070E-11    0.17707978E-06
    9   -0.19517964E+03   -0.59685590E-12    0.37915997E-07
   10   -0.19517964E+03   -0.56843419E-13    0.47771245E-08

Total Energy:                     -193.2560392566 H        -5258.7644 eV
Extrapolated to 0K:               -193.2560392566 H        -5258.7644 eV
Total Mermin free energy:         -193.2560392566 H        -5258.7644 eV
Force related energy:             -193.2560392566 H        -5258.7644 eV

Volume:                              0.112789E+05 au^3   0.167136E+04 A^3
Pressure:                            0.874191E-05 au     0.257196E+09 Pa
>> Charges saved for restart in charges.bin

total energy  -1.9325604E+02 H       energy change -5.0109181E-04 H
gradient norm  1.5514391E-02 H/a0    max. gradient  4.2169287E-03 H/a0
step length    1.0735818E-01 a0      max. step      2.5315003E-02 a0

--------------------------------------------------------------------------------

***  Geometry step: 30

 iSCC Total electronic   Diff electronic      SCC error    
    1   -0.19517964E+03    0.00000000E+00    0.32132457E-02
    2   -0.19517826E+03    0.13796598E-02    0.18115926E-02
    3   -0.19517827E+03   -0.58634705E-05    0.38498650E-03
    4   -0.19517827E+03   -0.10165121E-05    0.55137032E-04
    5   -0.19517827E+03   -0.44852811E-07    0.21262296E-04
    6   -0.19517827E+03   -0.10608971E-08    0.52615122E-05
    7   -0.19517827E+03   -0.22197355E-10    0.77139248E-06
    8   -0.19517827E+03   -0.20463631E-11    0.14244023E-06
    9   -0.19517827E+03   -0.25579538E-12    0.41717174E-07
   10   -0.19517827E+03    0.56843419E-13    0.45697224E-08

Total Energy:                     -193.2563880019 H        -5258.7739 eV
Extrapolated to 0K:               -193.2563880019 H        -5258.7739 eV
Total Mermin free energy:         -193.2563880019 H        -5258.7739 eV
Force related energy:             -193.2563880019 H        -5258.7739 eV

Volume:                              0.112906E+05 au^3   0.167310E+04 A^3
Pressure:                            0.771248E-05 au     0.226909E+09 Pa
>> Charges saved for restart in charges.bin

total energy  -1.9325639E+02 H       energy change -3.4874527E-04 H
gradient norm  1.4080225E-02 H/a0    max. gradient  4.5616518E-03 H/a0
step length    6.8971708E-02 a0      max. step      1.4684241E-02 a0

--------------------------------------------------------------------------------

***  Geometry step: 31

 iSCC Total electronic   Diff electronic      SCC error    
    1   -0.19517827E+03    0.00000000E+00    0.34706616E-02
    2   -0.19517447E+03    0.38049272E-02    0.19613826E-02
    3   -0.19517447E+03   -0.44084196E-05    0.32428155E-03
    4   -0.19517447E+03   -0.85373401E-06    0.33510569E-04
    5   -0.19517447E+03   -0.43119940E-07    0.92116240E-05
    6   -0.19517447E+03   -0.10643646E-08    0.24044484E-05
    7   -0.19517447E+03   -0.22197355E-10    0.70849626E-06
    8   -0.19517447E+03   -0.88107299E-12    0.18787168E-06
    9   -0.19517447E+03   -0.56843419E-13    0.46648340E-07
   10   -0.19517447E+03    0.28421709E-13    0.70392390E-08

Total Energy:                     -193.2567078940 H        -5258.7826 eV
Extrapolated to 0K:               -193.2567078940 H        -5258.7826 eV
Total Mermin free energy:         -193.2567078940 H        -5258.7826 eV
Force related energy:             -193.2567078940 H        -5258.7826 eV

Volume:                              0.112998E+05 au^3   0.167446E+04 A^3
Pressure:                            0.581201E-05 au     0.170995E+09 Pa
>> Charges saved for restart in charges.bin

total energy  -1.9325671E+02 H       energy change -3.1989209E-04 H
gradient norm  1.4131334E-02 H/a0    max. gradient  3.9575659E-03 H/a0
step length    6.2314529E-02 a0      max. step      1.3047809E-02 a0

--------------------------------------------------------------------------------

***  Geometry step: 32

 iSCC Total electronic   Diff electronic      SCC error    
    1   -0.19517447E+03    0.00000000E+00    0.27579296E-02
    2   -0.19517093E+03    0.35399215E-02    0.15516738E-02
    3   -0.19517094E+03   -0.36954653E-05    0.29228703E-03
    4   -0.19517094E+03   -0.70977310E-06    0.39697926E-04
    5   -0.19517094E+03   -0.33780765E-07    0.79960971E-05
    6   -0.19517094E+03   -0.13012880E-08    0.24712396E-05
    7   -0.19517094E+03   -0.25295321E-10    0.75553718E-06
    8   -0.19517094E+03   -0.96633812E-12    0.22166575E-06
    9   -0.19517094E+03    0.00000000E+00    0.52175707E-07
   10   -0.19517094E+03   -0.28421709E-13    0.69493149E-08

Total Energy:                     -193.2570682521 H        -5258.7924 eV
Extrapolated to 0K:               -193.2570682521 H        -5258.7924 eV
Total Mermin free energy:         -193.2570682521 H        -5258.7924 eV
Force related energy:             -193.2570682521 H        -5258.7924 eV

Volume:                              0.113083E+05 au^3   0.167571E+04 A^3
Pressure:                            0.382724E-05 au     0.112601E+09 Pa
>> Charges saved for restart in charges.bin

total energy  -1.9325707E+02 H       energy change -3.6035810E-04 H
gradient norm  1.5567717E-02 H/a0    max. gradient  3.1554761E-03 H/a0
step length    7.3968888E-02 a0      max. step      1.6909793E-02 a0

--------------------------------------------------------------------------------

***  Geometry step: 33

 iSCC Total electronic   Diff electronic      SCC error    
    1   -0.19517094E+03    0.00000000E+00    0.26555120E-02
    2   -0.19516867E+03    0.22642900E-02    0.15619709E-02
    3   -0.19516868E+03   -0.60436736E-05    0.40999521E-03
    4   -0.19516868E+03   -0.11091929E-05    0.46433990E-04
    5   -0.19516868E+03   -0.46067129E-07    0.13447054E-04
    6   -0.19516868E+03   -0.24664075E-08    0.39884436E-05
    7   -0.19516868E+03   -0.51016968E-10    0.10947330E-05
    8   -0.19516868E+03   -0.21884716E-11    0.22163971E-06
    9   -0.19516868E+03   -0.22737368E-12    0.33956573E-07
   10   -0.19516868E+03    0.28421709E-13    0.62757333E-08

Total Energy:                     -193.2575927404 H        -5258.8067 eV
Extrapolated to 0K:               -193.2575927404 H        -5258.8067 eV
Total Mermin free energy:         -193.2575927404 H        -5258.8067 eV
Force related energy:             -193.2575927404 H        -5258.8067 eV

Volume:                              0.113196E+05 au^3   0.167739E+04 A^3
Pressure:                            0.216897E-05 au     0.638132E+08 Pa
>> Charges saved for restart in charges.bin

total energy  -1.9325759E+02 H       energy change -5.2448833E-04 H
gradient norm  1.8662338E-02 H/a0    max. gradient  3.4113820E-03 H/a0
step length    1.1917255E-01 a0      max. step      2.8184179E-02 a0

--------------------------------------------------------------------------------

***  Geometry step: 34

 iSCC Total electronic   Diff electronic      SCC error    
    1   -0.19516868E+03    0.00000000E+00    0.32078105E-02
    2   -0.19516969E+03   -0.10154471E-02    0.18215725E-02
    3   -0.19516970E+03   -0.83400612E-05    0.49254630E-03
    4   -0.19516970E+03   -0.13752406E-05    0.70950923E-04
    5   -0.19516970E+03   -0.52301004E-07    0.21041539E-04
    6   -0.19516970E+03   -0.24875533E-08    0.44339493E-05
    7   -0.19516970E+03   -0.64346750E-10    0.10644197E-05
    8   -0.19516970E+03   -0.21884716E-11    0.20566663E-06
    9   -0.19516970E+03   -0.42632564E-12    0.42517576E-07
   10   -0.19516970E+03   -0.56843419E-13    0.48683333E-08

Total Energy:                     -193.2582637922 H        -5258.8249 eV
Extrapolated to 0K:               -193.2582637922 H        -5258.8249 eV
Total Mermin free energy:         -193.2582637922 H        -5258.8249 eV
Force related energy:             -193.2582637922 H        -5258.8249 eV

Volume:                              0.113344E+05 au^3   0.167958E+04 A^3
Pressure:                            0.168382E-05 au     0.495396E+08 Pa
>> Charges saved for restart in charges.bin

total energy  -1.9325826E+02 H       energy change -6.7105176E-04 H
gradient norm  2.0719525E-02 H/a0    max. gradient  4.0774044E-03 H/a0
step length    1.6900532E-01 a0      max. step      3.9370884E-02 a0

--------------------------------------------------------------------------------

***  Geometry step: 35

 iSCC Total electronic   Diff electronic      SCC error    
    1   -0.19516970E+03    0.00000000E+00    0.40985709E-02
    2   -0.19517437E+03   -0.46666320E-02    0.19456624E-02
    3   -0.19517438E+03   -0.11976855E-04    0.53817864E-03
    4   -0.19517439E+03   -0.18907988E-05    0.89242868E-04
    5   -0.19517439E+03   -0.68222732E-07    0.29408804E-04
    6   -0.19517439E+03   -0.24746498E-08    0.67831710E-05
    7   -0.19517439E+03   -0.49197979E-10    0.73512183E-06
    8   -0.19517439E+03   -0.31832315E-11    0.19445774E-06
    9   -0.19517439E+03   -0.42632564E-12    0.45469723E-07
   10   -0.19517439E+03   -0.11368684E-12    0.69097288E-08

Total Energy:                     -193.2589771427 H        -5258.8443 eV
Extrapolated to 0K:               -193.2589771427 H        -5258.8443 eV
Total Mermin free energy:         -193.2589771427 H        -5258.8443 eV
Force related energy:             -193.2589771427 H        -5258.8443 eV

Volume:                              0.113514E+05 au^3   0.168211E+04 A^3
Pressure:                            0.215457E-05 au     0.633897E+08 Pa
>> Charges saved for restart in charges.bin

total energy  -1.9325898E+02 H       energy change -7.1335050E-04 H
gradient norm  1.9298926E-02 H/a0    max. gradient  5.2757311E-03 H/a0
step length    2.0361699E-01 a0      max. step      4.5662881E-02 a0

--------------------------------------------------------------------------------

***  Geometry step: 36

 iSCC Total electronic   Diff electronic      SCC error    
    1   -0.19517439E+03    0.00000000E+00    0.45933810E-02
    2   -0.19518190E+03   -0.75169862E-02    0.25215599E-02
    3   -0.19518192E+03   -0.12740406E-04    0.59992531E-03
    4   -0.19518192E+03   -0.20908086E-05    0.72547508E-04
    5   -0.19518192E+03   -0.66478975E-07    0.23529533E-04
    6   -0.19518192E+03   -0.26410021E-08    0.77857530E-05
    7   -0.19518192E+03   -0.53773874E-10    0.14859524E-05
    8   -0.19518192E+03   -0.29558578E-11    0.32397333E-06
    9   -0.19518192E+03   -0.34106051E-12    0.50940103E-07
   10   -0.19518192E+03    0.28421709E-13    0.61097438E-08

Total Energy:                     -193.2595318351 H        -5258.8594 eV
Extrapolated to 0K:               -193.2595318351 H        -5258.8594 eV
Total Mermin free energy:         -193.2595318351 H        -5258.8594 eV
Force related energy:             -193.2595318351 H        -5258.8594 eV

Volume:                              0.113652E+05 au^3   0.168415E+04 A^3
Pressure:                            0.404021E-05 au     0.118867E+09 Pa
>> Charges saved for restart in charges.bin

total energy  -1.9325953E+02 H       energy change -5.5469237E-04 H
gradient norm  1.5866054E-02 H/a0    max. gradient  5.9638233E-03 H/a0
step length    1.7757923E-01 a0      max. step      3.7708934E-02 a0

--------------------------------------------------------------------------------

***  Geometry step: 37

 iSCC Total electronic   Diff electronic      SCC error    
    1   -0.19518192E+03    0.00000000E+00    0.31965632E-02
    2   -0.19518751E+03   -0.55883430E-02    0.17942170E-02
    3   -0.19518751E+03   -0.94113465E-05    0.48103404E-03
    4   -0.19518752E+03   -0.16325098E-05    0.58005379E-04
    5   -0.19518752E+03   -0.48115709E-07    0.12491544E-04
    6   -0.19518752E+03   -0.26270186E-08    0.45417379E-05
    7   -0.19518752E+03   -0.70201622E-10    0.12828802E-05
    8   -0.19518752E+03   -0.17053026E-11    0.34116484E-06
    9   -0.19518752E+03   -0.19895197E-12    0.59845894E-07
   10   -0.19518752E+03    0.28421709E-13    0.65091821E-08

Total Energy:                     -193.2599439058 H        -5258.8706 eV
Extrapolated to 0K:               -193.2599439058 H        -5258.8706 eV
Total Mermin free energy:         -193.2599439058 H        -5258.8706 eV
Force related energy:             -193.2599439058 H        -5258.8706 eV

Volume:                              0.113754E+05 au^3   0.168566E+04 A^3
Pressure:                            0.558790E-05 au     0.164402E+09 Pa
>> Charges saved for restart in charges.bin

total energy  -1.9325994E+02 H       energy change -4.1207077E-04 H
gradient norm  1.4933573E-02 H/a0    max. gradient  5.5563742E-03 H/a0
step length    1.3270588E-01 a0      max. step      2.6956592E-02 a0

--------------------------------------------------------------------------------

***  Geometry step: 38

 iSCC Total electronic   Diff electronic      SCC error    
    1   -0.19518752E+03    0.00000000E+00    0.39682412E-02
    2   -0.19519028E+03   -0.27625884E-02    0.23086691E-02
    3   -0.19519029E+03   -0.94888016E-05    0.60261861E-03
    4   -0.19519029E+03   -0.17023661E-05    0.67170802E-04
    5   -0.19519029E+03   -0.56890542E-07    0.10767305E-04
    6   -0.19519029E+03   -0.35218761E-08    0.41132786E-05
    7   -0.19519029E+03   -0.94502184E-10    0.12402068E-05
    8   -0.19519029E+03   -0.18189894E-11    0.32630403E-06
    9   -0.19519029E+03   -0.11368684E-12    0.58746426E-07
   10   -0.19519029E+03   -0.28421709E-13    0.74605557E-08

Total Energy:                     -193.2603795650 H        -5258.8825 eV
Extrapolated to 0K:               -193.2603795650 H        -5258.8825 eV
Total Mermin free energy:         -193.2603795650 H        -5258.8825 eV
Force related energy:             -193.2603795650 H        -5258.8825 eV

Volume:                              0.113853E+05 au^3   0.168712E+04 A^3
Pressure:                            0.599113E-05 au     0.176265E+09 Pa
>> Charges saved for restart in charges.bin

total energy  -1.9326038E+02 H       energy change -4.3565913E-04 H
gradient norm  1.6319127E-02 H/a0    max. gradient  4.5077817E-03 H/a0
step length    1.3039721E-01 a0      max. step      2.6610589E-02 a0

--------------------------------------------------------------------------------

***  Geometry step: 39

 iSCC Total electronic   Diff electronic      SCC error    
    1   -0.19519029E+03    0.00000000E+00    0.57920613E-02
    2   -0.19518992E+03    0.37188148E-03    0.33484828E-02
    3   -0.19518994E+03   -0.16957661E-04    0.87873325E-03
    4   -0.19518994E+03   -0.27832197E-05    0.82233600E-04
    5   -0.19518994E+03   -0.11470360E-06    0.15031788E-04
    6   -0.19518994E+03   -0.60230150E-08    0.60706367E-05
    7   -0.19518994E+03   -0.12920509E-09    0.17788205E-05
    8   -0.19518994E+03   -0.40643044E-11    0.41685196E-06
    9   -0.19518994E+03   -0.22737368E-12    0.67902546E-07
   10   -0.19518994E+03   -0.11368684E-12    0.12062280E-07
   11   -0.19518994E+03    0.56843419E-13    0.21118294E-08

Total Energy:                     -193.2609156695 H        -5258.8971 eV
Extrapolated to 0K:               -193.2609156695 H        -5258.8971 eV
Total Mermin free energy:         -193.2609156695 H        -5258.8971 eV
Force related energy:             -193.2609156695 H        -5258.8971 eV

Volume:                              0.113956E+05 au^3   0.168865E+04 A^3
Pressure:                            0.507244E-05 au     0.149236E+09 Pa
>> Charges saved for restart in charges.bin

total energy  -1.9326092E+02 H       energy change -5.3610453E-04 H
gradient norm  1.8688445E-02 H/a0    max. gradient  3.7888212E-03 H/a0
step length    1.5789338E-01 a0      max. step      3.3506693E-02 a0

--------------------------------------------------------------------------------

***  Geometry step: 40

 iSCC Total electronic   Diff electronic      SCC error    
    1   -0.19518994E+03    0.00000000E+00    0.50559723E-02
    2   -0.19518750E+03    0.24335922E-02    0.28851609E-02
    3   -0.19518752E+03   -0.14269712E-04    0.72602657E-03
    4   -0.19518752E+03   -0.21218663E-05    0.69046624E-04
    5   -0.19518752E+03   -0.11336596E-06    0.20181172E-04
    6   -0.19518752E+03   -0.43834518E-08    0.75735134E-05
    7   -0.19518752E+03   -0.62556182E-10    0.16119837E-05
    8   -0.19518752E+03   -0.36948222E-11    0.28309477E-06
    9   -0.19518752E+03   -0.45474735E-12    0.58123978E-07
   10   -0.19518752E+03    0.85265128E-13    0.10450536E-07
   11   -0.19518752E+03   -0.14210855E-12    0.12781349E-08

Total Energy:                     -193.2614492563 H        -5258.9116 eV
Extrapolated to 0K:               -193.2614492563 H        -5258.9116 eV
Total Mermin free energy:         -193.2614492563 H        -5258.9116 eV
Force related energy:             -193.2614492563 H        -5258.9116 eV

Volume:                              0.114039E+05 au^3   0.168988E+04 A^3
Pressure:                            0.340755E-05 au     0.100254E+09 Pa
>> Charges saved for restart in charges.bin

total energy  -1.9326145E+02 H       energy change -5.3358675E-04 H
gradient norm  1.7383762E-02 H/a0    max. gradient  3.5303634E-03 H/a0
step length    1.6011903E-01 a0      max. step      3.3889372E-02 a0

--------------------------------------------------------------------------------

***  Geometry step: 41

 iSCC Total electronic   Diff electronic      SCC error    
    1   -0.19518752E+03    0.00000000E+00    0.37597030E-02
    2   -0.19518488E+03    0.26462148E-02    0.19979497E-02
    3   -0.19518489E+03   -0.14257321E-04    0.62783413E-03
    4   -0.19518489E+03   -0.17899785E-05    0.62512740E-04
    5   -0.19518489E+03   -0.92625783E-07    0.17867488E-04
    6   -0.19518489E+03   -0.31636489E-08    0.58301561E-05
    7   -0.19518489E+03   -0.45446313E-10    0.15233941E-05
    8   -0.19518489E+03   -0.24158453E-11    0.23653515E-06
    9   -0.19518489E+03   -0.42632564E-12    0.46456802E-07
   10   -0.19518489E+03   -0.85265128E-13    0.61246181E-08

Total Energy:                     -193.2619189740 H        -5258.9244 eV
Extrapolated to 0K:               -193.2619189740 H        -5258.9244 eV
Total Mermin free energy:         -193.2619189740 H        -5258.9244 eV
Force related energy:             -193.2619189740 H        -5258.9244 eV

Volume:                              0.114097E+05 au^3   0.169074E+04 A^3
Pressure:                            0.183753E-05 au     0.540621E+08 Pa
>> Charges saved for restart in charges.bin

total energy  -1.9326192E+02 H       energy change -4.6971773E-04 H
gradient norm  1.4758164E-02 H/a0    max. gradient  3.0492642E-03 H/a0
step length    1.4778465E-01 a0      max. step      3.3963619E-02 a0

--------------------------------------------------------------------------------

***  Geometry step: 42

 iSCC Total electronic   Diff electronic      SCC error    
    1   -0.19518489E+03    0.00000000E+00    0.30259832E-02
    2   -0.19518515E+03   -0.26262972E-03    0.16031129E-02
    3   -0.19518516E+03   -0.87279421E-05    0.43194062E-03
    4   -0.19518516E+03   -0.11538008E-05    0.50457873E-04
    5   -0.19518516E+03   -0.41634138E-07    0.77842315E-05
    6   -0.19518516E+03   -0.21210269E-08    0.23672644E-05
    7   -0.19518516E+03   -0.37715608E-10    0.69599437E-06
    8   -0.19518516E+03   -0.96633812E-12    0.21080830E-06
    9   -0.19518516E+03   -0.14210855E-12    0.59975043E-07
   10   -0.19518516E+03    0.11368684E-12    0.10222931E-07
   11   -0.19518516E+03   -0.85265128E-13    0.10622476E-08

Total Energy:                     -193.2622805304 H        -5258.9342 eV
Extrapolated to 0K:               -193.2622805304 H        -5258.9342 eV
Total Mermin free energy:         -193.2622805304 H        -5258.9342 eV
Force related energy:             -193.2622805304 H        -5258.9342 eV

Volume:                              0.114135E+05 au^3   0.169131E+04 A^3
Pressure:                            0.176365E-05 au     0.518883E+08 Pa
>> Charges saved for restart in charges.bin

total energy  -1.9326228E+02 H       energy change -3.6155641E-04 H
gradient norm  1.4132817E-02 H/a0    max. gradient  3.1236977E-03 H/a0
step length    1.1483792E-01 a0      max. step      2.5988537E-02 a0

--------------------------------------------------------------------------------

***  Geometry step: 43

 iSCC Total electronic   Diff electronic      SCC error    
    1   -0.19518516E+03    0.00000000E+00    0.37862687E-02
    2   -0.19518700E+03   -0.18338485E-02    0.22441035E-02
    3   -0.19518701E+03   -0.95530741E-05    0.65971308E-03
    4   -0.19518701E+03   -0.15327269E-05    0.67562639E-04
    5   -0.19518701E+03   -0.55556342E-07    0.85428252E-05
    6   -0.19518701E+03   -0.28713600E-08    0.23795091E-05
    7   -0.19518701E+03   -0.62783556E-10    0.60402318E-06
    8   -0.19518701E+03   -0.14779289E-11    0.14865489E-06
    9   -0.19518701E+03    0.00000000E+00    0.22375063E-07
   10   -0.19518701E+03   -0.28421709E-13    0.49347948E-08

Total Energy:                     -193.2626499135 H        -5258.9443 eV
Extrapolated to 0K:               -193.2626499135 H        -5258.9443 eV
Total Mermin free energy:         -193.2626499135 H        -5258.9443 eV
Force related energy:             -193.2626499135 H        -5258.9443 eV

Volume:                              0.114188E+05 au^3   0.169209E+04 A^3
Pressure:                            0.206891E-05 au     0.608693E+08 Pa
>> Charges saved for restart in charges.bin

total energy  -1.9326265E+02 H       energy change -3.6938315E-04 H
gradient norm  1.4276642E-02 H/a0    max. gradient  3.5028019E-03 H/a0
step length    1.2465645E-01 a0      max. step      2.5971851E-02 a0

--------------------------------------------------------------------------------

***  Geometry step: 44

 iSCC Total electronic   Diff electronic      SCC error    
    1   -0.19518701E+03    0.00000000E+00    0.47358039E-02
    2   -0.19519053E+03   -0.35180217E-02    0.28067714E-02
    3   -0.19519054E+03   -0.96191919E-05    0.73855112E-03
    4   -0.19519054E+03   -0.16504714E-05    0.72749662E-04
    5   -0.19519054E+03   -0.67296895E-07    0.11573192E-04
    6   -0.19519054E+03   -0.35667824E-08    0.23263036E-05
    7   -0.19519054E+03   -0.81797680E-10    0.55635962E-06
    8   -0.19519054E+03   -0.15347723E-11    0.17520300E-06
    9   -0.19519054E+03   -0.85265128E-13    0.43159762E-07
   10   -0.19519054E+03   -0.11368684E-12    0.97436321E-08

Total Energy:                     -193.2629878281 H        -5258.9535 eV
Extrapolated to 0K:               -193.2629878281 H        -5258.9535 eV
Total Mermin free energy:         -193.2629878281 H        -5258.9535 eV
Force related energy:             -193.2629878281 H        -5258.9535 eV

Volume:                              0.114254E+05 au^3   0.169307E+04 A^3
Pressure:                            0.312806E-05 au     0.920307E+08 Pa
>> Charges saved for restart in charges.bin

total energy  -1.9326299E+02 H       energy change -3.3791453E-04 H
gradient norm  1.3528167E-02 H/a0    max. gradient  2.9644422E-03 H/a0
step length    1.3638163E-01 a0      max. step      2.5193172E-02 a0

--------------------------------------------------------------------------------

***  Geometry step: 45

 iSCC Total electronic   Diff electronic      SCC error    
    1   -0.19519054E+03    0.00000000E+00    0.30782868E-02
    2   -0.19519328E+03   -0.27432191E-02    0.18701136E-02
    3   -0.19519329E+03   -0.80093267E-05    0.56140169E-03
    4   -0.19519329E+03   -0.12307183E-05    0.47843847E-04
    5   -0.19519329E+03   -0.52174443E-07    0.82290764E-05
    6   -0.19519329E+03   -0.27173712E-08    0.26724423E-05
    7   -0.19519329E+03   -0.59685590E-10    0.75824241E-06
    8   -0.19519329E+03   -0.16200374E-11    0.24614983E-06
    9   -0.19519329E+03   -0.85265128E-13    0.57184023E-07
   10   -0.19519329E+03   -0.56843419E-13    0.72369746E-08

Total Energy:                     -193.2632600186 H        -5258.9609 eV
Extrapolated to 0K:               -193.2632600186 H        -5258.9609 eV
Total Mermin free energy:         -193.2632600186 H        -5258.9609 eV
Force related energy:             -193.2632600186 H        -5258.9609 eV

Volume:                              0.114321E+05 au^3   0.169406E+04 A^3
Pressure:                            0.372559E-05 au     0.109610E+09 Pa
>> Charges saved for restart in charges.bin

total energy  -1.9326326E+02 H       energy change -2.7219048E-04 H
gradient norm  1.1740242E-02 H/a0    max. gradient  3.0379749E-03 H/a0
step length    1.2819024E-01 a0      max. step      2.3193149E-02 a0

--------------------------------------------------------------------------------

***  Geometry step: 46

 iSCC Total electronic   Diff electronic      SCC error    
    1   -0.19519329E+03    0.00000000E+00    0.28670547E-02
    2   -0.19519524E+03   -0.19473011E-02    0.17321227E-02
    3   -0.19519524E+03   -0.65195873E-05    0.52971613E-03
    4   -0.19519525E+03   -0.91278216E-06    0.55075277E-04
    5   -0.19519525E+03   -0.40531177E-07    0.14109872E-04
    6   -0.19519525E+03   -0.22416771E-08    0.56456118E-05
    7   -0.19519525E+03   -0.50306426E-10    0.84953415E-06
    8   -0.19519525E+03   -0.19610980E-11    0.18668051E-06
    9   -0.19519525E+03   -0.14210855E-12    0.49139282E-07
   10   -0.19519525E+03   -0.56843419E-13    0.63912475E-08

Total Energy:                     -193.2634971821 H        -5258.9673 eV
Extrapolated to 0K:               -193.2634971821 H        -5258.9673 eV
Total Mermin free energy:         -193.2634971821 H        -5258.9673 eV
Force related energy:             -193.2634971821 H        -5258.9673 eV

Volume:                              0.114372E+05 au^3   0.169482E+04 A^3
Pressure:                            0.425274E-05 au     0.125120E+09 Pa
>> Charges saved for restart in charges.bin

total energy  -1.9326350E+02 H       energy change -2.3716359E-04 H
gradient norm  1.1209979E-02 H/a0    max. gradient  3.2041057E-03 H/a0
step length    1.1266923E-01 a0      max. step      2.1741704E-02 a0

--------------------------------------------------------------------------------

***  Geometry step: 47

 iSCC Total electronic   Diff electronic      SCC error    
    1   -0.19519525E+03    0.00000000E+00    0.29527842E-02
    2   -0.19519523E+03    0.10592270E-04    0.17739653E-02
    3   -0.19519524E+03   -0.67722995E-05    0.50022136E-03
    4   -0.19519524E+03   -0.99006027E-06    0.69149601E-04
    5   -0.19519524E+03   -0.47998839E-07    0.20553035E-04
    6   -0.19519524E+03   -0.28246632E-08    0.72964243E-05
    7   -0.19519524E+03   -0.53290705E-10    0.73468248E-06
    8   -0.19519524E+03   -0.28990144E-11    0.13985129E-06
    9   -0.19519524E+03   -0.56843419E-13    0.33328659E-07
   10   -0.19519524E+03   -0.14210855E-12    0.55466480E-08

Total Energy:                     -193.2637308065 H        -5258.9737 eV
Extrapolated to 0K:               -193.2637308065 H        -5258.9737 eV
Total Mermin free energy:         -193.2637308065 H        -5258.9737 eV
Force related energy:             -193.2637308065 H        -5258.9737 eV

Volume:                              0.114421E+05 au^3   0.169555E+04 A^3
Pressure:                            0.395163E-05 au     0.116261E+09 Pa
>> Charges saved for restart in charges.bin

total energy  -1.9326373E+02 H       energy change -2.3362437E-04 H
gradient norm  1.1929625E-02 H/a0    max. gradient  2.6852046E-03 H/a0
step length    1.1301888E-01 a0      max. step      2.4588109E-02 a0

--------------------------------------------------------------------------------

***  Geometry step: 48

 iSCC Total electronic   Diff electronic      SCC error    
    1   -0.19519524E+03    0.00000000E+00    0.36767959E-02
    2   -0.19519422E+03    0.10210572E-02    0.21140659E-02
    3   -0.19519423E+03   -0.66839704E-05    0.49452947E-03
    4   -0.19519423E+03   -0.10187615E-05    0.66148428E-04
    5   -0.19519423E+03   -0.60557568E-07    0.23105870E-04
    6   -0.19519423E+03   -0.30937315E-08    0.68910861E-05
    7   -0.19519423E+03   -0.53660187E-10    0.74849177E-06
    8   -0.19519423E+03   -0.37800874E-11    0.15100080E-06
    9   -0.19519423E+03   -0.22737368E-12    0.39532530E-07
   10   -0.19519423E+03   -0.28421709E-13    0.62551599E-08

Total Energy:                     -193.2639708395 H        -5258.9802 eV
Extrapolated to 0K:               -193.2639708395 H        -5258.9802 eV
Total Mermin free energy:         -193.2639708395 H        -5258.9802 eV
Force related energy:             -193.2639708395 H        -5258.9802 eV

Volume:                              0.114443E+05 au^3   0.169587E+04 A^3
Pressure:                            0.340638E-05 au     0.100219E+09 Pa
>> Charges saved for restart in charges.bin

total energy  -1.9326397E+02 H       energy change -2.4003295E-04 H
gradient norm  1.2160872E-02 H/a0    max. gradient  2.7167078E-03 H/a0
step length    9.9437613E-02 a0      max. step      2.5152535E-02 a0

--------------------------------------------------------------------------------

***  Geometry step: 49

 iSCC Total electronic   Diff electronic      SCC error    
    1   -0.19519423E+03    0.00000000E+00    0.40703690E-02
    2   -0.19519245E+03    0.17770029E-02    0.23134463E-02
    3   -0.19519246E+03   -0.91815463E-05    0.55645801E-03
    4   -0.19519246E+03   -0.14372276E-05    0.67122676E-04
    5   -0.19519246E+03   -0.75957729E-07    0.22791945E-04
    6   -0.19519246E+03   -0.42815316E-08    0.66768188E-05
    7   -0.19519246E+03   -0.88817842E-10    0.11036988E-05
    8   -0.19519246E+03   -0.41779913E-11    0.21211705E-06
    9   -0.19519246E+03   -0.36948222E-12    0.53092100E-07
   10   -0.19519246E+03   -0.56843419E-13    0.80321998E-08

Total Energy:                     -193.2642222503 H        -5258.9871 eV
Extrapolated to 0K:               -193.2642222503 H        -5258.9871 eV
Total Mermin free energy:         -193.2642222503 H        -5258.9871 eV
Force related energy:             -193.2642222503 H        -5258.9871 eV

Volume:                              0.114449E+05 au^3   0.169596E+04 A^3
Pressure:                            0.258702E-05 au     0.761127E+08 Pa
>> Charges saved for restart in charges.bin

total energy  -1.9326422E+02 H       energy change -2.5141080E-04 H
gradient norm  1.1055568E-02 H/a0    max. gradient  2.1855598E-03 H/a0
step length    9.8467302E-02 a0      max. step      2.6238520E-02 a0

--------------------------------------------------------------------------------

***  Geometry step: 50

 iSCC Total electronic   Diff electronic      SCC error    
    1   -0.19519246E+03    0.00000000E+00    0.27563389E-02
    2   -0.19519130E+03    0.11631262E-02    0.15567563E-02
    3   -0.19519131E+03   -0.57054483E-05    0.43227279E-03
    4   -0.19519131E+03   -0.91865618E-06    0.44306099E-04
    5   -0.19519131E+03   -0.33137695E-07    0.15950118E-04
    6   -0.19519131E+03   -0.22324969E-08    0.51185083E-05
    7   -0.19519131E+03   -0.51045390E-10    0.90662010E-06
    8   -0.19519131E+03   -0.17905677E-11    0.17196891E-06
    9   -0.19519131E+03   -0.25579538E-12    0.49541143E-07
   10   -0.19519131E+03    0.00000000E+00    0.72333184E-08

Total Energy:                     -193.2644118402 H        -5258.9922 eV
Extrapolated to 0K:               -193.2644118402 H        -5258.9922 eV
Total Mermin free energy:         -193.2644118402 H        -5258.9922 eV
Force related energy:             -193.2644118402 H        -5258.9922 eV

Volume:                              0.114448E+05 au^3   0.169594E+04 A^3
Pressure:                            0.209658E-05 au     0.616834E+08 Pa
>> Charges saved for restart in charges.bin

total energy  -1.9326441E+02 H       energy change -1.8958994E-04 H
gradient norm  1.0323931E-02 H/a0    max. gradient  2.6141775E-03 H/a0
[...]
>> Charges saved for restart in charges.bin

total energy  -1.9327425E+02 H       energy change -9.3817849E-07 H
gradient norm  9.7699082E-04 H/a0    max. gradient  3.5005669E-04 H/a0
step length    3.1502726E-03 a0      max. step      8.0526194E-04 a0

--------------------------------------------------------------------------------

***  Geometry step: 159

 iSCC Total electronic   Diff electronic      SCC error    
    1   -0.19517973E+03    0.00000000E+00    0.50104100E-03
    2   -0.19517975E+03   -0.19855513E-04    0.18246121E-03
    3   -0.19517975E+03   -0.14659167E-06    0.47138738E-04
    4   -0.19517975E+03   -0.18964641E-07    0.52888366E-05
    5   -0.19517975E+03   -0.39079850E-09    0.10791781E-05
    6   -0.19517975E+03   -0.23675284E-10    0.40583755E-06
    7   -0.19517975E+03   -0.31263880E-12    0.89362099E-07
    8   -0.19517975E+03   -0.11368684E-12    0.11934363E-07
    9   -0.19517975E+03    0.17053026E-12    0.35381125E-08

Total Energy:                     -193.2742510355 H        -5259.2600 eV
Extrapolated to 0K:               -193.2742510355 H        -5259.2600 eV
Total Mermin free energy:         -193.2742510355 H        -5259.2600 eV
Force related energy:             -193.2742510355 H        -5259.2600 eV

Volume:                              0.112214E+05 au^3   0.166284E+04 A^3
Pressure:                            0.881346E-07 au     0.259301E+07 Pa
>> Charges saved for restart in charges.bin

total energy  -1.9327425E+02 H       energy change -2.4504162E-06 H
gradient norm  1.2696420E-03 H/a0    max. gradient  4.7161753E-04 H/a0
step length    2.3874171E-02 a0      max. step      5.1252936E-03 a0

--------------------------------------------------------------------------------

***  Geometry step: 160

 iSCC Total electronic   Diff electronic      SCC error    
    1   -0.19517975E+03    0.00000000E+00    0.29319391E-03
    2   -0.19517967E+03    0.73929275E-04    0.11282192E-03
    3   -0.19517967E+03   -0.70062555E-07    0.37310239E-04
    4   -0.19517967E+03   -0.83997236E-08    0.66518868E-05
    5   -0.19517967E+03   -0.21407232E-09    0.16160777E-05
    6   -0.19517967E+03   -0.14239276E-10    0.53822791E-06
    7   -0.19517967E+03   -0.31263880E-12    0.74620066E-07
    8   -0.19517967E+03    0.56843419E-13    0.66209309E-08

Total Energy:                     -193.2742526378 H        -5259.2600 eV
Extrapolated to 0K:               -193.2742526378 H        -5259.2600 eV
Total Mermin free energy:         -193.2742526378 H        -5259.2600 eV
Force related energy:             -193.2742526378 H        -5259.2600 eV

Volume:                              0.112221E+05 au^3   0.166294E+04 A^3
Pressure:                            0.121868E-07 au     0.358548E+06 Pa
>> Charges saved for restart in charges.bin

total energy  -1.9327425E+02 H       energy change -1.6022254E-06 H
gradient norm  8.7645823E-04 H/a0    max. gradient  1.8281268E-04 H/a0
step length    1.2758286E-02 a0      max. step      2.3741368E-03 a0

--------------------------------------------------------------------------------

***  Geometry step: 161

 iSCC Total electronic   Diff electronic      SCC error    
    1   -0.19517967E+03    0.00000000E+00    0.16967142E-03
    2   -0.19517973E+03   -0.55735242E-04    0.77444402E-04
    3   -0.19517973E+03   -0.30608277E-07    0.25815255E-04
    4   -0.19517973E+03   -0.42128931E-08    0.43943574E-05
    5   -0.19517973E+03   -0.13002932E-09    0.10966589E-05
    6   -0.19517973E+03   -0.10629719E-10    0.34193841E-06
    7   -0.19517973E+03   -0.28421709E-12    0.40983524E-07
    8   -0.19517973E+03   -0.56843419E-13    0.39708761E-08

Total Energy:                     -193.2742535961 H        -5259.2600 eV
Extrapolated to 0K:               -193.2742535961 H        -5259.2600 eV
Total Mermin free energy:         -193.2742535961 H        -5259.2600 eV
Force related energy:             -193.2742535961 H        -5259.2600 eV

Volume:                              0.112221E+05 au^3   0.166295E+04 A^3
Pressure:                            0.756871E-08 au     0.222679E+06 Pa
>> Charges saved for restart in charges.bin

total energy  -1.9327425E+02 H       energy change -9.5833062E-07 H
gradient norm  6.0468433E-04 H/a0    max. gradient  1.5563298E-04 H/a0
step length    4.5666669E-03 a0      max. step      8.3782228E-04 a0

--------------------------------------------------------------------------------

***  Geometry step: 162

 iSCC Total electronic   Diff electronic      SCC error    
    1   -0.19517973E+03    0.00000000E+00    0.14963115E-03
    2   -0.19517980E+03   -0.77357898E-04    0.86168984E-04
    3   -0.19517980E+03   -0.12241799E-07    0.21126070E-04
    4   -0.19517980E+03   -0.22005224E-08    0.18138651E-05
    5   -0.19517980E+03   -0.75488060E-10    0.61026563E-06
    6   -0.19517980E+03   -0.25295321E-11    0.20662522E-06
    7   -0.19517980E+03    0.85265128E-13    0.31952339E-07
    8   -0.19517980E+03   -0.56843419E-13    0.43798862E-08

Total Energy:                     -193.2742540414 H        -5259.2600 eV
Extrapolated to 0K:               -193.2742540414 H        -5259.2600 eV
Total Mermin free energy:         -193.2742540414 H        -5259.2600 eV
Force related energy:             -193.2742540414 H        -5259.2600 eV

Volume:                              0.112221E+05 au^3   0.166295E+04 A^3
Pressure:                            0.449728E-07 au     0.132315E+07 Pa
>> Charges saved for restart in charges.bin

total energy  -1.9327425E+02 H       energy change -4.4530586E-07 H
gradient norm  5.2530364E-04 H/a0    max. gradient  1.3124060E-04 H/a0
step length    1.3879994E-03 a0      max. step      2.6580777E-04 a0

--------------------------------------------------------------------------------

***  Geometry step: 163

 iSCC Total electronic   Diff electronic      SCC error    
    1   -0.19517980E+03    0.00000000E+00    0.12575811E-03
    2   -0.19517983E+03   -0.23886459E-04    0.66138468E-04
    3   -0.19517983E+03   -0.96139843E-08    0.17580841E-04
    4   -0.19517983E+03   -0.16538877E-08    0.13162142E-05
    5   -0.19517983E+03   -0.49396931E-10    0.38018194E-06
    6   -0.19517983E+03   -0.20463631E-11    0.14023551E-06
    7   -0.19517983E+03    0.28421709E-13    0.28434598E-07
    8   -0.19517983E+03    0.28421709E-13    0.45474677E-08

Total Energy:                     -193.2742543698 H        -5259.2600 eV
Extrapolated to 0K:               -193.2742543698 H        -5259.2600 eV
Total Mermin free energy:         -193.2742543698 H        -5259.2600 eV
Force related energy:             -193.2742543698 H        -5259.2600 eV

Volume:                              0.112222E+05 au^3   0.166295E+04 A^3
Pressure:                            0.235242E-07 au     0.692104E+06 Pa
>> Charges saved for restart in charges.bin

total energy  -1.9327425E+02 H       energy change -3.2841504E-07 H
gradient norm  5.6290142E-04 H/a0    max. gradient  1.3160164E-04 H/a0
step length    1.5119905E-03 a0      max. step      2.6280284E-04 a0

--------------------------------------------------------------------------------

***  Geometry step: 164

 iSCC Total electronic   Diff electronic      SCC error    
    1   -0.19517983E+03    0.00000000E+00    0.97644327E-04
    2   -0.19517990E+03   -0.66573655E-04    0.56126482E-04
    3   -0.19517990E+03   -0.76488789E-08    0.15336984E-04
    4   -0.19517990E+03   -0.12399823E-08    0.12941381E-05
    5   -0.19517990E+03   -0.36152414E-10    0.40765806E-06
    6   -0.19517990E+03   -0.13073986E-11    0.11229899E-06
    7   -0.19517990E+03    0.56843419E-13    0.19313731E-07
    8   -0.19517990E+03   -0.17053026E-12    0.36553156E-08

Total Energy:                     -193.2742548974 H        -5259.2601 eV
Extrapolated to 0K:               -193.2742548974 H        -5259.2601 eV
Total Mermin free energy:         -193.2742548974 H        -5259.2601 eV
Force related energy:             -193.2742548974 H        -5259.2601 eV

Volume:                              0.112222E+05 au^3   0.166297E+04 A^3
Pressure:                            0.107188E-07 au     0.315359E+06 Pa
>> Charges saved for restart in charges.bin

total energy  -1.9327425E+02 H       energy change -5.2758696E-07 H
gradient norm  6.7375172E-04 H/a0    max. gradient  2.0478348E-04 H/a0
step length    1.9849662E-03 a0      max. step      4.0711568E-04 a0

--------------------------------------------------------------------------------

***  Geometry step: 165

 iSCC Total electronic   Diff electronic      SCC error    
    1   -0.19517990E+03    0.00000000E+00    0.46067754E-03
    2   -0.19518026E+03   -0.36921537E-03    0.25629427E-03
    3   -0.19518026E+03   -0.18546470E-06    0.72844459E-04
    4   -0.19518026E+03   -0.28424466E-07    0.91539561E-05
    5   -0.19518026E+03   -0.86220098E-09    0.28162254E-05
    6   -0.19518026E+03   -0.41097792E-10    0.67254143E-06
    7   -0.19518026E+03   -0.56843419E-12    0.98060050E-07
    8   -0.19518026E+03   -0.17053026E-12    0.16710795E-07
    9   -0.19518026E+03    0.28421709E-13    0.46747761E-08

Total Energy:                     -193.2742554259 H        -5259.2601 eV
Extrapolated to 0K:               -193.2742554259 H        -5259.2601 eV
Total Mermin free energy:         -193.2742554259 H        -5259.2601 eV
Force related energy:             -193.2742554259 H        -5259.2601 eV

Volume:                              0.112230E+05 au^3   0.166308E+04 A^3
Pressure:                            0.189397E-07 au     0.557225E+06 Pa
>> Charges saved for restart in charges.bin

total energy  -1.9327426E+02 H       energy change -5.2847147E-07 H
gradient norm  1.8013650E-03 H/a0    max. gradient  6.0751609E-04 H/a0
step length    2.8578517E-02 a0      max. step      6.4002916E-03 a0

--------------------------------------------------------------------------------

***  Geometry step: 166

 iSCC Total electronic   Diff electronic      SCC error    
    1   -0.19518026E+03    0.00000000E+00    0.24016558E-03
    2   -0.19518046E+03   -0.19845738E-03    0.92712550E-04
    3   -0.19518046E+03   -0.50470618E-07    0.31526008E-04
    4   -0.19518046E+03   -0.68202439E-08    0.48272419E-05
    5   -0.19518046E+03   -0.12215651E-09    0.49447279E-06
    6   -0.19518046E+03   -0.75601747E-11    0.19464769E-06
    7   -0.19518046E+03   -0.22737368E-12    0.47014570E-07
    8   -0.19518046E+03   -0.28421709E-13    0.10080392E-07
    9   -0.19518046E+03   -0.56843419E-13    0.20584729E-08

Total Energy:                     -193.2742570697 H        -5259.2601 eV
Extrapolated to 0K:               -193.2742570697 H        -5259.2601 eV
Total Mermin free energy:         -193.2742570697 H        -5259.2601 eV
Force related energy:             -193.2742570697 H        -5259.2601 eV

Volume:                              0.112228E+05 au^3   0.166305E+04 A^3
Pressure:                            0.153067E-06 au     0.450337E+07 Pa
>> Charges saved for restart in charges.bin

total energy  -1.9327426E+02 H       energy change -1.6438422E-06 H
gradient norm  1.4665513E-03 H/a0    max. gradient  1.0152835E-03 H/a0
step length    1.8013650E-03 a0      max. step      6.0751609E-04 a0

--------------------------------------------------------------------------------

***  Geometry step: 167

 iSCC Total electronic   Diff electronic      SCC error    
    1   -0.19518046E+03    0.00000000E+00    0.20085509E-03
    2   -0.19518016E+03    0.30581289E-03    0.96610564E-04
    3   -0.19518016E+03   -0.33622740E-07    0.34184747E-04
    4   -0.19518016E+03   -0.41917758E-08    0.49168791E-05
    5   -0.19518016E+03   -0.13818635E-09    0.86443795E-06
    6   -0.19518016E+03   -0.92938990E-11    0.31777382E-06
    7   -0.19518016E+03    0.00000000E+00    0.44839894E-07
    8   -0.19518016E+03    0.00000000E+00    0.69024950E-08

Total Energy:                     -193.2742580901 H        -5259.2602 eV
Extrapolated to 0K:               -193.2742580901 H        -5259.2602 eV
Total Mermin free energy:         -193.2742580901 H        -5259.2602 eV
Force related energy:             -193.2742580901 H        -5259.2602 eV

Volume:                              0.112231E+05 au^3   0.166309E+04 A^3
Pressure:                            0.215769E-07 au     0.634815E+06 Pa
>> Charges saved for restart in charges.bin

total energy  -1.9327426E+02 H       energy change -1.0203600E-06 H
gradient norm  6.8040748E-04 H/a0    max. gradient  3.3368715E-04 H/a0
step length    2.8247380E-03 a0      max. step      7.7789165E-04 a0

--------------------------------------------------------------------------------

***  Geometry step: 168

 iSCC Total electronic   Diff electronic      SCC error    
    1   -0.19518016E+03    0.00000000E+00    0.19817320E-03
    2   -0.19518012E+03    0.39744610E-04    0.66601407E-04
    3   -0.19518012E+03   -0.22567718E-07    0.21911594E-04
    4   -0.19518012E+03   -0.29364458E-08    0.21703308E-05
    5   -0.19518012E+03   -0.76937567E-10    0.37750472E-06
    6   -0.19518012E+03   -0.45190518E-11    0.96081790E-07
    7   -0.19518012E+03   -0.11368684E-12    0.19813814E-07
    8   -0.19518012E+03   -0.56843419E-13    0.38119041E-08

Total Energy:                     -193.2742588796 H        -5259.2602 eV
Extrapolated to 0K:               -193.2742588796 H        -5259.2602 eV
Total Mermin free energy:         -193.2742588796 H        -5259.2602 eV
Force related energy:             -193.2742588796 H        -5259.2602 eV

Volume:                              0.112233E+05 au^3   0.166312E+04 A^3
Pressure:                            0.119426E-07 au     0.351362E+06 Pa
>> Charges saved for restart in charges.bin

total energy  -1.9327426E+02 H       energy change -7.8955219E-07 H
gradient norm  4.6740712E-04 H/a0    max. gradient  1.0991208E-04 H/a0
step length    5.4637328E-03 a0      max. step      1.3326829E-03 a0

--------------------------------------------------------------------------------

***  Geometry step: 169

 iSCC Total electronic   Diff electronic      SCC error    
    1   -0.19518012E+03    0.00000000E+00    0.15531440E-03
    2   -0.19518012E+03   -0.22265501E-05    0.64464973E-04
    3   -0.19518012E+03   -0.21700401E-07    0.24250067E-04
    4   -0.19518012E+03   -0.26765008E-08    0.31232743E-05
    5   -0.19518012E+03   -0.61874061E-10    0.62120754E-06
    6   -0.19518012E+03   -0.41779913E-11    0.21569835E-06
    7   -0.19518012E+03    0.28421709E-13    0.33768985E-07
    8   -0.19518012E+03   -0.17053026E-12    0.32352658E-08

Total Energy:                     -193.2742595088 H        -5259.2602 eV
Extrapolated to 0K:               -193.2742595088 H        -5259.2602 eV
Total Mermin free energy:         -193.2742595088 H        -5259.2602 eV
Force related energy:             -193.2742595088 H        -5259.2602 eV

Volume:                              0.112235E+05 au^3   0.166316E+04 A^3
Pressure:                           -0.637886E-09 au    -0.187673E+05 Pa
>> Charges saved for restart in charges.bin

total energy  -1.9327426E+02 H       energy change -6.2915166E-07 H
gradient norm  5.9264304E-04 H/a0    max. gradient  2.4183547E-04 H/a0
step length    7.2935014E-03 a0      max. step      1.8257364E-03 a0

--------------------------------------------------------------------------------

***  Geometry step: 170

 iSCC Total electronic   Diff electronic      SCC error    
    1   -0.19518012E+03    0.00000000E+00    0.92367393E-04
    2   -0.19518008E+03    0.40260305E-04    0.37026896E-04
    3   -0.19518008E+03   -0.86210150E-08    0.12355864E-04
    4   -0.19518008E+03   -0.13128272E-08    0.19280122E-05
    5   -0.19518008E+03   -0.34219738E-10    0.62181941E-06
    6   -0.19518008E+03   -0.16768809E-11    0.16141724E-06
    7   -0.19518008E+03    0.85265128E-13    0.17605443E-07
    8   -0.19518008E+03   -0.56843419E-13    0.18269763E-08

Total Energy:                     -193.2742598537 H        -5259.2602 eV
Extrapolated to 0K:               -193.2742598537 H        -5259.2602 eV
Total Mermin free energy:         -193.2742598537 H        -5259.2602 eV
Force related energy:             -193.2742598537 H        -5259.2602 eV

Volume:                              0.112236E+05 au^3   0.166316E+04 A^3
Pressure:                           -0.187188E-07 au    -0.550725E+06 Pa
>> Charges saved for restart in charges.bin

total energy  -1.9327426E+02 H       energy change -3.4493516E-07 H
gradient norm  4.5844548E-04 H/a0    max. gradient  1.5136882E-04 H/a0
step length    1.9218174E-03 a0      max. step      4.2899835E-04 a0

--------------------------------------------------------------------------------

***  Geometry step: 171

 iSCC Total electronic   Diff electronic      SCC error    
    1   -0.19518008E+03    0.00000000E+00    0.20079406E-03
    2   -0.19518012E+03   -0.42702146E-04    0.81607983E-04
    3   -0.19518012E+03   -0.28887655E-07    0.26129820E-04
    4   -0.19518012E+03   -0.40779753E-08    0.49874130E-05
    5   -0.19518012E+03   -0.12653345E-09    0.14485865E-05
    6   -0.19518012E+03   -0.67927886E-11    0.36922836E-06
    7   -0.19518012E+03   -0.85265128E-13    0.35898871E-07
    8   -0.19518012E+03   -0.56843419E-13    0.54224980E-08

Total Energy:                     -193.2742605393 H        -5259.2602 eV
Extrapolated to 0K:               -193.2742605393 H        -5259.2602 eV
Total Mermin free energy:         -193.2742605393 H        -5259.2602 eV
Force related energy:             -193.2742605393 H        -5259.2602 eV

Volume:                              0.112243E+05 au^3   0.166327E+04 A^3
Pressure:                           -0.289630E-07 au    -0.852120E+06 Pa
>> Charges saved for restart in charges.bin

total energy  -1.9327426E+02 H       energy change -6.8554456E-07 H
gradient norm  4.5453439E-04 H/a0    max. gradient  1.1792228E-04 H/a0
step length    1.3335007E-02 a0      max. step      2.7226817E-03 a0

--------------------------------------------------------------------------------

***  Geometry step: 172

 iSCC Total electronic   Diff electronic      SCC error    
    1   -0.19518012E+03    0.00000000E+00    0.51157479E-04
    2   -0.19518011E+03    0.11069261E-04    0.29830863E-04
    3   -0.19518011E+03   -0.16275976E-08    0.74193409E-05
    4   -0.19518011E+03   -0.27029046E-09    0.57648108E-06
    5   -0.19518011E+03   -0.12590817E-10    0.24558569E-06
    6   -0.19518011E+03   -0.28421709E-12    0.68125818E-07
    7   -0.19518011E+03   -0.85265128E-13    0.78026869E-08

Total Energy:                     -193.2742607652 H        -5259.2602 eV
Extrapolated to 0K:               -193.2742607652 H        -5259.2602 eV
Total Mermin free energy:         -193.2742607652 H        -5259.2602 eV
Force related energy:             -193.2742607652 H        -5259.2602 eV

Volume:                              0.112243E+05 au^3   0.166327E+04 A^3
Pressure:                           -0.362934E-07 au    -0.106779E+07 Pa
>> Charges saved for restart in charges.bin

total energy  -1.9327426E+02 H       energy change -2.2597294E-07 H
gradient norm  3.9994240E-04 H/a0    max. gradient  8.7329217E-05 H/a0
step length    7.5232822E-04 a0      max. step      1.7051689E-04 a0

Geometry converged

--------------------------------------------------------------------------------
DFTB+ running times                          cpu [s]             wall clock [s]
--------------------------------------------------------------------------------
Pre-SCC initialisation                 +      10.72 (  0.6%)       2.30 (  1.0%)
SCC                                    +    1666.53 ( 89.8%)     210.92 ( 90.3%)
Post-SCC processing                    +     178.74 (  9.6%)      20.32 (  8.7%)
--------------------------------------------------------------------------------
Missing                                +       0.06 (  0.0%)       0.01 (  0.0%)
Total                                  =    1856.05 (100.0%)     233.54 (100.0%)
--------------------------------------------------------------------------------
