|===============================================================================
|
|  DFTB+ release 24.1
|
|  Copyright (C) 2006 - 2024  DFTB+ developers group
|
|===============================================================================
|
|  When publishing results obtained with DFTB+, please cite the following
|  reference:
|
|  * DFTB+, a software package for efficient approximate density functional
|    theory based atomistic simulations, J. Chem. Phys. 152, 124101 (2020).
|    [doi: 10.1063/1.5143190]
|
|  You should also cite additional publications crediting the parametrization
|  data you use. Please consult the documentation of the SK-files for the
|  references.
|
|===============================================================================

Reading input file 'dftb_in.hsd'
Parser version: 14

--------------------------------------------------------------------------------
Reading SK-files:
./SKFiles/Si-Si.skf
./SKFiles/Si-Ge.skf
./SKFiles/Si-O.skf
./SKFiles/Ge-Ge.skf
./SKFiles/Ge-O.skf
./SKFiles/O-O.skf
Done.


Processed input in HSD format written to 'dftb_pin.hsd'

Starting initialization...
--------------------------------------------------------------------------------
WARNING!
-> Dipole printed for extended system : value printed is not well defined
MPI processes:               1
OpenMP threads:              8
BLACS orbital grid size:     1 x 1
BLACS atom grid size:        1 x 1
Chosen random seed:          157139925
Current stacksize:           unlimited
Mode:                        Static calculation
Self consistent charges:     Yes
SCC-tolerance:                 0.100000E-07
Max. scc iterations:                    500
Shell resolved Hubbard:      No
Spin polarisation:           No
Nr. of up electrons:           192.000000
Nr. of down electrons:         192.000000
Periodic boundaries:         Yes
Electronic solver:           Relatively robust
Mixer:                       Broyden mixer
Mixing parameter:                  0.200000
Maximal SCC-cycles:                     500
Nr. of chrg. vec. in memory:            500
Electronic temperature:              0.100000E-07 H      0.272114E-06 eV
Initial charges:             Set automatically (system chrg:   0.000E+00)
Included shells:            Si:  s, p, d
                            Ge:  s, p, d
                             O:  s, p
K-points and weights:           1:  0.500000  0.500000  0.500000     1.000000

K-points in absolute space:     1:  0.025319  0.017606  0.037774

Extra options:
                             Mulliken analysis
Force type                   original

--------------------------------------------------------------------------------

***  Geometry step: 0

 iSCC Total electronic   Diff electronic      SCC error    
    1    0.00000000E+00    0.00000000E+00    0.14260855E+01
    2   -0.19732539E+03   -0.19732539E+03    0.96695902E+00
    3   -0.19766816E+03   -0.34277010E+00    0.38793221E-01
    4   -0.19795690E+03   -0.28873573E+00    0.23529500E-01
    5   -0.19795846E+03   -0.15591864E-02    0.35353347E-02
    6   -0.19795857E+03   -0.10745991E-03    0.12366449E-02
    7   -0.19795857E+03   -0.24614323E-05    0.29451493E-03
    8   -0.19795857E+03   -0.55165842E-06    0.34252462E-04
    9   -0.19795857E+03   -0.30814505E-07    0.18267831E-04
   10   -0.19795857E+03   -0.17857360E-09    0.23356238E-05
   11   -0.19795857E+03   -0.70741635E-10    0.26089471E-06
   12   -0.19795857E+03   -0.29842795E-11    0.10480759E-06
   13   -0.19795857E+03    0.00000000E+00    0.15364102E-07
   14   -0.19795857E+03   -0.11368684E-12    0.39033079E-08

Total Energy:                     -190.4243499836 H        -5181.7102 eV
Extrapolated to 0K:               -190.4243499836 H        -5181.7102 eV
Total Mermin free energy:         -190.4243499836 H        -5181.7102 eV
Force related energy:             -190.4243499836 H        -5181.7102 eV

Volume:                              0.913789E+04 au^3   0.135410E+04 A^3
Pressure:                            0.249581E-02 au     0.734292E+11 Pa
>> Charges saved for restart in charges.bin

total energy  -1.9042435E+02 H       energy change -1.9042435E+02 H
gradient norm  2.3499369E+00 H/a0    max. gradient  1.3960326E+00 H/a0
step length    0.0000000E+00 a0      max. step      0.0000000E+00 a0

--------------------------------------------------------------------------------

***  Geometry step: 1

 iSCC Total electronic   Diff electronic      SCC error    
    1   -0.19795857E+03    0.00000000E+00    0.13895623E+00
    2   -0.19726535E+03    0.69321894E+00    0.65954906E-01
    3   -0.19728316E+03   -0.17806723E-01    0.22465629E-01
    4   -0.19728633E+03   -0.31706996E-02    0.21234219E-02
    5   -0.19728641E+03   -0.82251329E-04    0.87983828E-03
    6   -0.19728641E+03   -0.43268858E-05    0.23437054E-03
    7   -0.19728641E+03   -0.16567199E-06    0.38840286E-04
    8   -0.19728641E+03   -0.21754346E-07    0.91945130E-05
    9   -0.19728641E+03   -0.11111183E-08    0.35441472E-05
   10   -0.19728641E+03   -0.21515234E-10    0.82171400E-06
   11   -0.19728641E+03   -0.88107299E-12    0.13926962E-06
   12   -0.19728641E+03   -0.39790393E-12    0.28899994E-07
   13   -0.19728641E+03   -0.28421709E-13    0.28994949E-08

Total Energy:                     -191.1464510517 H        -5201.3596 eV
Extrapolated to 0K:               -191.1464510517 H        -5201.3596 eV
Total Mermin free energy:         -191.1464510517 H        -5201.3596 eV
Force related energy:             -191.1464510517 H        -5201.3596 eV

Volume:                              0.972172E+04 au^3   0.144061E+04 A^3
Pressure:                            0.176598E-02 au     0.519570E+11 Pa
>> Charges saved for restart in charges.bin

total energy  -1.9114645E+02 H       energy change -7.2210107E-01 H
gradient norm  1.4811964E+00 H/a0    max. gradient  2.7241048E-01 H/a0
step length    8.0961367E-01 a0      max. step      4.8096910E-01 a0

--------------------------------------------------------------------------------

***  Geometry step: 2

 iSCC Total electronic   Diff electronic      SCC error    
    1   -0.19728641E+03    0.00000000E+00    0.49396256E-01
    2   -0.19693604E+03    0.35037632E+00    0.24351624E-01
    3   -0.19693962E+03   -0.35805793E-02    0.71649441E-02
    4   -0.19694031E+03   -0.69360079E-03    0.91728445E-03
    5   -0.19694033E+03   -0.19348304E-04    0.24344970E-03
    6   -0.19694033E+03   -0.12363316E-05    0.98843775E-04
    7   -0.19694033E+03   -0.21974557E-07    0.20985606E-04
    8   -0.19694033E+03   -0.28247200E-08    0.46304440E-05
    9   -0.19694033E+03   -0.24635938E-09    0.15670935E-05
   10   -0.19694033E+03   -0.30127012E-11    0.49366060E-06
   11   -0.19694033E+03   -0.14210855E-12    0.75365374E-07
   12   -0.19694033E+03   -0.85265128E-13    0.14372124E-07
   13   -0.19694033E+03    0.11368684E-12    0.13464403E-08

Total Energy:                     -191.9343561011 H        -5222.7996 eV
Extrapolated to 0K:               -191.9343561011 H        -5222.7996 eV
Total Mermin free energy:         -191.9343561011 H        -5222.7996 eV
Force related energy:             -191.9343561011 H        -5222.7996 eV

Volume:                              0.987934E+04 au^3   0.146397E+04 A^3
Pressure:                            0.130259E-02 au     0.383235E+11 Pa
>> Charges saved for restart in charges.bin

total energy  -1.9193436E+02 H       energy change -7.8790505E-01 H
gradient norm  9.4305955E-01 H/a0    max. gradient  1.8584087E-01 H/a0
step length    7.4019753E-01 a0      max. step      1.5100826E-01 a0

--------------------------------------------------------------------------------

***  Geometry step: 3

 iSCC Total electronic   Diff electronic      SCC error    
    1   -0.19694033E+03    0.00000000E+00    0.71679447E-01
    2   -0.19655945E+03    0.38088653E+00    0.30301721E-01
    3   -0.19656425E+03   -0.48032743E-02    0.10959935E-01
    4   -0.19656504E+03   -0.78807148E-03    0.11625804E-02
    5   -0.19656507E+03   -0.36194259E-04    0.27076927E-03
    6   -0.19656507E+03   -0.17133435E-05    0.11961413E-03
    7   -0.19656507E+03   -0.33799552E-07    0.33010041E-04
    8   -0.19656507E+03   -0.33950869E-08    0.86617044E-05
    9   -0.19656507E+03   -0.41870862E-09    0.25719725E-05
   10   -0.19656507E+03   -0.96918029E-11    0.57390192E-06
   11   -0.19656507E+03   -0.54001248E-12    0.10129682E-06
   12   -0.19656507E+03    0.85265128E-13    0.18228229E-07
   13   -0.19656507E+03   -0.28421709E-13    0.30460314E-08

Total Energy:                     -192.4781880975 H        -5237.5980 eV
Extrapolated to 0K:               -192.4781880975 H        -5237.5980 eV
Total Mermin free energy:         -192.4781880975 H        -5237.5980 eV
Force related energy:             -192.4781880975 H        -5237.5980 eV

Volume:                              0.100098E+05 au^3   0.148331E+04 A^3
Pressure:                            0.935343E-03 au     0.275187E+11 Pa
>> Charges saved for restart in charges.bin

total energy  -1.9247819E+02 H       energy change -5.4383200E-01 H
gradient norm  5.9868396E-01 H/a0    max. gradient  1.3037998E-01 H/a0
step length    7.8331358E-01 a0      max. step      1.9541215E-01 a0

--------------------------------------------------------------------------------

***  Geometry step: 4

 iSCC Total electronic   Diff electronic      SCC error    
    1   -0.19656507E+03    0.00000000E+00    0.61483083E-01
    2   -0.19617465E+03    0.39042057E+00    0.36925815E-01
    3   -0.19617755E+03   -0.28912225E-02    0.64273682E-02
    4   -0.19617819E+03   -0.64951858E-03    0.96344703E-03
    5   -0.19617823E+03   -0.37549093E-04    0.28854068E-03
    6   -0.19617823E+03   -0.11945174E-05    0.10773006E-03
    7   -0.19617823E+03   -0.22414895E-07    0.34711038E-04
    8   -0.19617823E+03   -0.21640574E-08    0.94264128E-05
    9   -0.19617823E+03   -0.26756197E-09    0.24317249E-05
   10   -0.19617823E+03   -0.49453774E-11    0.36211408E-06
   11   -0.19617823E+03   -0.59685590E-12    0.81308655E-07
   12   -0.19617823E+03   -0.28421709E-13    0.21065123E-07
   13   -0.19617823E+03   -0.56843419E-13    0.24891555E-08

Total Energy:                     -192.7954130362 H        -5246.2301 eV
Extrapolated to 0K:               -192.7954130362 H        -5246.2301 eV
Total Mermin free energy:         -192.7954130362 H        -5246.2301 eV
Force related energy:             -192.7954130362 H        -5246.2301 eV

Volume:                              0.101402E+05 au^3   0.150263E+04 A^3
Pressure:                            0.654035E-03 au     0.192424E+11 Pa
>> Charges saved for restart in charges.bin

total energy  -1.9279541E+02 H       energy change -3.1722494E-01 H
gradient norm  4.6042046E-01 H/a0    max. gradient  2.6042186E-01 H/a0
step length    7.4215338E-01 a0      max. step      1.3236738E-01 a0

--------------------------------------------------------------------------------

***  Geometry step: 5

 iSCC Total electronic   Diff electronic      SCC error    
    1   -0.19617823E+03    0.00000000E+00    0.62733619E-01
    2   -0.19574120E+03    0.43703242E+00    0.38415187E-01
    3   -0.19574297E+03   -0.17717094E-02    0.65862262E-02
    4   -0.19574341E+03   -0.44190629E-03    0.11937176E-02
    5   -0.19574344E+03   -0.28440622E-04    0.34355998E-03
    6   -0.19574344E+03   -0.71252106E-06    0.12560918E-03
    7   -0.19574344E+03   -0.16251391E-07    0.42028760E-04
    8   -0.19574344E+03   -0.15324133E-08    0.88294728E-05
    9   -0.19574344E+03   -0.19682034E-09    0.20805393E-05
   10   -0.19574344E+03   -0.81001872E-11    0.20345863E-06
   11   -0.19574344E+03   -0.51159077E-12    0.48915957E-07
   12   -0.19574344E+03   -0.11368684E-12    0.20804198E-07
   13   -0.19574344E+03    0.56843419E-13    0.62823431E-08

Total Energy:                     -192.9841615967 H        -5251.3662 eV
Extrapolated to 0K:               -192.9841615967 H        -5251.3662 eV
Total Mermin free energy:         -192.9841615967 H        -5251.3662 eV
Force related energy:             -192.9841615967 H        -5251.3662 eV

Volume:                              0.103380E+05 au^3   0.153194E+04 A^3
Pressure:                            0.398375E-03 au     0.117206E+11 Pa
>> Charges saved for restart in charges.bin

total energy  -1.9298416E+02 H       energy change -1.8874856E-01 H
gradient norm  3.1413990E-01 H/a0    max. gradient  1.6007106E-01 H/a0
step length    6.9697172E-01 a0      max. step      2.3889773E-01 a0

--------------------------------------------------------------------------------

***  Geometry step: 6

 iSCC Total electronic   Diff electronic      SCC error    
    1   -0.19574344E+03    0.00000000E+00    0.50229001E-01
    2   -0.19540445E+03    0.33899695E+00    0.28139533E-01
    3   -0.19540590E+03   -0.14504967E-02    0.40446393E-02
    4   -0.19540622E+03   -0.31891555E-03    0.75479190E-03
    5   -0.19540623E+03   -0.15245879E-04    0.29985455E-03
    6   -0.19540623E+03   -0.57745186E-06    0.11326888E-03
    7   -0.19540623E+03   -0.87139824E-08    0.26169822E-04
    8   -0.19540623E+03   -0.94271968E-09    0.62705668E-05
    9   -0.19540623E+03   -0.11755219E-09    0.13756268E-05
   10   -0.19540623E+03   -0.34674486E-11    0.12138509E-06
   11   -0.19540623E+03   -0.28421709E-12    0.32829414E-07
   12   -0.19540623E+03    0.00000000E+00    0.11762241E-07
   13   -0.19540623E+03    0.56843419E-13    0.37204213E-08

Total Energy:                     -193.0735095951 H        -5253.7975 eV
Extrapolated to 0K:               -193.0735095951 H        -5253.7975 eV
Total Mermin free energy:         -193.0735095951 H        -5253.7975 eV
Force related energy:             -193.0735095951 H        -5253.7975 eV

Volume:                              0.104916E+05 au^3   0.155470E+04 A^3
Pressure:                            0.225265E-03 au     0.662753E+10 Pa
>> Charges saved for restart in charges.bin

total energy  -1.9307351E+02 H       energy change -8.9347998E-02 H
gradient norm  1.9293200E-01 H/a0    max. gradient  9.5536604E-02 H/a0
step length    5.8227329E-01 a0      max. step      1.1589704E-01 a0

--------------------------------------------------------------------------------

***  Geometry step: 7

 iSCC Total electronic   Diff electronic      SCC error    
    1   -0.19540623E+03    0.00000000E+00    0.43011344E-01
    2   -0.19520402E+03    0.20220900E+00    0.18167056E-01
    3   -0.19520503E+03   -0.10044562E-02    0.31762265E-02
    4   -0.19520521E+03   -0.18173737E-03    0.46190707E-03
    5   -0.19520522E+03   -0.55603991E-05    0.19328823E-03
    6   -0.19520522E+03   -0.24810237E-06    0.66375288E-04
    7   -0.19520522E+03   -0.63725452E-08    0.18790422E-04
    8   -0.19520522E+03   -0.32738967E-09    0.45265592E-05
    9   -0.19520522E+03   -0.45417892E-10    0.11869124E-05
   10   -0.19520522E+03   -0.27853275E-11    0.11168670E-06
   11   -0.19520522E+03   -0.22737368E-12    0.16358999E-07
   12   -0.19520522E+03   -0.28421709E-13    0.41130677E-08

Total Energy:                     -193.1114530829 H        -5254.8300 eV
Extrapolated to 0K:               -193.1114530829 H        -5254.8300 eV
Total Mermin free energy:         -193.1114530829 H        -5254.8300 eV
Force related energy:             -193.1114530829 H        -5254.8300 eV

Volume:                              0.105817E+05 au^3   0.156804E+04 A^3
Pressure:                            0.133241E-03 au     0.392008E+10 Pa
>> Charges saved for restart in charges.bin

total energy  -1.9311145E+02 H       energy change -3.7943488E-02 H
gradient norm  1.5306930E-01 H/a0    max. gradient  7.2579955E-02 H/a0
step length    4.5622252E-01 a0      max. step      8.4704734E-02 a0

--------------------------------------------------------------------------------

***  Geometry step: 8

 iSCC Total electronic   Diff electronic      SCC error    
    1   -0.19520522E+03    0.00000000E+00    0.19499944E-01
    2   -0.19509685E+03    0.10836453E+00    0.91727186E-02
    3   -0.19509724E+03   -0.38586121E-03    0.21843420E-02
    4   -0.19509730E+03   -0.63001299E-04    0.37920270E-03
    5   -0.19509730E+03   -0.18807514E-05    0.93337594E-04
    6   -0.19509730E+03   -0.10103523E-06    0.18939428E-04
    7   -0.19509730E+03   -0.51537370E-08    0.78658676E-05
    8   -0.19509730E+03   -0.19858248E-09    0.26015511E-05
    9   -0.19509730E+03   -0.10345502E-10    0.73667573E-06
   10   -0.19509730E+03   -0.11084467E-11    0.11409041E-06
   11   -0.19509730E+03   -0.56843419E-13    0.13557932E-07
   12   -0.19509730E+03    0.28421709E-13    0.26200873E-08

Total Energy:                     -193.1339294581 H        -5255.4416 eV
Extrapolated to 0K:               -193.1339294581 H        -5255.4416 eV
Total Mermin free energy:         -193.1339294581 H        -5255.4416 eV
Force related energy:             -193.1339294581 H        -5255.4416 eV

Volume:                              0.106419E+05 au^3   0.157696E+04 A^3
Pressure:                            0.780901E-04 au     0.229749E+10 Pa
>> Charges saved for restart in charges.bin

total energy  -1.9313393E+02 H       energy change -2.2476375E-02 H
gradient norm  1.1658674E-01 H/a0    max. gradient  3.0700553E-02 H/a0
step length    3.5762194E-01 a0      max. step      7.3167560E-02 a0

--------------------------------------------------------------------------------

***  Geometry step: 9

 iSCC Total electronic   Diff electronic      SCC error    
    1   -0.19509730E+03    0.00000000E+00    0.22222190E-01
    2   -0.19508095E+03    0.16346834E-01    0.12941078E-01
    3   -0.19508128E+03   -0.32180006E-03    0.37267646E-02
    4   -0.19508133E+03   -0.49229061E-04    0.40418102E-03
    5   -0.19508133E+03   -0.18725177E-05    0.94800516E-04
    6   -0.19508133E+03   -0.21206819E-06    0.37509003E-04
    7   -0.19508133E+03   -0.27029898E-08    0.85973724E-05
    8   -0.19508133E+03   -0.12116175E-09    0.17102479E-05
    9   -0.19508133E+03   -0.85549345E-11    0.20569638E-06
   10   -0.19508133E+03   -0.12505552E-11    0.56104913E-07
   11   -0.19508133E+03   -0.11368684E-12    0.14065692E-07
   12   -0.19508133E+03    0.28421709E-13    0.18324595E-08

Total Energy:                     -193.1535095404 H        -5255.9744 eV
Extrapolated to 0K:               -193.1535095404 H        -5255.9744 eV
Total Mermin free energy:         -193.1535095404 H        -5255.9744 eV
Force related energy:             -193.1535095404 H        -5255.9744 eV

Volume:                              0.106647E+05 au^3   0.158035E+04 A^3
Pressure:                            0.596281E-04 au     0.175432E+10 Pa
>> Charges saved for restart in charges.bin

total energy  -1.9315351E+02 H       energy change -1.9580082E-02 H
gradient norm  9.9933777E-02 H/a0    max. gradient  2.5629380E-02 H/a0
step length    3.4332802E-01 a0      max. step      7.0956143E-02 a0

--------------------------------------------------------------------------------

***  Geometry step: 10

 iSCC Total electronic   Diff electronic      SCC error    
    1   -0.19508133E+03    0.00000000E+00    0.30935202E-01
    2   -0.19512212E+03   -0.40788148E-01    0.17554170E-01
    3   -0.19512266E+03   -0.53984848E-03    0.29352337E-02
    4   -0.19512277E+03   -0.11406363E-03    0.55778030E-03
    5   -0.19512278E+03   -0.63038569E-05    0.21833091E-03
    6   -0.19512278E+03   -0.17016552E-06    0.65614844E-04
    7   -0.19512278E+03   -0.54240843E-08    0.87809091E-05
    8   -0.19512278E+03   -0.29550051E-09    0.16599981E-05
    9   -0.19512278E+03   -0.30723868E-10    0.35407629E-06
   10   -0.19512278E+03   -0.22737368E-11    0.75421440E-07
   11   -0.19512278E+03   -0.85265128E-13    0.13353246E-07
   12   -0.19512278E+03    0.85265128E-13    0.31966079E-08

Total Energy:                     -193.1736988442 H        -5256.5238 eV
Extrapolated to 0K:               -193.1736988442 H        -5256.5238 eV
Total Mermin free energy:         -193.1736988442 H        -5256.5238 eV
Force related energy:             -193.1736988442 H        -5256.5238 eV

Volume:                              0.106770E+05 au^3   0.158217E+04 A^3
Pressure:                            0.626016E-04 au     0.184180E+10 Pa
>> Charges saved for restart in charges.bin

total energy  -1.9317370E+02 H       energy change -2.0189304E-02 H
gradient norm  9.9006056E-02 H/a0    max. gradient  3.5077394E-02 H/a0
step length    4.3839996E-01 a0      max. step      7.8030026E-02 a0

--------------------------------------------------------------------------------

***  Geometry step: 11

 iSCC Total electronic   Diff electronic      SCC error    
    1   -0.19512278E+03    0.00000000E+00    0.24119095E-01
    2   -0.19517822E+03   -0.55444138E-01    0.13893426E-01
    3   -0.19517866E+03   -0.43970081E-03    0.29341827E-02
    4   -0.19517876E+03   -0.96641654E-04    0.67362878E-03
    5   -0.19517876E+03   -0.50430716E-05    0.25654871E-03
    6   -0.19517876E+03   -0.21469330E-06    0.71046523E-04
    7   -0.19517876E+03   -0.70634769E-08    0.90737824E-05
    8   -0.19517876E+03   -0.35194603E-09    0.16229887E-05
    9   -0.19517876E+03   -0.29729108E-10    0.32223886E-06
   10   -0.19517876E+03   -0.31263880E-11    0.55898925E-07
   11   -0.19517876E+03   -0.28421709E-13    0.12884199E-07
   12   -0.19517876E+03   -0.19895197E-12    0.22593070E-08

Total Energy:                     -193.1859542909 H        -5256.8573 eV
Extrapolated to 0K:               -193.1859542909 H        -5256.8573 eV
Total Mermin free energy:         -193.1859542909 H        -5256.8573 eV
Force related energy:             -193.1859542909 H        -5256.8573 eV

Volume:                              0.106798E+05 au^3   0.158259E+04 A^3
Pressure:                            0.750850E-04 au     0.220908E+10 Pa
>> Charges saved for restart in charges.bin

total energy  -1.9318595E+02 H       energy change -1.2255447E-02 H
gradient norm  8.4217986E-02 H/a0    max. gradient  2.3798272E-02 H/a0
step length    3.2630658E-01 a0      max. step      4.6055036E-02 a0

--------------------------------------------------------------------------------

***  Geometry step: 12

 iSCC Total electronic   Diff electronic      SCC error    
    1   -0.19517876E+03    0.00000000E+00    0.21402544E-01
    2   -0.19521158E+03   -0.32819487E-01    0.12650841E-01
    3   -0.19521176E+03   -0.17329398E-03    0.22557476E-02
    4   -0.19521180E+03   -0.48134335E-04    0.61471864E-03
    5   -0.19521181E+03   -0.24279228E-05    0.22250656E-03
    6   -0.19521181E+03   -0.46832952E-07    0.40029252E-04
    7   -0.19521181E+03   -0.22738789E-08    0.37283954E-05
    8   -0.19521181E+03   -0.23484859E-09    0.10574137E-05
    9   -0.19521181E+03   -0.11254997E-10    0.23791296E-06
   10   -0.19521181E+03   -0.54001248E-12    0.41692546E-07
   11   -0.19521181E+03   -0.56843419E-13    0.11237798E-07
   12   -0.19521181E+03    0.00000000E+00    0.26881728E-08

Total Energy:                     -193.1961915960 H        -5257.1359 eV
Extrapolated to 0K:               -193.1961915960 H        -5257.1359 eV
Total Mermin free energy:         -193.1961915960 H        -5257.1359 eV
Force related energy:             -193.1961915960 H        -5257.1359 eV

Volume:                              0.106983E+05 au^3   0.158532E+04 A^3
Pressure:                            0.788050E-04 au     0.231852E+10 Pa
>> Charges saved for restart in charges.bin

total energy  -1.9319619E+02 H       energy change -1.0237305E-02 H
gradient norm  7.4048251E-02 H/a0    max. gradient  1.9231385E-02 H/a0
step length    2.9832765E-01 a0      max. step      4.6065433E-02 a0

--------------------------------------------------------------------------------

***  Geometry step: 13

 iSCC Total electronic   Diff electronic      SCC error    
    1   -0.19521181E+03    0.00000000E+00    0.22699016E-01
    2   -0.19522106E+03   -0.92562796E-02    0.12792985E-01
    3   -0.19522121E+03   -0.14859199E-03    0.23407030E-02
    4   -0.19522125E+03   -0.44111211E-04    0.62424290E-03
    5   -0.19522126E+03   -0.20801987E-05    0.18498116E-03
    6   -0.19522126E+03   -0.48127674E-07    0.42054261E-04
    7   -0.19522126E+03   -0.14918555E-08    0.32123724E-05
    8   -0.19522126E+03   -0.19116442E-09    0.10921860E-05
    9   -0.19522126E+03   -0.11112888E-10    0.18236415E-06
   10   -0.19522126E+03   -0.28421709E-12    0.34992912E-07
   11   -0.19522126E+03   -0.56843419E-13    0.11300588E-07
   12   -0.19522126E+03    0.28421709E-13    0.28635010E-08

Total Energy:                     -193.2064886320 H        -5257.4161 eV
Extrapolated to 0K:               -193.2064886320 H        -5257.4161 eV
Total Mermin free energy:         -193.2064886320 H        -5257.4161 eV
Force related energy:             -193.2064886320 H        -5257.4161 eV

Volume:                              0.107397E+05 au^3   0.159146E+04 A^3
Pressure:                            0.732419E-04 au     0.215485E+10 Pa
>> Charges saved for restart in charges.bin

total energy  -1.9320649E+02 H       energy change -1.0297036E-02 H
gradient norm  6.2577115E-02 H/a0    max. gradient  1.1363808E-02 H/a0
step length    3.2972399E-01 a0      max. step      5.6351831E-02 a0

--------------------------------------------------------------------------------

***  Geometry step: 14

 iSCC Total electronic   Diff electronic      SCC error    
    1   -0.19522126E+03    0.00000000E+00    0.16153189E-01
    2   -0.19519944E+03    0.21815576E-01    0.91751766E-02
    3   -0.19519952E+03   -0.83400989E-04    0.18150329E-02
    4   -0.19519955E+03   -0.22956513E-04    0.46772617E-03
    5   -0.19519955E+03   -0.11864106E-05    0.18177472E-03
    6   -0.19519955E+03   -0.30666655E-07    0.33885520E-04
    7   -0.19519955E+03   -0.13442900E-08    0.32628962E-05
    8   -0.19519955E+03   -0.12497026E-09    0.85438306E-06
    9   -0.19519955E+03   -0.70201622E-11    0.18660913E-06
   10   -0.19519955E+03   -0.54001248E-12    0.26045670E-07
   11   -0.19519955E+03    0.00000000E+00    0.68493167E-08

Total Energy:                     -193.2133248141 H        -5257.6021 eV
Extrapolated to 0K:               -193.2133248141 H        -5257.6021 eV
Total Mermin free energy:         -193.2133248141 H        -5257.6021 eV
Force related energy:             -193.2133248141 H        -5257.6021 eV

Volume:                              0.107946E+05 au^3   0.159959E+04 A^3
Pressure:                            0.585682E-04 au     0.172314E+10 Pa
>> Charges saved for restart in charges.bin

total energy  -1.9321332E+02 H       energy change -6.8361821E-03 H
gradient norm  5.6000451E-02 H/a0    max. gradient  1.2492645E-02 H/a0
step length    2.8450690E-01 a0      max. step      4.9269568E-02 a0

--------------------------------------------------------------------------------

***  Geometry step: 15

 iSCC Total electronic   Diff electronic      SCC error    
    1   -0.19519955E+03    0.00000000E+00    0.92679874E-02
    2   -0.19516795E+03    0.31593770E-01    0.54857484E-02
    3   -0.19516800E+03   -0.45684053E-04    0.13948707E-02
    4   -0.19516801E+03   -0.10561306E-04    0.32223424E-03
    5   -0.19516801E+03   -0.50459653E-06    0.12445587E-03
    6   -0.19516801E+03   -0.25168731E-07    0.29148007E-04
    7   -0.19516801E+03   -0.74223294E-09    0.32187985E-05
    8   -0.19516801E+03   -0.66165740E-10    0.43574233E-06
    9   -0.19516801E+03   -0.42916781E-11    0.12931560E-06
   10   -0.19516801E+03   -0.28421709E-12    0.21362141E-07
   11   -0.19516801E+03   -0.28421709E-13    0.32988465E-08

Total Energy:                     -193.2179032596 H        -5257.7267 eV
Extrapolated to 0K:               -193.2179032596 H        -5257.7267 eV
Total Mermin free energy:         -193.2179032596 H        -5257.7267 eV
Force related energy:             -193.2179032596 H        -5257.7267 eV

Volume:                              0.108472E+05 au^3   0.160740E+04 A^3
Pressure:                            0.415989E-04 au     0.122388E+10 Pa
>> Charges saved for restart in charges.bin

total energy  -1.9321790E+02 H       energy change -4.5784455E-03 H
gradient norm  4.9319371E-02 H/a0    max. gradient  8.7601691E-03 H/a0
step length    2.3842211E-01 a0      max. step      4.4489089E-02 a0

--------------------------------------------------------------------------------

***  Geometry step: 16

 iSCC Total electronic   Diff electronic      SCC error    
    1   -0.19516801E+03    0.00000000E+00    0.92529333E-02
    2   -0.19514063E+03    0.27380553E-01    0.52640794E-02
    3   -0.19514067E+03   -0.37977930E-04    0.11520041E-02
    4   -0.19514068E+03   -0.69884597E-05    0.26427702E-03
    5   -0.19514068E+03   -0.28054575E-06    0.95932937E-04
    6   -0.19514068E+03   -0.20718289E-07    0.27045970E-04
    7   -0.19514068E+03   -0.54532734E-09    0.34212981E-05
    8   -0.19514068E+03   -0.39676706E-10    0.45166376E-06
    9   -0.19514068E+03   -0.25011104E-11    0.13805396E-06
   10   -0.19514068E+03   -0.11368684E-12    0.23632023E-07
   11   -0.19514068E+03    0.56843419E-13    0.34345837E-08

Total Energy:                     -193.2220638311 H        -5257.8399 eV
Extrapolated to 0K:               -193.2220638311 H        -5257.8399 eV
Total Mermin free energy:         -193.2220638311 H        -5257.8399 eV
Force related energy:             -193.2220638311 H        -5257.8399 eV

Volume:                              0.108952E+05 au^3   0.161450E+04 A^3
Pressure:                            0.259968E-04 au     0.764852E+09 Pa
>> Charges saved for restart in charges.bin

total energy  -1.9322206E+02 H       energy change -4.1605715E-03 H
gradient norm  4.9235111E-02 H/a0    max. gradient  1.0047067E-02 H/a0
step length    2.2679223E-01 a0      max. step      4.2731162E-02 a0

--------------------------------------------------------------------------------

***  Geometry step: 17

 iSCC Total electronic   Diff electronic      SCC error    
    1   -0.19514068E+03    0.00000000E+00    0.11388266E-01
    2   -0.19513109E+03    0.95883625E-02    0.63404387E-02
    3   -0.19513114E+03   -0.53264322E-04    0.14235012E-02
    4   -0.19513115E+03   -0.90486415E-05    0.15139207E-03
    5   -0.19513115E+03   -0.42778404E-06    0.66393305E-04
    6   -0.19513115E+03   -0.29587341E-07    0.22969971E-04
    7   -0.19513115E+03   -0.63735683E-09    0.47086796E-05
    8   -0.19513115E+03   -0.26091129E-10    0.12009704E-05
    9   -0.19513115E+03   -0.23590019E-11    0.20560337E-06
   10   -0.19513115E+03   -0.19895197E-12    0.35799961E-07
   11   -0.19513115E+03    0.28421709E-13    0.39597841E-08

Total Energy:                     -193.2270181658 H        -5257.9747 eV
Extrapolated to 0K:               -193.2270181658 H        -5257.9747 eV
Total Mermin free energy:         -193.2270181658 H        -5257.9747 eV
Force related energy:             -193.2270181658 H        -5257.9747 eV

Volume:                              0.109392E+05 au^3   0.162103E+04 A^3
Pressure:                            0.172958E-04 au     0.508861E+09 Pa
>> Charges saved for restart in charges.bin

total energy  -1.9322702E+02 H       energy change -4.9543347E-03 H
gradient norm  5.6164326E-02 H/a0    max. gradient  1.2306860E-02 H/a0
step length    2.6740655E-01 a0      max. step      4.6928166E-02 a0

--------------------------------------------------------------------------------

***  Geometry step: 18

 iSCC Total electronic   Diff electronic      SCC error    
    1   -0.19513115E+03    0.00000000E+00    0.15696999E-01
    2   -0.19513994E+03   -0.87878705E-02    0.92374097E-02
    3   -0.19514003E+03   -0.93815826E-04    0.25611271E-02
    4   -0.19514005E+03   -0.13733369E-04    0.20577879E-03
    5   -0.19514005E+03   -0.77642261E-06    0.41437626E-04
    6   -0.19514005E+03   -0.45578332E-07    0.10766631E-04
    7   -0.19514005E+03   -0.91512220E-09    0.18049379E-05
    8   -0.19514005E+03   -0.30297542E-10    0.64058294E-06
    9   -0.19514005E+03   -0.16484591E-11    0.17517956E-06
   10   -0.19514005E+03   -0.19895197E-12    0.45572389E-07
   11   -0.19514005E+03   -0.85265128E-13    0.52461089E-08

Total Energy:                     -193.2327193665 H        -5258.1298 eV
Extrapolated to 0K:               -193.2327193665 H        -5258.1298 eV
Total Mermin free energy:         -193.2327193665 H        -5258.1298 eV
Force related energy:             -193.2327193665 H        -5258.1298 eV

Volume:                              0.109790E+05 au^3   0.162692E+04 A^3
Pressure:                            0.165049E-04 au     0.485592E+09 Pa
>> Charges saved for restart in charges.bin

total energy  -1.9323272E+02 H       energy change -5.7012008E-03 H
gradient norm  5.7761513E-02 H/a0    max. gradient  1.2210125E-02 H/a0
step length    3.2109478E-01 a0      max. step      5.7277504E-02 a0

--------------------------------------------------------------------------------

***  Geometry step: 19

 iSCC Total electronic   Diff electronic      SCC error    
    1   -0.19514005E+03    0.00000000E+00    0.15394695E-01
    2   -0.19515987E+03   -0.19827258E-01    0.90628791E-02
    3   -0.19516002E+03   -0.14585673E-03    0.29971728E-02
    4   -0.19516004E+03   -0.17884621E-04    0.23374736E-03
    5   -0.19516004E+03   -0.85442940E-06    0.51111619E-04
    6   -0.19516004E+03   -0.53917404E-07    0.19499976E-04
    7   -0.19516004E+03   -0.12921078E-08    0.56067128E-05
    8   -0.19516004E+03   -0.41097792E-10    0.18787395E-05
    9   -0.19516004E+03   -0.22737368E-11    0.39491258E-06
   10   -0.19516004E+03   -0.34106051E-12    0.51458382E-07
   11   -0.19516004E+03   -0.56843419E-13    0.46026458E-08

Total Energy:                     -193.2381109642 H        -5258.2765 eV
Extrapolated to 0K:               -193.2381109642 H        -5258.2765 eV
Total Mermin free energy:         -193.2381109642 H        -5258.2765 eV
Force related energy:             -193.2381109642 H        -5258.2765 eV

Volume:                              0.110140E+05 au^3   0.163211E+04 A^3
Pressure:                            0.206021E-04 au     0.606133E+09 Pa
>> Charges saved for restart in charges.bin

total energy  -1.9323811E+02 H       energy change -5.3915977E-03 H
gradient norm  5.1423182E-02 H/a0    max. gradient  1.0869059E-02 H/a0
step length    3.4632646E-01 a0      max. step      6.5313192E-02 a0

--------------------------------------------------------------------------------

***  Geometry step: 20

 iSCC Total electronic   Diff electronic      SCC error    
    1   -0.19516004E+03    0.00000000E+00    0.11405593E-01
    2   -0.19517830E+03   -0.18260250E-01    0.56146725E-02
    3   -0.19517843E+03   -0.13384419E-03    0.19323995E-02
    4   -0.19517845E+03   -0.15268124E-04    0.29786657E-03
    5   -0.19517845E+03   -0.57246640E-06    0.78620755E-04
    6   -0.19517845E+03   -0.43726601E-07    0.26760091E-04
    7   -0.19517845E+03   -0.14046861E-08    0.63652680E-05
    8   -0.19517845E+03   -0.42035708E-10    0.17515334E-05
    9   -0.19517845E+03   -0.31263880E-11    0.29308336E-06
   10   -0.19517845E+03   -0.36948222E-12    0.42030127E-07
   11   -0.19517845E+03   -0.56843419E-13    0.48012927E-08

Total Energy:                     -193.2425831715 H        -5258.3982 eV
Extrapolated to 0K:               -193.2425831715 H        -5258.3982 eV
Total Mermin free energy:         -193.2425831715 H        -5258.3982 eV
Force related energy:             -193.2425831715 H        -5258.3982 eV

Volume:                              0.110471E+05 au^3   0.163701E+04 A^3
Pressure:                            0.248811E-04 au     0.732026E+09 Pa
>> Charges saved for restart in charges.bin

total energy  -1.9324258E+02 H       energy change -4.4722073E-03 H
gradient norm  4.3125150E-02 H/a0    max. gradient  8.7612415E-03 H/a0
step length    3.2758462E-01 a0      max. step      6.2580418E-02 a0

--------------------------------------------------------------------------------

***  Geometry step: 21

 iSCC Total electronic   Diff electronic      SCC error    
    1   -0.19517845E+03    0.00000000E+00    0.10627889E-01
    2   -0.19518715E+03   -0.86987572E-02    0.59824523E-02
    3   -0.19518726E+03   -0.11399800E-03    0.18168089E-02
    4   -0.19518728E+03   -0.13703850E-04    0.37606196E-03
    5   -0.19518728E+03   -0.58111766E-06    0.10648963E-03
    6   -0.19518728E+03   -0.37434035E-07    0.32623659E-04
    7   -0.19518728E+03   -0.12972237E-08    0.54777966E-05
    8   -0.19518728E+03   -0.62073013E-10    0.11636019E-05
    9   -0.19518728E+03   -0.46327386E-11    0.25264778E-06
   10   -0.19518728E+03   -0.56843419E-12    0.27660126E-07
   11   -0.19518728E+03    0.00000000E+00    0.46887529E-08

Total Energy:                     -193.2463647282 H        -5258.5011 eV
Extrapolated to 0K:               -193.2463647282 H        -5258.5011 eV
Total Mermin free energy:         -193.2463647282 H        -5258.5011 eV
Force related energy:             -193.2463647282 H        -5258.5011 eV

Volume:                              0.110842E+05 au^3   0.164251E+04 A^3
Pressure:                            0.246321E-04 au     0.724701E+09 Pa
>> Charges saved for restart in charges.bin

total energy  -1.9324636E+02 H       energy change -3.7815568E-03 H
gradient norm  3.9022721E-02 H/a0    max. gradient  8.2029031E-03 H/a0
step length    3.1931623E-01 a0      max. step      5.8956069E-02 a0

--------------------------------------------------------------------------------

***  Geometry step: 22

 iSCC Total electronic   Diff electronic      SCC error    
    1   -0.19518728E+03    0.00000000E+00    0.10538298E-01
    2   -0.19518549E+03    0.17834387E-02    0.59003655E-02
    3   -0.19518555E+03   -0.56223063E-04    0.13329593E-02
    4   -0.19518556E+03   -0.88840357E-05    0.28293504E-03
    5   -0.19518556E+03   -0.47871166E-06    0.94327573E-04
    6   -0.19518556E+03   -0.23007544E-07    0.24325375E-04
    7   -0.19518556E+03   -0.74172135E-09    0.37732966E-05
    8   -0.19518556E+03   -0.54086513E-10    0.74660869E-06
    9   -0.19518556E+03   -0.35242920E-11    0.11135138E-06
   10   -0.19518556E+03   -0.25579538E-12    0.18511095E-07
   11   -0.19518556E+03    0.00000000E+00    0.32082039E-08

Total Energy:                     -193.2488187508 H        -5258.5679 eV
Extrapolated to 0K:               -193.2488187508 H        -5258.5679 eV
Total Mermin free energy:         -193.2488187508 H        -5258.5679 eV
Force related energy:             -193.2488187508 H        -5258.5679 eV

Volume:                              0.111192E+05 au^3   0.164769E+04 A^3
Pressure:                            0.216182E-04 au     0.636029E+09 Pa
>> Charges saved for restart in charges.bin

total energy  -1.9324882E+02 H       energy change -2.4540225E-03 H
gradient norm  3.7673077E-02 H/a0    max. gradient  9.1603473E-03 H/a0
step length    2.5503798E-01 a0      max. step      4.8166564E-02 a0

--------------------------------------------------------------------------------

***  Geometry step: 23

 iSCC Total electronic   Diff electronic      SCC error    
    1   -0.19518556E+03    0.00000000E+00    0.63469830E-02
    2   -0.19517603E+03    0.95234486E-02    0.35438349E-02
    3   -0.19517606E+03   -0.21237534E-04    0.69508456E-03
    4   -0.19517606E+03   -0.43039757E-05    0.13329306E-03
    5   -0.19517606E+03   -0.22678273E-06    0.51332044E-04
    6   -0.19517606E+03   -0.67166468E-08    0.12287983E-04
    7   -0.19517606E+03   -0.23123903E-09    0.20152209E-05
    8   -0.19517606E+03   -0.13301360E-10    0.39918269E-06
    9   -0.19517606E+03   -0.10800250E-11    0.62209018E-07
   10   -0.19517606E+03   -0.14210855E-12    0.15017582E-07
   11   -0.19517606E+03   -0.85265128E-13    0.26405305E-08

Total Energy:                     -193.2502928916 H        -5258.6080 eV
Extrapolated to 0K:               -193.2502928916 H        -5258.6080 eV
Total Mermin free energy:         -193.2502928916 H        -5258.6080 eV
Force related energy:             -193.2502928916 H        -5258.6080 eV

Volume:                              0.111467E+05 au^3   0.165178E+04 A^3
Pressure:                            0.164340E-04 au     0.483506E+09 Pa
>> Charges saved for restart in charges.bin

total energy  -1.9325029E+02 H       energy change -1.4741409E-03 H
gradient norm  2.7582350E-02 H/a0    max. gradient  7.3405786E-03 H/a0
step length    1.5110825E-01 a0      max. step      2.8401460E-02 a0

--------------------------------------------------------------------------------

***  Geometry step: 24

 iSCC Total electronic   Diff electronic      SCC error    
    1   -0.19517606E+03    0.00000000E+00    0.62186580E-02
    2   -0.19516577E+03    0.10294105E-01    0.35691148E-02
    3   -0.19516579E+03   -0.27140720E-04    0.90437031E-03
    4   -0.19516580E+03   -0.45359015E-05    0.81105358E-04
    5   -0.19516580E+03   -0.16513843E-06    0.30501396E-04
    6   -0.19516580E+03   -0.73233934E-08    0.10025697E-04
    7   -0.19516580E+03   -0.12502710E-09    0.21136521E-05
    8   -0.19516580E+03   -0.64517280E-11    0.40270999E-06
    9   -0.19516580E+03   -0.90949470E-12    0.89475051E-07
   10   -0.19516580E+03   -0.17053026E-12    0.14358667E-07
   11   -0.19516580E+03    0.28421709E-13    0.35388203E-08

Total Energy:                     -193.2513160431 H        -5258.6359 eV
Extrapolated to 0K:               -193.2513160431 H        -5258.6359 eV
Total Mermin free energy:         -193.2513160431 H        -5258.6359 eV
Force related energy:             -193.2513160431 H        -5258.6359 eV

Volume:                              0.111700E+05 au^3   0.165522E+04 A^3
Pressure:                            0.106088E-04 au     0.312120E+09 Pa
>> Charges saved for restart in charges.bin

total energy  -1.9325132E+02 H       energy change -1.0231515E-03 H
gradient norm  2.2068147E-02 H/a0    max. gradient  5.1989149E-03 H/a0
step length    1.0880177E-01 a0      max. step      2.4480140E-02 a0

--------------------------------------------------------------------------------

***  Geometry step: 25

 iSCC Total electronic   Diff electronic      SCC error    
    1   -0.19516580E+03    0.00000000E+00    0.33148600E-02
    2   -0.19516428E+03    0.15225734E-02    0.13087355E-02
    3   -0.19516429E+03   -0.97122181E-05    0.40673069E-03
    4   -0.19516429E+03   -0.12370865E-05    0.41127190E-04
    5   -0.19516429E+03   -0.41766754E-07    0.63846143E-05
    6   -0.19516429E+03   -0.17443256E-08    0.20435940E-05
    7   -0.19516429E+03   -0.37800874E-10    0.53916897E-06
    8   -0.19516429E+03   -0.11937118E-11    0.18086546E-06
    9   -0.19516429E+03   -0.11368684E-12    0.58906536E-07
   10   -0.19516429E+03    0.00000000E+00    0.12032482E-07
   11   -0.19516429E+03   -0.28421709E-13    0.14041941E-08

Total Energy:                     -193.2519729036 H        -5258.6537 eV
Extrapolated to 0K:               -193.2519729036 H        -5258.6537 eV
Total Mermin free energy:         -193.2519729036 H        -5258.6537 eV
Force related energy:             -193.2519729036 H        -5258.6537 eV

Volume:                              0.111819E+05 au^3   0.165699E+04 A^3
Pressure:                            0.909557E-05 au     0.267601E+09 Pa
>> Charges saved for restart in charges.bin

total energy  -1.9325197E+02 H       energy change -6.5686050E-04 H
gradient norm  2.3205393E-02 H/a0    max. gradient  5.6082122E-03 H/a0
step length    6.1973474E-02 a0      max. step      1.7043224E-02 a0

--------------------------------------------------------------------------------

***  Geometry step: 26

 iSCC Total electronic   Diff electronic      SCC error    
    1   -0.19516429E+03    0.00000000E+00    0.72837143E-02
    2   -0.19516594E+03   -0.16537545E-02    0.34423656E-02
    3   -0.19516598E+03   -0.42390783E-04    0.10522625E-02
    4   -0.19516599E+03   -0.56221976E-05    0.12564368E-03
    5   -0.19516599E+03   -0.23064496E-06    0.44873565E-04
    6   -0.19516599E+03   -0.83656460E-08    0.16641742E-04
    7   -0.19516599E+03   -0.17493562E-09    0.32351477E-05
    8   -0.19516599E+03   -0.11567636E-10    0.63794413E-06
    9   -0.19516599E+03   -0.90949470E-12    0.12753515E-06
   10   -0.19516599E+03   -0.11368684E-12    0.14149969E-07
   11   -0.19516599E+03   -0.85265128E-13    0.18748367E-08

Total Energy:                     -193.2532314868 H        -5258.6880 eV
Extrapolated to 0K:               -193.2532314868 H        -5258.6880 eV
Total Mermin free energy:         -193.2532314868 H        -5258.6880 eV
Force related energy:             -193.2532314868 H        -5258.6880 eV

Volume:                              0.112098E+05 au^3   0.166112E+04 A^3
Pressure:                            0.782018E-05 au     0.230078E+09 Pa
>> Charges saved for restart in charges.bin

total energy  -1.9325323E+02 H       energy change -1.2585832E-03 H
gradient norm  2.4627839E-02 H/a0    max. gradient  5.3567609E-03 H/a0
step length    1.4855732E-01 a0      max. step      4.1094898E-02 a0

--------------------------------------------------------------------------------

***  Geometry step: 27

 iSCC Total electronic   Diff electronic      SCC error    
    1   -0.19516599E+03    0.00000000E+00    0.56356144E-02
    2   -0.19517097E+03   -0.49845453E-02    0.25554862E-02
    3   -0.19517100E+03   -0.25471405E-04    0.87136410E-03
    4   -0.19517100E+03   -0.39076979E-05    0.16189446E-03
    5   -0.19517100E+03   -0.18408451E-06    0.56158939E-04
    6   -0.19517100E+03   -0.58841749E-08    0.16852665E-04
    7   -0.19517100E+03   -0.15509727E-09    0.22933914E-05
    8   -0.19517100E+03   -0.12875034E-10    0.37570309E-06
    9   -0.19517100E+03   -0.99475983E-12    0.92673615E-07
   10   -0.19517100E+03   -0.85265128E-13    0.13662995E-07
   11   -0.19517100E+03    0.56843419E-13    0.26576878E-08

Total Energy:                     -193.2541253322 H        -5258.7123 eV
Extrapolated to 0K:               -193.2541253322 H        -5258.7123 eV
Total Mermin free energy:         -193.2541253322 H        -5258.7123 eV
Force related energy:             -193.2541253322 H        -5258.7123 eV

Volume:                              0.112362E+05 au^3   0.166503E+04 A^3
Pressure:                            0.801660E-05 au     0.235856E+09 Pa
>> Charges saved for restart in charges.bin

total energy  -1.9325413E+02 H       energy change -8.9384543E-04 H
gradient norm  2.3055542E-02 H/a0    max. gradient  5.9321653E-03 H/a0
step length    1.4351923E-01 a0      max. step      3.6840900E-02 a0

--------------------------------------------------------------------------------

***  Geometry step: 28

 iSCC Total electronic   Diff electronic      SCC error    
    1   -0.19517100E+03    0.00000000E+00    0.55518247E-02
    2   -0.19517657E+03   -0.55697110E-02    0.31502674E-02
    3   -0.19517659E+03   -0.21783818E-04    0.99085339E-03
    4   -0.19517660E+03   -0.36030214E-05    0.18360494E-03
    5   -0.19517660E+03   -0.19358990E-06    0.62201730E-04
    6   -0.19517660E+03   -0.47499213E-08    0.12904284E-04
    7   -0.19517660E+03   -0.14262014E-09    0.16607468E-05
    8   -0.19517660E+03   -0.10572876E-10    0.24710558E-06
    9   -0.19517660E+03   -0.14210855E-11    0.62627457E-07
   10   -0.19517660E+03    0.56843419E-13    0.85874512E-08

Total Energy:                     -193.2549036874 H        -5258.7335 eV
Extrapolated to 0K:               -193.2549036874 H        -5258.7335 eV
Total Mermin free energy:         -193.2549036874 H        -5258.7335 eV
Force related energy:             -193.2549036874 H        -5258.7335 eV

Volume:                              0.112641E+05 au^3   0.166916E+04 A^3
Pressure:                            0.876437E-05 au     0.257856E+09 Pa
>> Charges saved for restart in charges.bin

total energy  -1.9325490E+02 H       energy change -7.7835520E-04 H
gradient norm  1.7621955E-02 H/a0    max. gradient  4.4605774E-03 H/a0
step length    1.5374510E-01 a0      max. step      3.7090607E-02 a0

--------------------------------------------------------------------------------

***  Geometry step: 29

 iSCC Total electronic   Diff electronic      SCC error    
    1   -0.19517660E+03    0.00000000E+00    0.39824420E-02
    2   -0.19517872E+03   -0.21214824E-02    0.22405605E-02
    3   -0.19517873E+03   -0.89875699E-05    0.62699654E-03
    4   -0.19517873E+03   -0.16123425E-05    0.11889515E-03
    5   -0.19517873E+03   -0.87705587E-07    0.40573117E-04
    6   -0.19517873E+03   -0.16106014E-08    0.58555289E-05
    7   -0.19517873E+03   -0.57440275E-10    0.73032875E-06
    8   -0.19517873E+03   -0.42632564E-11    0.20395941E-06
    9   -0.19517873E+03   -0.39790393E-12    0.37752472E-07
   10   -0.19517873E+03   -0.28421709E-13    0.50149396E-08

Total Energy:                     -193.2553775988 H        -5258.7464 eV
Extrapolated to 0K:               -193.2553775988 H        -5258.7464 eV
Total Mermin free energy:         -193.2553775988 H        -5258.7464 eV
Force related energy:             -193.2553775988 H        -5258.7464 eV

Volume:                              0.112821E+05 au^3   0.167184E+04 A^3
Pressure:                            0.874677E-05 au     0.257339E+09 Pa
>> Charges saved for restart in charges.bin

total energy  -1.9325538E+02 H       energy change -4.7391140E-04 H
gradient norm  1.5176898E-02 H/a0    max. gradient  5.5622507E-03 H/a0
step length    1.0225343E-01 a0      max. step      2.1948183E-02 a0

--------------------------------------------------------------------------------

***  Geometry step: 30

 iSCC Total electronic   Diff electronic      SCC error    
    1   -0.19517873E+03    0.00000000E+00    0.33613387E-02
    2   -0.19517784E+03    0.89457233E-03    0.19744325E-02
    3   -0.19517784E+03   -0.64465804E-05    0.43316032E-03
    4   -0.19517784E+03   -0.12003223E-05    0.78146279E-04
    5   -0.19517784E+03   -0.58354232E-07    0.28736543E-04
    6   -0.19517784E+03   -0.14205170E-08    0.65070247E-05
    7   -0.19517784E+03   -0.35328185E-10    0.78091032E-06
    8   -0.19517784E+03   -0.34674486E-11    0.17901814E-06
    9   -0.19517784E+03   -0.28421709E-12    0.48543744E-07
   10   -0.19517784E+03    0.56843419E-13    0.42170005E-08

Total Energy:                     -193.2557563676 H        -5258.7567 eV
Extrapolated to 0K:               -193.2557563676 H        -5258.7567 eV
Total Mermin free energy:         -193.2557563676 H        -5258.7567 eV
Force related energy:             -193.2557563676 H        -5258.7567 eV

Volume:                              0.112952E+05 au^3   0.167378E+04 A^3
Pressure:                            0.781245E-05 au     0.229850E+09 Pa
>> Charges saved for restart in charges.bin

total energy  -1.9325576E+02 H       energy change -3.7876881E-04 H
gradient norm  1.5423447E-02 H/a0    max. gradient  5.3129071E-03 H/a0
step length    7.7803510E-02 a0      max. step      1.5871977E-02 a0

--------------------------------------------------------------------------------

***  Geometry step: 31

 iSCC Total electronic   Diff electronic      SCC error    
    1   -0.19517784E+03    0.00000000E+00    0.44575212E-02
    2   -0.19517508E+03    0.27682180E-02    0.25539589E-02
    3   -0.19517508E+03   -0.50237205E-05    0.50672935E-03
    4   -0.19517508E+03   -0.95946535E-06    0.43001435E-04
    5   -0.19517508E+03   -0.42477865E-07    0.14158615E-04
    6   -0.19517508E+03   -0.12479973E-08    0.34439889E-05
    7   -0.19517508E+03   -0.19554136E-10    0.69210153E-06
    8   -0.19517508E+03   -0.14495072E-11    0.11265706E-06
    9   -0.19517508E+03   -0.85265128E-13    0.25088516E-07
   10   -0.19517508E+03    0.00000000E+00    0.26403528E-08

Total Energy:                     -193.2561159236 H        -5258.7665 eV
Extrapolated to 0K:               -193.2561159236 H        -5258.7665 eV
Total Mermin free energy:         -193.2561159236 H        -5258.7665 eV
Force related energy:             -193.2561159236 H        -5258.7665 eV

Volume:                              0.113051E+05 au^3   0.167525E+04 A^3
Pressure:                            0.605603E-05 au     0.178175E+09 Pa
>> Charges saved for restart in charges.bin

total energy  -1.9325612E+02 H       energy change -3.5955595E-04 H
gradient norm  1.5321527E-02 H/a0    max. gradient  4.1157878E-03 H/a0
step length    6.9196999E-02 a0      max. step      1.3192004E-02 a0

--------------------------------------------------------------------------------

***  Geometry step: 32

 iSCC Total electronic   Diff electronic      SCC error    
    1   -0.19517508E+03    0.00000000E+00    0.50060685E-02
    2   -0.19517203E+03    0.30506622E-02    0.28443412E-02
    3   -0.19517204E+03   -0.54778574E-05    0.57223607E-03
    4   -0.19517204E+03   -0.10308181E-05    0.50477076E-04
    5   -0.19517204E+03   -0.44782979E-07    0.18429328E-04
    6   -0.19517204E+03   -0.16659669E-08    0.46584194E-05
    7   -0.19517204E+03   -0.29245939E-10    0.11331591E-05
    8   -0.19517204E+03   -0.14210855E-11    0.18811061E-06
    9   -0.19517204E+03   -0.11368684E-12    0.28836913E-07
   10   -0.19517204E+03   -0.28421709E-13    0.44932058E-08

Total Energy:                     -193.2565561730 H        -5258.7785 eV
Extrapolated to 0K:               -193.2565561730 H        -5258.7785 eV
Total Mermin free energy:         -193.2565561730 H        -5258.7785 eV
Force related energy:             -193.2565561730 H        -5258.7785 eV

Volume:                              0.113149E+05 au^3   0.167669E+04 A^3
Pressure:                            0.395483E-05 au     0.116355E+09 Pa
>> Charges saved for restart in charges.bin

total energy  -1.9325656E+02 H       energy change -4.4024942E-04 H
gradient norm  1.6813656E-02 H/a0    max. gradient  3.5066093E-03 H/a0
step length    8.9410554E-02 a0      max. step      1.9412828E-02 a0

--------------------------------------------------------------------------------

***  Geometry step: 33

 iSCC Total electronic   Diff electronic      SCC error    
    1   -0.19517204E+03    0.00000000E+00    0.38743660E-02
    2   -0.19517090E+03    0.11418729E-02    0.21680702E-02
    3   -0.19517090E+03   -0.72120075E-05    0.51773890E-03
    4   -0.19517090E+03   -0.11988231E-05    0.50771584E-04
    5   -0.19517090E+03   -0.47420770E-07    0.17941573E-04
    6   -0.19517090E+03   -0.17989237E-08    0.44558353E-05
    7   -0.19517090E+03   -0.43513637E-10    0.88410108E-06
    8   -0.19517090E+03   -0.20463631E-11    0.20176891E-06
    9   -0.19517090E+03   -0.22737368E-12    0.36182197E-07
   10   -0.19517090E+03    0.00000000E+00    0.75725106E-08

Total Energy:                     -193.2571117898 H        -5258.7936 eV
Extrapolated to 0K:               -193.2571117898 H        -5258.7936 eV
Total Mermin free energy:         -193.2571117898 H        -5258.7936 eV
Force related energy:             -193.2571117898 H        -5258.7936 eV

Volume:                              0.113252E+05 au^3   0.167822E+04 A^3
Pressure:                            0.277645E-05 au     0.816860E+08 Pa
>> Charges saved for restart in charges.bin

total energy  -1.9325711E+02 H       energy change -5.5561683E-04 H
gradient norm  1.9331743E-02 H/a0    max. gradient  3.9426313E-03 H/a0
step length    1.2359237E-01 a0      max. step      2.8214159E-02 a0

--------------------------------------------------------------------------------

***  Geometry step: 34

 iSCC Total electronic   Diff electronic      SCC error    
    1   -0.19517090E+03    0.00000000E+00    0.39352585E-02
    2   -0.19517164E+03   -0.73274828E-03    0.20399495E-02
    3   -0.19517165E+03   -0.96224337E-05    0.52131868E-03
    4   -0.19517165E+03   -0.15530601E-05    0.84469217E-04
    5   -0.19517165E+03   -0.48859846E-07    0.27732671E-04
    6   -0.19517165E+03   -0.22799611E-08    0.72123187E-05
    7   -0.19517165E+03   -0.50278004E-10    0.10887038E-05
    8   -0.19517165E+03   -0.28705927E-11    0.20075681E-06
    9   -0.19517165E+03   -0.17053026E-12    0.39164301E-07
   10   -0.19517165E+03   -0.28421709E-13    0.81084424E-08

Total Energy:                     -193.2577678855 H        -5258.8114 eV
Extrapolated to 0K:               -193.2577678855 H        -5258.8114 eV
Total Mermin free energy:         -193.2577678855 H        -5258.8114 eV
Force related energy:             -193.2577678855 H        -5258.8114 eV

Volume:                              0.113384E+05 au^3   0.168018E+04 A^3
Pressure:                            0.211336E-05 au     0.621773E+08 Pa
>> Charges saved for restart in charges.bin

total energy  -1.9325777E+02 H       energy change -6.5609569E-04 H
gradient norm  2.0321969E-02 H/a0    max. gradient  3.8233795E-03 H/a0
step length    1.6105518E-01 a0      max. step      3.6526234E-02 a0

--------------------------------------------------------------------------------

***  Geometry step: 35

 iSCC Total electronic   Diff electronic      SCC error    
    1   -0.19517165E+03    0.00000000E+00    0.38522118E-02
    2   -0.19517634E+03   -0.46876095E-02    0.18935213E-02
    3   -0.19517635E+03   -0.13036397E-04    0.55314259E-03
    4   -0.19517635E+03   -0.22951587E-05    0.10556584E-03
    5   -0.19517635E+03   -0.67687523E-07    0.33731463E-04
    6   -0.19517635E+03   -0.28643399E-08    0.77964850E-05
    7   -0.19517635E+03   -0.55138116E-10    0.11169878E-05
    8   -0.19517635E+03   -0.28421709E-11    0.19595381E-06
    9   -0.19517635E+03   -0.54001248E-12    0.51395197E-07
   10   -0.19517635E+03    0.56843419E-13    0.56481921E-08

Total Energy:                     -193.2584611065 H        -5258.8303 eV
Extrapolated to 0K:               -193.2584611065 H        -5258.8303 eV
Total Mermin free energy:         -193.2584611065 H        -5258.8303 eV
Force related energy:             -193.2584611065 H        -5258.8303 eV

Volume:                              0.113527E+05 au^3   0.168229E+04 A^3
Pressure:                            0.297860E-05 au     0.876333E+08 Pa
>> Charges saved for restart in charges.bin

total energy  -1.9325846E+02 H       energy change -6.9322102E-04 H
gradient norm  1.9464395E-02 H/a0    max. gradient  6.2500203E-03 H/a0
step length    1.8829311E-01 a0      max. step      4.1331684E-02 a0

--------------------------------------------------------------------------------

***  Geometry step: 36

 iSCC Total electronic   Diff electronic      SCC error    
    1   -0.19517635E+03    0.00000000E+00    0.59424691E-02
    2   -0.19518243E+03   -0.60808525E-02    0.33608818E-02
    3   -0.19518244E+03   -0.12559612E-04    0.80830553E-03
    4   -0.19518245E+03   -0.22065373E-05    0.75286850E-04
    5   -0.19518245E+03   -0.71838059E-07    0.24680448E-04
    6   -0.19518245E+03   -0.29990019E-08    0.66999349E-05
    7   -0.19518245E+03   -0.53404392E-10    0.10455848E-05
    8   -0.19518245E+03   -0.38653525E-11    0.20881216E-06
    9   -0.19518245E+03   -0.28421709E-12    0.54026921E-07
   10   -0.19518245E+03   -0.11368684E-12    0.72059310E-08

Total Energy:                     -193.2590311689 H        -5258.8458 eV
Extrapolated to 0K:               -193.2590311689 H        -5258.8458 eV
Total Mermin free energy:         -193.2590311689 H        -5258.8458 eV
Force related energy:             -193.2590311689 H        -5258.8458 eV

Volume:                              0.113662E+05 au^3   0.168430E+04 A^3
Pressure:                            0.427842E-05 au     0.125875E+09 Pa
>> Charges saved for restart in charges.bin

total energy  -1.9325903E+02 H       energy change -5.7006233E-04 H
gradient norm  1.6494430E-02 H/a0    max. gradient  6.8150793E-03 H/a0
step length    1.7139837E-01 a0      max. step      3.5220704E-02 a0

--------------------------------------------------------------------------------

***  Geometry step: 37

 iSCC Total electronic   Diff electronic      SCC error    
    1   -0.19518245E+03    0.00000000E+00    0.56308594E-02
    2   -0.19518803E+03   -0.55794946E-02    0.31547681E-02
    3   -0.19518803E+03   -0.90698100E-05    0.72567482E-03
    4   -0.19518804E+03   -0.15416099E-05    0.94249093E-04
    5   -0.19518804E+03   -0.59595891E-07    0.32580831E-04
    6   -0.19518804E+03   -0.26519729E-08    0.88064016E-05
    7   -0.19518804E+03   -0.69690032E-10    0.12282495E-05
    8   -0.19518804E+03   -0.48316906E-11    0.23988405E-06
    9   -0.19518804E+03   -0.22737368E-12    0.68594403E-07
   10   -0.19518804E+03    0.00000000E+00    0.56787082E-08

Total Energy:                     -193.2594851545 H        -5258.8582 eV
Extrapolated to 0K:               -193.2594851545 H        -5258.8582 eV
Total Mermin free energy:         -193.2594851545 H        -5258.8582 eV
Force related energy:             -193.2594851545 H        -5258.8582 eV

Volume:                              0.113770E+05 au^3   0.168590E+04 A^3
Pressure:                            0.581341E-05 au     0.171036E+09 Pa
>> Charges saved for restart in charges.bin

total energy  -1.9325949E+02 H       energy change -4.5398562E-04 H
gradient norm  1.5834788E-02 H/a0    max. gradient  5.9417243E-03 H/a0
step length    1.3573185E-01 a0      max. step      2.6144325E-02 a0

--------------------------------------------------------------------------------

***  Geometry step: 38

 iSCC Total electronic   Diff electronic      SCC error    
    1   -0.19518804E+03    0.00000000E+00    0.44766326E-02
    2   -0.19519073E+03   -0.26959764E-02    0.24950890E-02
    3   -0.19519074E+03   -0.11533592E-04    0.63967176E-03
    4   -0.19519075E+03   -0.17836943E-05    0.12382293E-03
    5   -0.19519075E+03   -0.65718524E-07    0.40282712E-04
    6   -0.19519075E+03   -0.37341295E-08    0.10289342E-04
    7   -0.19519075E+03   -0.10226131E-09    0.13764886E-05
    8   -0.19519075E+03   -0.65085715E-11    0.32195016E-06
    9   -0.19519075E+03   -0.48316906E-12    0.96963378E-07
   10   -0.19519075E+03    0.56843419E-13    0.95695478E-08

Total Energy:                     -193.2599628791 H        -5258.8712 eV
Extrapolated to 0K:               -193.2599628791 H        -5258.8712 eV
Total Mermin free energy:         -193.2599628791 H        -5258.8712 eV
Force related energy:             -193.2599628791 H        -5258.8712 eV

Volume:                              0.113893E+05 au^3   0.168771E+04 A^3
Pressure:                            0.598143E-05 au     0.175980E+09 Pa
>> Charges saved for restart in charges.bin

total energy  -1.9325996E+02 H       energy change -4.7772464E-04 H
gradient norm  1.7479478E-02 H/a0    max. gradient  4.6024018E-03 H/a0
step length    1.3996321E-01 a0      max. step      2.8173006E-02 a0

--------------------------------------------------------------------------------

***  Geometry step: 39

 iSCC Total electronic   Diff electronic      SCC error    
    1   -0.19519075E+03    0.00000000E+00    0.35577397E-02
    2   -0.19519108E+03   -0.33114845E-03    0.18265888E-02
    3   -0.19519109E+03   -0.12439347E-04    0.59180881E-03
    4   -0.19519109E+03   -0.16858818E-05    0.12183420E-03
    5   -0.19519109E+03   -0.74236794E-07    0.39231444E-04
    6   -0.19519109E+03   -0.36052938E-08    0.98938596E-05
    7   -0.19519109E+03   -0.82422957E-10    0.12078206E-05
    8   -0.19519109E+03   -0.68496320E-11    0.35691620E-06
    9   -0.19519109E+03   -0.39790393E-12    0.10242746E-06
   10   -0.19519109E+03   -0.56843419E-13    0.11821930E-07
   11   -0.19519109E+03    0.85265128E-13    0.22846618E-08

Total Energy:                     -193.2605079671 H        -5258.8860 eV
Extrapolated to 0K:               -193.2605079671 H        -5258.8860 eV
Total Mermin free energy:         -193.2605079671 H        -5258.8860 eV
Force related energy:             -193.2605079671 H        -5258.8860 eV

Volume:                              0.114012E+05 au^3   0.168948E+04 A^3
Pressure:                            0.514643E-05 au     0.151413E+09 Pa
>> Charges saved for restart in charges.bin

total energy  -1.9326051E+02 H       energy change -5.4508799E-04 H
gradient norm  1.8906318E-02 H/a0    max. gradient  4.7636186E-03 H/a0
step length    1.5184594E-01 a0      max. step      3.2961749E-02 a0

--------------------------------------------------------------------------------

***  Geometry step: 40

 iSCC Total electronic   Diff electronic      SCC error    
    1   -0.19519109E+03    0.00000000E+00    0.43318543E-02
    2   -0.19518933E+03    0.17607827E-02    0.21737499E-02
    3   -0.19518935E+03   -0.21771424E-04    0.68095866E-03
    4   -0.19518936E+03   -0.27779259E-05    0.11245672E-03
    5   -0.19518936E+03   -0.11950942E-06    0.33103247E-04
    6   -0.19518936E+03   -0.54309908E-08    0.10205297E-04
    7   -0.19518936E+03   -0.89301011E-10    0.18664091E-05
    8   -0.19518936E+03   -0.57980287E-11    0.28074534E-06
    9   -0.19518936E+03   -0.73896445E-12    0.91920443E-07
   10   -0.19518936E+03   -0.56843419E-13    0.12498762E-07
   11   -0.19518936E+03   -0.28421709E-13    0.22685538E-08

Total Energy:                     -193.2611704110 H        -5258.9040 eV
Extrapolated to 0K:               -193.2611704110 H        -5258.9040 eV
Total Mermin free energy:         -193.2611704110 H        -5258.9040 eV
Force related energy:             -193.2611704110 H        -5258.9040 eV

Volume:                              0.114126E+05 au^3   0.169117E+04 A^3
Pressure:                            0.342409E-05 au     0.100740E+09 Pa
>> Charges saved for restart in charges.bin

total energy  -1.9326117E+02 H       energy change -6.6244384E-04 H
gradient norm  1.8492093E-02 H/a0    max. gradient  4.1046004E-03 H/a0
step length    1.8639054E-01 a0      max. step      4.5668795E-02 a0

--------------------------------------------------------------------------------

***  Geometry step: 41

 iSCC Total electronic   Diff electronic      SCC error    
    1   -0.19518936E+03    0.00000000E+00    0.42701495E-02
    2   -0.19518732E+03    0.20365317E-02    0.18916020E-02
    3   -0.19518734E+03   -0.18995059E-04    0.60685295E-03
    4   -0.19518734E+03   -0.24928434E-05    0.85790281E-04
    5   -0.19518734E+03   -0.10903145E-06    0.21616171E-04
    6   -0.19518734E+03   -0.48665640E-08    0.78489207E-05
    7   -0.19518734E+03   -0.68297368E-10    0.21249450E-05
    8   -0.19518734E+03   -0.23874236E-11    0.23499268E-06
    9   -0.19518734E+03   -0.54001248E-12    0.48014707E-07
   10   -0.19518734E+03    0.00000000E+00    0.73872046E-08

Total Energy:                     -193.2617323131 H        -5258.9193 eV
Extrapolated to 0K:               -193.2617323131 H        -5258.9193 eV
Total Mermin free energy:         -193.2617323131 H        -5258.9193 eV
Force related energy:             -193.2617323131 H        -5258.9193 eV

Volume:                              0.114214E+05 au^3   0.169248E+04 A^3
Pressure:                            0.200660E-05 au     0.590361E+08 Pa
>> Charges saved for restart in charges.bin

total energy  -1.9326173E+02 H       energy change -5.6190211E-04 H
gradient norm  1.5995352E-02 H/a0    max. gradient  2.9594370E-03 H/a0
step length    1.7816057E-01 a0      max. step      4.5720138E-02 a0

--------------------------------------------------------------------------------

***  Geometry step: 42

 iSCC Total electronic   Diff electronic      SCC error    
    1   -0.19518734E+03    0.00000000E+00    0.35778665E-02
    2   -0.19518761E+03   -0.26906688E-03    0.19989921E-02
    3   -0.19518762E+03   -0.98784754E-05    0.56016177E-03
    4   -0.19518762E+03   -0.13559057E-05    0.49758424E-04
    5   -0.19518762E+03   -0.52675659E-07    0.12796286E-04
    6   -0.19518762E+03   -0.24481892E-08    0.47660177E-05
    7   -0.19518762E+03   -0.50505378E-10    0.11822432E-05
    8   -0.19518762E+03   -0.19042545E-11    0.27231753E-06
    9   -0.19518762E+03   -0.17053026E-12    0.58971257E-07
   10   -0.19518762E+03    0.00000000E+00    0.97532791E-08

Total Energy:                     -193.2621251625 H        -5258.9300 eV
Extrapolated to 0K:               -193.2621251625 H        -5258.9300 eV
Total Mermin free energy:         -193.2621251625 H        -5258.9300 eV
Force related energy:             -193.2621251625 H        -5258.9300 eV

Volume:                              0.114277E+05 au^3   0.169341E+04 A^3
Pressure:                            0.178383E-05 au     0.524822E+08 Pa
>> Charges saved for restart in charges.bin

total energy  -1.9326213E+02 H       energy change -3.9284940E-04 H
gradient norm  1.3994432E-02 H/a0    max. gradient  2.7848986E-03 H/a0
step length    1.3716821E-01 a0      max. step      3.4556256E-02 a0

--------------------------------------------------------------------------------

***  Geometry step: 43

 iSCC Total electronic   Diff electronic      SCC error    
    1   -0.19518762E+03    0.00000000E+00    0.31626610E-02
    2   -0.19518962E+03   -0.20032450E-02    0.17890850E-02
    3   -0.19518963E+03   -0.77207169E-05    0.48793000E-03
    4   -0.19518963E+03   -0.11792460E-05    0.72915927E-04
    5   -0.19518963E+03   -0.41152020E-07    0.26520213E-04
    6   -0.19518963E+03   -0.19929587E-08    0.84167367E-05
    7   -0.19518963E+03   -0.43684167E-10    0.10287080E-05
    8   -0.19518963E+03   -0.31263880E-11    0.20419618E-06
    9   -0.19518963E+03   -0.17053026E-12    0.49847251E-07
   10   -0.19518963E+03   -0.28421709E-13    0.67428516E-08

Total Energy:                     -193.2624600288 H        -5258.9391 eV
Extrapolated to 0K:               -193.2624600288 H        -5258.9391 eV
Total Mermin free energy:         -193.2624600288 H        -5258.9391 eV
Force related energy:             -193.2624600288 H        -5258.9391 eV

Volume:                              0.114341E+05 au^3   0.169435E+04 A^3
Pressure:                            0.229850E-05 au     0.676242E+08 Pa
>> Charges saved for restart in charges.bin

total energy  -1.9326246E+02 H       energy change -3.3486633E-04 H
gradient norm  1.3087956E-02 H/a0    max. gradient  2.9722143E-03 H/a0
step length    1.2491123E-01 a0      max. step      2.8857636E-02 a0

--------------------------------------------------------------------------------

***  Geometry step: 44

 iSCC Total electronic   Diff electronic      SCC error    
    1   -0.19518963E+03    0.00000000E+00    0.28101531E-02
    2   -0.19519286E+03   -0.32277141E-02    0.16007676E-02
    3   -0.19519287E+03   -0.68583080E-05    0.42466284E-03
    4   -0.19519287E+03   -0.11571469E-05    0.90228305E-04
    5   -0.19519287E+03   -0.44322377E-07    0.31670321E-04
    6   -0.19519287E+03   -0.23022437E-08    0.84870187E-05
    7   -0.19519287E+03   -0.53091753E-10    0.67481231E-06
    8   -0.19519287E+03   -0.44053650E-11    0.16219041E-06
    9   -0.19519287E+03   -0.11368684E-12    0.49930642E-07
   10   -0.19519287E+03    0.00000000E+00    0.30985241E-08

Total Energy:                     -193.2627581672 H        -5258.9472 eV
Extrapolated to 0K:               -193.2627581672 H        -5258.9472 eV
Total Mermin free energy:         -193.2627581672 H        -5258.9472 eV
Force related energy:             -193.2627581672 H        -5258.9472 eV

Volume:                              0.114406E+05 au^3   0.169532E+04 A^3
Pressure:                            0.324948E-05 au     0.956029E+08 Pa
>> Charges saved for restart in charges.bin

total energy  -1.9326276E+02 H       energy change -2.9813842E-04 H
gradient norm  1.2652605E-02 H/a0    max. gradient  3.1822856E-03 H/a0
step length    1.2178279E-01 a0      max. step      2.5140466E-02 a0

--------------------------------------------------------------------------------

***  Geometry step: 45

 iSCC Total electronic   Diff electronic      SCC error    
    1   -0.19519287E+03    0.00000000E+00    0.29051792E-02
    2   -0.19519551E+03   -0.26383320E-02    0.16661306E-02
    3   -0.19519551E+03   -0.60588663E-05    0.40648205E-03
    4   -0.19519551E+03   -0.97787157E-06    0.81139186E-04
    5   -0.19519551E+03   -0.42116454E-07    0.27247725E-04
    6   -0.19519551E+03   -0.24446365E-08    0.73826984E-05
    7   -0.19519551E+03   -0.54825477E-10    0.55013953E-06
    8   -0.19519551E+03   -0.42348347E-11    0.98680166E-07
    9   -0.19519551E+03   -0.14210855E-12    0.33500196E-07
   10   -0.19519551E+03    0.00000000E+00    0.37512677E-08

Total Energy:                     -193.2630248955 H        -5258.9545 eV
Extrapolated to 0K:               -193.2630248955 H        -5258.9545 eV
Total Mermin free energy:         -193.2630248955 H        -5258.9545 eV
Force related energy:             -193.2630248955 H        -5258.9545 eV

Volume:                              0.114473E+05 au^3   0.169632E+04 A^3
Pressure:                            0.389668E-05 au     0.114644E+09 Pa
>> Charges saved for restart in charges.bin

total energy  -1.9326302E+02 H       energy change -2.6672825E-04 H
gradient norm  1.2146339E-02 H/a0    max. gradient  2.7866278E-03 H/a0
step length    1.1772785E-01 a0      max. step      2.3096574E-02 a0

--------------------------------------------------------------------------------

***  Geometry step: 46

 iSCC Total electronic   Diff electronic      SCC error    
    1   -0.19519551E+03    0.00000000E+00    0.26960804E-02
    2   -0.19519730E+03   -0.17839504E-02    0.16440933E-02
    3   -0.19519730E+03   -0.66252011E-05    0.48526878E-03
    4   -0.19519731E+03   -0.93718367E-06    0.76848883E-04
    5   -0.19519731E+03   -0.49581132E-07    0.25220709E-04
    6   -0.19519731E+03   -0.26853968E-08    0.65098007E-05
    7   -0.19519731E+03   -0.67672090E-10    0.51591804E-06
    8   -0.19519731E+03   -0.43485215E-11    0.13569222E-06
    9   -0.19519731E+03   -0.17053026E-12    0.37940320E-07
   10   -0.19519731E+03   -0.14210855E-12    0.52980775E-08

Total Energy:                     -193.2632983787 H        -5258.9619 eV
Extrapolated to 0K:               -193.2632983787 H        -5258.9619 eV
Total Mermin free energy:         -193.2632983787 H        -5258.9619 eV
Force related energy:             -193.2632983787 H        -5258.9619 eV

Volume:                              0.114529E+05 au^3   0.169714E+04 A^3
Pressure:                            0.420204E-05 au     0.123628E+09 Pa
>> Charges saved for restart in charges.bin

total energy  -1.9326330E+02 H       energy change -2.7348322E-04 H
gradient norm  1.2096642E-02 H/a0    max. gradient  2.9337072E-03 H/a0
step length    1.2126140E-01 a0      max. step      2.5317504E-02 a0

--------------------------------------------------------------------------------

***  Geometry step: 47

 iSCC Total electronic   Diff electronic      SCC error    
    1   -0.19519731E+03    0.00000000E+00    0.39351363E-02
    2   -0.19519773E+03   -0.42020407E-03    0.23209744E-02
    3   -0.19519773E+03   -0.85212416E-05    0.64910286E-03
    4   -0.19519774E+03   -0.11619491E-05    0.98072097E-04
    5   -0.19519774E+03   -0.65236804E-07    0.31323458E-04
    6   -0.19519774E+03   -0.37081520E-08    0.75915974E-05
    7   -0.19519774E+03   -0.84810381E-10    0.72981924E-06
    8   -0.19519774E+03   -0.50590643E-11    0.15374079E-06
    9   -0.19519774E+03   -0.31263880E-12    0.43462451E-07
   10   -0.19519774E+03    0.28421709E-13    0.62877517E-08

Total Energy:                     -193.2635681189 H        -5258.9693 eV
Extrapolated to 0K:               -193.2635681189 H        -5258.9693 eV
Total Mermin free energy:         -193.2635681189 H        -5258.9693 eV
Force related energy:             -193.2635681189 H        -5258.9693 eV

Volume:                              0.114567E+05 au^3   0.169771E+04 A^3
Pressure:                            0.418352E-05 au     0.123083E+09 Pa
>> Charges saved for restart in charges.bin

total energy  -1.9326357E+02 H       energy change -2.6974021E-04 H
gradient norm  1.2123242E-02 H/a0    max. gradient  2.2761954E-03 H/a0
step length    1.1927569E-01 a0      max. step      2.6841864E-02 a0

--------------------------------------------------------------------------------

***  Geometry step: 48

 iSCC Total electronic   Diff electronic      SCC error    
    1   -0.19519774E+03    0.00000000E+00    0.38620327E-02
    2   -0.19519611E+03    0.16264799E-02    0.22589561E-02
    3   -0.19519612E+03   -0.76623535E-05    0.57477237E-03
    4   -0.19519612E+03   -0.11380251E-05    0.68700041E-04
    5   -0.19519612E+03   -0.61184238E-07    0.22531934E-04
    6   -0.19519612E+03   -0.35836365E-08    0.61239947E-05
    7   -0.19519612E+03   -0.60509819E-10    0.62566186E-06
    8   -0.19519612E+03   -0.30979663E-11    0.17854803E-06
    9   -0.19519612E+03   -0.17053026E-12    0.41811114E-07
   10   -0.19519612E+03   -0.11368684E-12    0.49671383E-08

Total Energy:                     -193.2638040031 H        -5258.9757 eV
Extrapolated to 0K:               -193.2638040031 H        -5258.9757 eV
Total Mermin free energy:         -193.2638040031 H        -5258.9757 eV
Force related energy:             -193.2638040031 H        -5258.9757 eV

Volume:                              0.114588E+05 au^3   0.169802E+04 A^3
Pressure:                            0.336998E-05 au     0.991482E+08 Pa
>> Charges saved for restart in charges.bin

total energy  -1.9326380E+02 H       energy change -2.3588425E-04 H
gradient norm  1.1268996E-02 H/a0    max. gradient  1.9375377E-03 H/a0
step length    9.9474051E-02 a0      max. step      2.3973395E-02 a0

--------------------------------------------------------------------------------

***  Geometry step: 49

 iSCC Total electronic   Diff electronic      SCC error    
    1   -0.19519612E+03    0.00000000E+00    0.30251668E-02
    2   -0.19519455E+03    0.15665003E-02    0.17305789E-02
    3   -0.19519456E+03   -0.72010923E-05    0.42105879E-03
    4   -0.19519456E+03   -0.11561271E-05    0.53127561E-04
    5   -0.19519456E+03   -0.50666813E-07    0.18460301E-04
    6   -0.19519456E+03   -0.32306389E-08    0.59096752E-05
    7   -0.19519456E+03   -0.38170356E-10    0.93590064E-06
    8   -0.19519456E+03   -0.17905677E-11    0.16169187E-06
    9   -0.19519456E+03   -0.11368684E-12    0.38297638E-07
   10   -0.19519456E+03    0.00000000E+00    0.49050461E-08

Total Energy:                     -193.2640095792 H        -5258.9813 eV
Extrapolated to 0K:               -193.2640095792 H        -5258.9813 eV
Total Mermin free energy:         -193.2640095792 H        -5258.9813 eV
Force related energy:             -193.2640095792 H        -5258.9813 eV

Volume:                              0.114589E+05 au^3   0.169804E+04 A^3
Pressure:                            0.277056E-05 au     0.815126E+08 Pa
>> Charges saved for restart in charges.bin

total energy  -1.9326401E+02 H       energy change -2.0557606E-04 H
gradient norm  9.9853385E-03 H/a0    max. gradient  1.9470259E-03 H/a0
step length    7.5917893E-02 a0      max. step      1.9216127E-02 a0

--------------------------------------------------------------------------------

***  Geometry step: 50

 iSCC Total electronic   Diff electronic      SCC error    
    1   -0.19519456E+03    0.00000000E+00    0.25124369E-02
    2   -0.19519394E+03    0.62419709E-03    0.13834202E-02
    3   -0.19519394E+03   -0.39058924E-05    0.32444282E-03
    4   -0.19519394E+03   -0.64208803E-06    0.27757135E-04
    5   -0.19519394E+03   -0.18412550E-07    0.92245363E-05
    6   -0.19519394E+03   -0.91282004E-09    0.31056793E-05
    7   -0.19519394E+03   -0.18445689E-10    0.55018386E-06
    8   -0.19519394E+03   -0.76738615E-12    0.10097487E-06
    9   -0.19519394E+03    0.00000000E+00    0.35644003E-07
   10   -0.19519394E+03   -0.56843419E-13    0.40074140E-08

Total Energy:                     -193.2641638695 H        -5258.9855 eV
Extrapolated to 0K:               -193.2641638695 H        -5258.9855 eV
Total Mermin free energy:         -193.2641638695 H        -5258.9855 eV
Force related energy:             -193.2641638695 H        -5258.9855 eV

Volume:                              0.114586E+05 au^3   0.169798E+04 A^3
Pressure:                            0.256270E-05 au     0.753972E+08 Pa
>> Charges saved for restart in charges.bin
[...]
Pressure:                           -0.339773E-07 au    -0.999647E+06 Pa
>> Charges saved for restart in charges.bin

total energy  -1.9327481E+02 H       energy change -6.4162728E-07 H
gradient norm  5.6601001E-04 H/a0    max. gradient  1.0816035E-04 H/a0
step length    3.0519489E-03 a0      max. step      7.0996950E-04 a0

--------------------------------------------------------------------------------

***  Geometry step: 164

 iSCC Total electronic   Diff electronic      SCC error    
    1   -0.19518156E+03    0.00000000E+00    0.14035576E-03
    2   -0.19518153E+03    0.26260022E-04    0.78272873E-04
    3   -0.19518153E+03   -0.17243877E-07    0.23782715E-04
    4   -0.19518153E+03   -0.22152733E-08    0.17661579E-05
    5   -0.19518153E+03   -0.79211304E-10    0.48982616E-06
    6   -0.19518153E+03   -0.37516656E-11    0.18317467E-06
    7   -0.19518153E+03   -0.17053026E-12    0.35322723E-07
    8   -0.19518153E+03    0.17053026E-12    0.56550045E-08

Total Energy:                     -193.2748144187 H        -5259.2753 eV
Extrapolated to 0K:               -193.2748144187 H        -5259.2753 eV
Total Mermin free energy:         -193.2748144187 H        -5259.2753 eV
Force related energy:             -193.2748144187 H        -5259.2753 eV

Volume:                              0.112323E+05 au^3   0.166445E+04 A^3
Pressure:                           -0.457972E-07 au    -0.134740E+07 Pa
>> Charges saved for restart in charges.bin

total energy  -1.9327481E+02 H       energy change -7.3737692E-07 H
gradient norm  6.8223941E-04 H/a0    max. gradient  1.2783814E-04 H/a0
step length    6.6135886E-03 a0      max. step      1.5363668E-03 a0

--------------------------------------------------------------------------------

***  Geometry step: 165

 iSCC Total electronic   Diff electronic      SCC error    
    1   -0.19518153E+03    0.00000000E+00    0.13509357E-03
    2   -0.19518151E+03    0.17624480E-04    0.75589114E-04
    3   -0.19518151E+03   -0.26859652E-07    0.25143076E-04
    4   -0.19518151E+03   -0.34228833E-08    0.29480757E-05
    5   -0.19518151E+03   -0.10390977E-09    0.52464703E-06
    6   -0.19518151E+03   -0.62243544E-11    0.17338875E-06
    7   -0.19518151E+03   -0.22737368E-12    0.45081968E-07
    8   -0.19518151E+03    0.28421709E-13    0.65356898E-08

Total Energy:                     -193.2748156825 H        -5259.2753 eV
Extrapolated to 0K:               -193.2748156825 H        -5259.2753 eV
Total Mermin free energy:         -193.2748156825 H        -5259.2753 eV
Force related energy:             -193.2748156825 H        -5259.2753 eV

Volume:                              0.112325E+05 au^3   0.166449E+04 A^3
Pressure:                           -0.677671E-07 au    -0.199378E+07 Pa
>> Charges saved for restart in charges.bin

total energy  -1.9327482E+02 H       energy change -1.2637949E-06 H
gradient norm  8.2490919E-04 H/a0    max. gradient  1.7081780E-04 H/a0
step length    2.0960035E-02 a0      max. step      5.1966962E-03 a0

--------------------------------------------------------------------------------

***  Geometry step: 166

 iSCC Total electronic   Diff electronic      SCC error    
    1   -0.19518151E+03    0.00000000E+00    0.10825592E-03
    2   -0.19518159E+03   -0.76287775E-04    0.44446377E-04
    3   -0.19518159E+03   -0.10504664E-07    0.10043557E-04
    4   -0.19518159E+03   -0.17217587E-08    0.16583046E-05
    5   -0.19518159E+03   -0.35669245E-10    0.47654814E-06
    6   -0.19518159E+03   -0.17905677E-11    0.15552390E-06
    7   -0.19518159E+03   -0.85265128E-13    0.29498768E-07
    8   -0.19518159E+03    0.00000000E+00    0.38202517E-08

Total Energy:                     -193.2748166300 H        -5259.2753 eV
Extrapolated to 0K:               -193.2748166300 H        -5259.2753 eV
Total Mermin free energy:         -193.2748166300 H        -5259.2753 eV
Force related energy:             -193.2748166300 H        -5259.2753 eV

Volume:                              0.112325E+05 au^3   0.166449E+04 A^3
Pressure:                           -0.425533E-07 au    -0.125196E+07 Pa
>> Charges saved for restart in charges.bin

total energy  -1.9327482E+02 H       energy change -9.4754159E-07 H
gradient norm  7.9177338E-04 H/a0    max. gradient  1.5280541E-04 H/a0
step length    2.7656894E-03 a0      max. step      6.7362894E-04 a0

--------------------------------------------------------------------------------

***  Geometry step: 167

 iSCC Total electronic   Diff electronic      SCC error    
    1   -0.19518159E+03    0.00000000E+00    0.39470712E-03
    2   -0.19518191E+03   -0.31784804E-03    0.14833308E-03
    3   -0.19518191E+03   -0.86700140E-07    0.34407480E-04
    4   -0.19518191E+03   -0.13076544E-07    0.42483107E-05
    5   -0.19518191E+03   -0.32073899E-09    0.79456271E-06
    6   -0.19518191E+03   -0.17962520E-10    0.24454920E-06
    7   -0.19518191E+03   -0.54001248E-12    0.58974619E-07
    8   -0.19518191E+03   -0.28421709E-13    0.12870275E-07
    9   -0.19518191E+03    0.00000000E+00    0.45389537E-08

Total Energy:                     -193.2748190942 H        -5259.2754 eV
Extrapolated to 0K:               -193.2748190942 H        -5259.2754 eV
Total Mermin free energy:         -193.2748190942 H        -5259.2754 eV
Force related energy:             -193.2748190942 H        -5259.2754 eV

Volume:                              0.112326E+05 au^3   0.166449E+04 A^3
Pressure:                            0.680873E-07 au     0.200320E+07 Pa
>> Charges saved for restart in charges.bin

total energy  -1.9327482E+02 H       energy change -2.4641440E-06 H
gradient norm  8.8259828E-04 H/a0    max. gradient  2.6229609E-04 H/a0
step length    1.6043139E-02 a0      max. step      4.0542125E-03 a0

--------------------------------------------------------------------------------

***  Geometry step: 168

 iSCC Total electronic   Diff electronic      SCC error    
    1   -0.19518191E+03    0.00000000E+00    0.13348690E-03
    2   -0.19518196E+03   -0.50435386E-04    0.75782484E-04
    3   -0.19518196E+03   -0.24730952E-07    0.23832420E-04
    4   -0.19518196E+03   -0.32168543E-08    0.33847911E-05
    5   -0.19518196E+03   -0.89869445E-10    0.41847237E-06
    6   -0.19518196E+03   -0.63096195E-11    0.11182584E-06
    7   -0.19518196E+03   -0.56843419E-13    0.17967555E-07
    8   -0.19518196E+03   -0.28421709E-13    0.40901953E-08

Total Energy:                     -193.2748202924 H        -5259.2754 eV
Extrapolated to 0K:               -193.2748202924 H        -5259.2754 eV
Total Mermin free energy:         -193.2748202924 H        -5259.2754 eV
Force related energy:             -193.2748202924 H        -5259.2754 eV

Volume:                              0.112326E+05 au^3   0.166450E+04 A^3
Pressure:                            0.779051E-07 au     0.229205E+07 Pa
>> Charges saved for restart in charges.bin

total energy  -1.9327482E+02 H       energy change -1.1982406E-06 H
gradient norm  7.9542869E-04 H/a0    max. gradient  2.1787645E-04 H/a0
step length    8.2590268E-03 a0      max. step      1.9273065E-03 a0

--------------------------------------------------------------------------------

***  Geometry step: 169

 iSCC Total electronic   Diff electronic      SCC error    
    1   -0.19518196E+03    0.00000000E+00    0.28108173E-03
    2   -0.19518197E+03   -0.16648745E-04    0.10728260E-03
    3   -0.19518197E+03   -0.57261246E-07    0.30003635E-04
    4   -0.19518197E+03   -0.78690050E-08    0.51529136E-05
    5   -0.19518197E+03   -0.20159518E-09    0.55027213E-06
    6   -0.19518197E+03   -0.12931878E-10    0.21131008E-06
    7   -0.19518197E+03   -0.25579538E-12    0.49636110E-07
    8   -0.19518197E+03    0.56843419E-13    0.90829135E-08

Total Energy:                     -193.2748217328 H        -5259.2755 eV
Extrapolated to 0K:               -193.2748217328 H        -5259.2755 eV
Total Mermin free energy:         -193.2748217328 H        -5259.2755 eV
Force related energy:             -193.2748217328 H        -5259.2755 eV

Volume:                              0.112330E+05 au^3   0.166456E+04 A^3
Pressure:                            0.596819E-07 au     0.175590E+07 Pa
>> Charges saved for restart in charges.bin

total energy  -1.9327482E+02 H       energy change -1.4403840E-06 H
gradient norm  6.6408473E-04 H/a0    max. gradient  1.5511090E-04 H/a0
step length    1.6674307E-02 a0      max. step      3.6756294E-03 a0

--------------------------------------------------------------------------------

***  Geometry step: 170

 iSCC Total electronic   Diff electronic      SCC error    
    1   -0.19518197E+03    0.00000000E+00    0.94079930E-04
    2   -0.19518186E+03    0.11162761E-03    0.50957377E-04
    3   -0.19518186E+03   -0.11563856E-07    0.15494517E-04
    4   -0.19518186E+03   -0.22134259E-08    0.19531576E-05
    5   -0.19518186E+03   -0.48856919E-10    0.44608290E-06
    6   -0.19518186E+03   -0.23874236E-11    0.13921134E-06
    7   -0.19518186E+03    0.00000000E+00    0.19326989E-07
    8   -0.19518186E+03   -0.28421709E-13    0.25516198E-08

Total Energy:                     -193.2748223179 H        -5259.2755 eV
Extrapolated to 0K:               -193.2748223179 H        -5259.2755 eV
Total Mermin free energy:         -193.2748223179 H        -5259.2755 eV
Force related energy:             -193.2748223179 H        -5259.2755 eV

Volume:                              0.112331E+05 au^3   0.166457E+04 A^3
Pressure:                            0.692587E-08 au     0.203766E+06 Pa
>> Charges saved for restart in charges.bin

total energy  -1.9327482E+02 H       energy change -5.8514109E-07 H
gradient norm  5.2869523E-04 H/a0    max. gradient  1.1745820E-04 H/a0
step length    2.0445346E-03 a0      max. step      5.3352163E-04 a0

--------------------------------------------------------------------------------

***  Geometry step: 171

 iSCC Total electronic   Diff electronic      SCC error    
    1   -0.19518186E+03    0.00000000E+00    0.15711377E-03
    2   -0.19518166E+03    0.20484039E-03    0.74329906E-04
    3   -0.19518166E+03   -0.18477607E-07    0.23166283E-04
    4   -0.19518166E+03   -0.30330796E-08    0.25466542E-05
    5   -0.19518166E+03   -0.87652552E-10    0.37930585E-06
    6   -0.19518166E+03   -0.42348347E-11    0.13472425E-06
    7   -0.19518166E+03   -0.11368684E-12    0.33978600E-07
    8   -0.19518166E+03   -0.56843419E-13    0.52448810E-08

Total Energy:                     -193.2748229078 H        -5259.2755 eV
Extrapolated to 0K:               -193.2748229078 H        -5259.2755 eV
Total Mermin free energy:         -193.2748229078 H        -5259.2755 eV
Force related energy:             -193.2748229078 H        -5259.2755 eV

Volume:                              0.112331E+05 au^3   0.166458E+04 A^3
Pressure:                           -0.771598E-07 au    -0.227012E+07 Pa
>> Charges saved for restart in charges.bin

total energy  -1.9327482E+02 H       energy change -5.8989218E-07 H
gradient norm  5.2965100E-04 H/a0    max. gradient  1.0972750E-04 H/a0
step length    3.0457038E-03 a0      max. step      8.0783505E-04 a0

--------------------------------------------------------------------------------

***  Geometry step: 172

 iSCC Total electronic   Diff electronic      SCC error    
    1   -0.19518166E+03    0.00000000E+00    0.16408868E-03
    2   -0.19518157E+03    0.89182604E-04    0.61504757E-04
    3   -0.19518157E+03   -0.13537260E-07    0.15723640E-04
    4   -0.19518157E+03   -0.19069262E-08    0.17349068E-05
    5   -0.19518157E+03   -0.59912963E-10    0.18526691E-06
    6   -0.19518157E+03   -0.23305802E-11    0.52103678E-07
    7   -0.19518157E+03   -0.56843419E-13    0.74045987E-08

Total Energy:                     -193.2748233984 H        -5259.2755 eV
Extrapolated to 0K:               -193.2748233984 H        -5259.2755 eV
Total Mermin free energy:         -193.2748233984 H        -5259.2755 eV
Force related energy:             -193.2748233984 H        -5259.2755 eV

Volume:                              0.112331E+05 au^3   0.166457E+04 A^3
Pressure:                           -0.104437E-06 au    -0.307264E+07 Pa
>> Charges saved for restart in charges.bin

total energy  -1.9327482E+02 H       energy change -4.9057257E-07 H
gradient norm  5.8176869E-04 H/a0    max. gradient  1.3310275E-04 H/a0
step length    3.5681478E-03 a0      max. step      9.7094668E-04 a0

--------------------------------------------------------------------------------

***  Geometry step: 173

 iSCC Total electronic   Diff electronic      SCC error    
    1   -0.19518157E+03    0.00000000E+00    0.16133902E-03
    2   -0.19518151E+03    0.55718385E-04    0.66128999E-04
    3   -0.19518151E+03   -0.22208866E-07    0.19458812E-04
    4   -0.19518151E+03   -0.30125022E-08    0.23904817E-05
    5   -0.19518151E+03   -0.94019015E-10    0.46203968E-06
    6   -0.19518151E+03   -0.35527137E-11    0.16691574E-06
    7   -0.19518151E+03    0.28421709E-13    0.28429874E-07
    8   -0.19518151E+03    0.85265128E-13    0.47746203E-08

Total Energy:                     -193.2748241455 H        -5259.2756 eV
Extrapolated to 0K:               -193.2748241455 H        -5259.2756 eV
Total Mermin free energy:         -193.2748241455 H        -5259.2756 eV
Force related energy:             -193.2748241455 H        -5259.2756 eV

Volume:                              0.112330E+05 au^3   0.166456E+04 A^3
Pressure:                           -0.129695E-06 au    -0.381575E+07 Pa
>> Charges saved for restart in charges.bin

total energy  -1.9327482E+02 H       energy change -7.4706733E-07 H
gradient norm  7.1248909E-04 H/a0    max. gradient  2.1518549E-04 H/a0
step length    4.9509876E-03 a0      max. step      1.4279431E-03 a0

--------------------------------------------------------------------------------

***  Geometry step: 174

 iSCC Total electronic   Diff electronic      SCC error    
    1   -0.19518151E+03    0.00000000E+00    0.22128676E-03
    2   -0.19518161E+03   -0.96147812E-04    0.79408865E-04
    3   -0.19518161E+03   -0.54264461E-07    0.27700339E-04
    4   -0.19518161E+03   -0.57738703E-08    0.63870731E-05
    5   -0.19518161E+03   -0.15103296E-09    0.19194730E-05
    6   -0.19518161E+03   -0.10345502E-10    0.54262093E-06
    7   -0.19518161E+03   -0.22737368E-12    0.34556716E-07
    8   -0.19518161E+03   -0.11368684E-12    0.38236299E-08

Total Energy:                     -193.2748254105 H        -5259.2756 eV
Extrapolated to 0K:               -193.2748254105 H        -5259.2756 eV
Total Mermin free energy:         -193.2748254105 H        -5259.2756 eV
Force related energy:             -193.2748254105 H        -5259.2756 eV

Volume:                              0.112327E+05 au^3   0.166451E+04 A^3
Pressure:                           -0.759803E-07 au    -0.223542E+07 Pa
>> Charges saved for restart in charges.bin

total energy  -1.9327483E+02 H       energy change -1.2650058E-06 H
gradient norm  7.5640059E-04 H/a0    max. gradient  1.8543927E-04 H/a0
step length    1.5715668E-02 a0      max. step      3.8645121E-03 a0

--------------------------------------------------------------------------------

***  Geometry step: 175

 iSCC Total electronic   Diff electronic      SCC error    
    1   -0.19518161E+03    0.00000000E+00    0.12367639E-03
    2   -0.19518168E+03   -0.68939581E-04    0.67108205E-04
    3   -0.19518168E+03   -0.22664466E-07    0.22097914E-04
    4   -0.19518168E+03   -0.32320315E-08    0.28275882E-05
    5   -0.19518168E+03   -0.72532202E-10    0.86836967E-06
    6   -0.19518168E+03   -0.38369308E-11    0.26748758E-06
    7   -0.19518168E+03   -0.11368684E-12    0.40051369E-07
    8   -0.19518168E+03    0.56843419E-13    0.46790971E-08

Total Energy:                     -193.2748262066 H        -5259.2756 eV
Extrapolated to 0K:               -193.2748262066 H        -5259.2756 eV
Total Mermin free energy:         -193.2748262066 H        -5259.2756 eV
Force related energy:             -193.2748262066 H        -5259.2756 eV

Volume:                              0.112326E+05 au^3   0.166450E+04 A^3
Pressure:                           -0.449326E-07 au    -0.132196E+07 Pa
>> Charges saved for restart in charges.bin

total energy  -1.9327483E+02 H       energy change -7.9615708E-07 H
gradient norm  5.9471600E-04 H/a0    max. gradient  1.4583028E-04 H/a0
step length    2.9218639E-03 a0      max. step      6.4047301E-04 a0

--------------------------------------------------------------------------------

***  Geometry step: 176

 iSCC Total electronic   Diff electronic      SCC error    
    1   -0.19518168E+03    0.00000000E+00    0.32168868E-03
    2   -0.19518181E+03   -0.12852025E-03    0.11156071E-03
    3   -0.19518181E+03   -0.75709238E-07    0.30905027E-04
    4   -0.19518181E+03   -0.94616439E-08    0.51656775E-05
    5   -0.19518181E+03   -0.17985258E-09    0.11798370E-05
    6   -0.19518181E+03   -0.12789769E-10    0.41082289E-06
    7   -0.19518181E+03   -0.36948222E-12    0.86245330E-07
    8   -0.19518181E+03   -0.11368684E-12    0.80474671E-08

Total Energy:                     -193.2748273849 H        -5259.2756 eV
Extrapolated to 0K:               -193.2748273849 H        -5259.2756 eV
Total Mermin free energy:         -193.2748273849 H        -5259.2756 eV
Force related energy:             -193.2748273849 H        -5259.2756 eV

Volume:                              0.112331E+05 au^3   0.166457E+04 A^3
Pressure:                           -0.282795E-07 au    -0.832011E+06 Pa
>> Charges saved for restart in charges.bin

total energy  -1.9327483E+02 H       energy change -1.1783169E-06 H
gradient norm  5.0735730E-04 H/a0    max. gradient  1.1776586E-04 H/a0
step length    1.8819521E-02 a0      max. step      3.8331365E-03 a0

--------------------------------------------------------------------------------

***  Geometry step: 177

 iSCC Total electronic   Diff electronic      SCC error    
    1   -0.19518181E+03    0.00000000E+00    0.81816043E-04
    2   -0.19518183E+03   -0.26479924E-04    0.44765795E-04
    3   -0.19518183E+03   -0.35354901E-08    0.72107470E-05
    4   -0.19518183E+03   -0.71293016E-09    0.10853195E-05
    5   -0.19518183E+03   -0.24414248E-10    0.40340089E-06
    6   -0.19518183E+03   -0.85265128E-12    0.12727922E-06
    7   -0.19518183E+03    0.00000000E+00    0.15515820E-07
    8   -0.19518183E+03    0.28421709E-13    0.13536927E-08

Total Energy:                     -193.2748276506 H        -5259.2756 eV
Extrapolated to 0K:               -193.2748276506 H        -5259.2756 eV
Total Mermin free energy:         -193.2748276506 H        -5259.2756 eV
Force related energy:             -193.2748276506 H        -5259.2756 eV

Volume:                              0.112331E+05 au^3   0.166458E+04 A^3
Pressure:                           -0.182761E-07 au    -0.537701E+06 Pa
>> Charges saved for restart in charges.bin

total energy  -1.9327483E+02 H       energy change -2.6565357E-07 H
gradient norm  3.9620534E-04 H/a0    max. gradient  7.9982712E-05 H/a0
step length    8.5044002E-04 a0      max. step      1.8490221E-04 a0

Geometry converged

--------------------------------------------------------------------------------
DFTB+ running times                          cpu [s]             wall clock [s]
--------------------------------------------------------------------------------
Pre-SCC initialisation                 +      11.78 (  0.6%)       2.43 (  1.0%)
SCC                                    +    1808.35 ( 90.2%)     228.98 ( 90.7%)
Post-SCC processing                    +     183.78 (  9.2%)      20.91 (  8.3%)
--------------------------------------------------------------------------------
Missing                                +       0.01 (  0.0%)       0.00 (  0.0%)
Total                                  =    2003.93 (100.0%)     252.32 (100.0%)
--------------------------------------------------------------------------------
