|===============================================================================
|
|  DFTB+ release 24.1
|
|  Copyright (C) 2006 - 2024  DFTB+ developers group
|
|===============================================================================
|
|  When publishing results obtained with DFTB+, please cite the following
|  reference:
|
|  * DFTB+, a software package for efficient approximate density functional
|    theory based atomistic simulations, J. Chem. Phys. 152, 124101 (2020).
|    [doi: 10.1063/1.5143190]
|
|  You should also cite additional publications crediting the parametrization
|  data you use. Please consult the documentation of the SK-files for the
|  references.
|
|===============================================================================

Reading input file 'dftb_in.hsd'
Parser version: 14

--------------------------------------------------------------------------------
Reading SK-files:
./SKFiles/Si-Si.skf
./SKFiles/Si-Ge.skf
./SKFiles/Si-O.skf
./SKFiles/Ge-Ge.skf
./SKFiles/Ge-O.skf
./SKFiles/O-O.skf
Done.


Processed input in HSD format written to 'dftb_pin.hsd'

Starting initialization...
--------------------------------------------------------------------------------
WARNING!
-> Dipole printed for extended system : value printed is not well defined
MPI processes:               1
OpenMP threads:              8
BLACS orbital grid size:     1 x 1
BLACS atom grid size:        1 x 1
Chosen random seed:          160034098
Current stacksize:           unlimited
Mode:                        Static calculation
Self consistent charges:     Yes
SCC-tolerance:                 0.100000E-07
Max. scc iterations:                    500
Shell resolved Hubbard:      No
Spin polarisation:           No
Nr. of up electrons:           192.000000
Nr. of down electrons:         192.000000
Periodic boundaries:         Yes
Electronic solver:           Relatively robust
Mixer:                       Broyden mixer
Mixing parameter:                  0.200000
Maximal SCC-cycles:                     500
Nr. of chrg. vec. in memory:            500
Electronic temperature:              0.100000E-07 H      0.272114E-06 eV
Initial charges:             Set automatically (system chrg:   0.000E+00)
Included shells:            Si:  s, p, d
                            Ge:  s, p, d
                             O:  s, p
K-points and weights:           1:  0.500000  0.500000  0.500000     1.000000

K-points in absolute space:     1:  0.025319  0.017606  0.037774

Extra options:
                             Mulliken analysis
Force type                   original

--------------------------------------------------------------------------------

***  Geometry step: 0

 iSCC Total electronic   Diff electronic      SCC error    
    1    0.00000000E+00    0.00000000E+00    0.14248971E+01
    2   -0.19732535E+03   -0.19732535E+03    0.96510398E+00
    3   -0.19766803E+03   -0.34268298E+00    0.38888876E-01
    4   -0.19795682E+03   -0.28878302E+00    0.22967813E-01
    5   -0.19795835E+03   -0.15285094E-02    0.34052996E-02
    6   -0.19795845E+03   -0.10600645E-03    0.12657365E-02
    7   -0.19795845E+03   -0.23310015E-05    0.31344436E-03
    8   -0.19795845E+03   -0.55984950E-06    0.36665631E-04
    9   -0.19795845E+03   -0.34589959E-07    0.17526816E-04
   10   -0.19795845E+03   -0.20543212E-09    0.24155781E-05
   11   -0.19795845E+03   -0.67757355E-10    0.30494836E-06
   12   -0.19795845E+03   -0.30695446E-11    0.12036507E-06
   13   -0.19795845E+03   -0.56843419E-13    0.14073967E-07
   14   -0.19795845E+03    0.56843419E-13    0.46600892E-08

Total Energy:                     -190.4242772922 H        -5181.7082 eV
Extrapolated to 0K:               -190.4242772922 H        -5181.7082 eV
Total Mermin free energy:         -190.4242772922 H        -5181.7082 eV
Force related energy:             -190.4242772922 H        -5181.7082 eV

Volume:                              0.913789E+04 au^3   0.135410E+04 A^3
Pressure:                            0.249573E-02 au     0.734269E+11 Pa
>> Charges saved for restart in charges.bin

total energy  -1.9042428E+02 H       energy change -1.9042428E+02 H
gradient norm  2.1526619E+00 H/a0    max. gradient  1.1962737E+00 H/a0
step length    0.0000000E+00 a0      max. step      0.0000000E+00 a0

--------------------------------------------------------------------------------

***  Geometry step: 1

 iSCC Total electronic   Diff electronic      SCC error    
    1   -0.19795845E+03    0.00000000E+00    0.13394620E+00
    2   -0.19728438E+03    0.67407828E+00    0.60174018E-01
    3   -0.19729912E+03   -0.14743696E-01    0.19578905E-01
    4   -0.19730171E+03   -0.25871923E-02    0.21905919E-02
    5   -0.19730177E+03   -0.62779568E-04    0.91466823E-03
    6   -0.19730177E+03   -0.40691706E-05    0.24563427E-03
    7   -0.19730177E+03   -0.12686121E-06    0.32271594E-04
    8   -0.19730177E+03   -0.16600012E-07    0.69523940E-05
    9   -0.19730177E+03   -0.90784624E-09    0.26021946E-05
   10   -0.19730177E+03   -0.16655122E-10    0.66402114E-06
   11   -0.19730177E+03   -0.54001248E-12    0.14384148E-06
   12   -0.19730177E+03   -0.28421709E-12    0.35006544E-07
   13   -0.19730177E+03    0.00000000E+00    0.34428762E-08

Total Energy:                     -191.1512397716 H        -5201.4899 eV
Extrapolated to 0K:               -191.1512397716 H        -5201.4899 eV
Total Mermin free energy:         -191.1512397716 H        -5201.4899 eV
Force related energy:             -191.1512397716 H        -5201.4899 eV

Volume:                              0.970242E+04 au^3   0.143775E+04 A^3
Pressure:                            0.177888E-02 au     0.523363E+11 Pa
>> Charges saved for restart in charges.bin

total energy  -1.9115124E+02 H       energy change -7.2696248E-01 H
gradient norm  1.4480235E+00 H/a0    max. gradient  2.7714367E-01 H/a0
step length    7.9434992E-01 a0      max. step      4.4143480E-01 a0

--------------------------------------------------------------------------------

***  Geometry step: 2

 iSCC Total electronic   Diff electronic      SCC error    
    1   -0.19730177E+03    0.00000000E+00    0.47523333E-01
    2   -0.19694651E+03    0.35526366E+00    0.27589654E-01
    3   -0.19694957E+03   -0.30560605E-02    0.69524320E-02
    4   -0.19695017E+03   -0.60796397E-03    0.82822831E-03
    5   -0.19695019E+03   -0.20669292E-04    0.32353328E-03
    6   -0.19695020E+03   -0.98019325E-06    0.12842303E-03
    7   -0.19695020E+03   -0.17033585E-07    0.33152468E-04
    8   -0.19695020E+03   -0.25001441E-08    0.77894231E-05
    9   -0.19695020E+03   -0.23982238E-09    0.18068743E-05
   10   -0.19695020E+03   -0.42064130E-11    0.41615378E-06
   11   -0.19695020E+03   -0.34106051E-12    0.89535379E-07
   12   -0.19695020E+03    0.00000000E+00    0.15881163E-07
   13   -0.19695020E+03    0.28421709E-13    0.15881354E-08

Total Energy:                     -191.9375395144 H        -5222.8862 eV
Extrapolated to 0K:               -191.9375395144 H        -5222.8862 eV
Total Mermin free energy:         -191.9375395144 H        -5222.8862 eV
Force related energy:             -191.9375395144 H        -5222.8862 eV

Volume:                              0.986185E+04 au^3   0.146138E+04 A^3
Pressure:                            0.131253E-02 au     0.386160E+11 Pa
>> Charges saved for restart in charges.bin

total energy  -1.9193754E+02 H       energy change -7.8629974E-01 H
gradient norm  9.1721225E-01 H/a0    max. gradient  1.6252828E-01 H/a0
step length    7.5479079E-01 a0      max. step      1.4883203E-01 a0

--------------------------------------------------------------------------------

***  Geometry step: 3

 iSCC Total electronic   Diff electronic      SCC error    
    1   -0.19695020E+03    0.00000000E+00    0.71910633E-01
    2   -0.19656034E+03    0.38985418E+00    0.30734523E-01
    3   -0.19656416E+03   -0.38152088E-02    0.10252367E-01
    4   -0.19656486E+03   -0.70342647E-03    0.13210086E-02
    5   -0.19656490E+03   -0.37724424E-04    0.28827629E-03
    6   -0.19656490E+03   -0.17838789E-05    0.13316406E-03
    7   -0.19656490E+03   -0.25949589E-07    0.16496214E-04
    8   -0.19656490E+03   -0.27785347E-08    0.40062078E-05
    9   -0.19656490E+03   -0.34015102E-09    0.14254113E-05
   10   -0.19656490E+03   -0.63096195E-11    0.51893588E-06
   11   -0.19656490E+03   -0.17053026E-12    0.12900924E-06
   12   -0.19656490E+03   -0.17053026E-12    0.23697714E-07
   13   -0.19656490E+03    0.00000000E+00    0.16736368E-08

Total Energy:                     -192.4767758433 H        -5237.5596 eV
Extrapolated to 0K:               -192.4767758433 H        -5237.5596 eV
Total Mermin free energy:         -192.4767758433 H        -5237.5596 eV
Force related energy:             -192.4767758433 H        -5237.5596 eV

Volume:                              0.999307E+04 au^3   0.148082E+04 A^3
Pressure:                            0.941698E-03 au     0.277057E+11 Pa
>> Charges saved for restart in charges.bin

total energy  -1.9247678E+02 H       energy change -5.3923633E-01 H
gradient norm  5.9875802E-01 H/a0    max. gradient  1.6880743E-01 H/a0
step length    7.8892959E-01 a0      max. step      1.7560115E-01 a0

--------------------------------------------------------------------------------

***  Geometry step: 4

 iSCC Total electronic   Diff electronic      SCC error    
    1   -0.19656490E+03    0.00000000E+00    0.63976431E-01
    2   -0.19615306E+03    0.41183476E+00    0.35461334E-01
    3   -0.19615579E+03   -0.27279727E-02    0.73067228E-02
    4   -0.19615644E+03   -0.64614949E-03    0.10085225E-02
    5   -0.19615647E+03   -0.35226704E-04    0.34061968E-03
    6   -0.19615648E+03   -0.12410687E-05    0.14306860E-03
    7   -0.19615648E+03   -0.23049807E-07    0.46056896E-04
    8   -0.19615648E+03   -0.19153674E-08    0.11192077E-04
    9   -0.19615648E+03   -0.28182967E-09    0.24081075E-05
   10   -0.19615648E+03   -0.82422957E-11    0.34160804E-06
   11   -0.19615648E+03   -0.62527761E-12    0.85392907E-07
   12   -0.19615648E+03    0.56843419E-13    0.21448480E-07
   13   -0.19615648E+03   -0.28421709E-13    0.24368383E-08

Total Energy:                     -192.7999680207 H        -5246.3541 eV
Extrapolated to 0K:               -192.7999680207 H        -5246.3541 eV
Total Mermin free energy:         -192.7999680207 H        -5246.3541 eV
Force related energy:             -192.7999680207 H        -5246.3541 eV

Volume:                              0.101384E+05 au^3   0.150235E+04 A^3
Pressure:                            0.646476E-03 au     0.190200E+11 Pa
>> Charges saved for restart in charges.bin

total energy  -1.9279997E+02 H       energy change -3.2319218E-01 H
gradient norm  4.5700025E-01 H/a0    max. gradient  2.4294360E-01 H/a0
step length    7.5483570E-01 a0      max. step      1.5491426E-01 a0

--------------------------------------------------------------------------------

***  Geometry step: 5

 iSCC Total electronic   Diff electronic      SCC error    
    1   -0.19615648E+03    0.00000000E+00    0.66818586E-01
    2   -0.19572158E+03    0.43489154E+00    0.40637083E-01
    3   -0.19572375E+03   -0.21705050E-02    0.73283704E-02
    4   -0.19572426E+03   -0.50165011E-03    0.13837386E-02
    5   -0.19572429E+03   -0.30610592E-04    0.25802412E-03
    6   -0.19572429E+03   -0.82373671E-06    0.95209037E-04
    7   -0.19572429E+03   -0.18256713E-07    0.34885749E-04
    8   -0.19572429E+03   -0.14055956E-08    0.88822763E-05
    9   -0.19572429E+03   -0.13596946E-09    0.25804741E-05
   10   -0.19572429E+03   -0.75601747E-11    0.29062706E-06
   11   -0.19572429E+03   -0.39790393E-12    0.35586602E-07
   12   -0.19572429E+03    0.00000000E+00    0.11597923E-07
   13   -0.19572429E+03    0.00000000E+00    0.55559366E-08

Total Energy:                     -192.9888839535 H        -5251.4947 eV
Extrapolated to 0K:               -192.9888839535 H        -5251.4947 eV
Total Mermin free energy:         -192.9888839535 H        -5251.4947 eV
Force related energy:             -192.9888839535 H        -5251.4947 eV

Volume:                              0.103285E+05 au^3   0.153053E+04 A^3
Pressure:                            0.390387E-03 au     0.114856E+11 Pa
>> Charges saved for restart in charges.bin

total energy  -1.9298888E+02 H       energy change -1.8891593E-01 H
gradient norm  3.1580001E-01 H/a0    max. gradient  1.4868339E-01 H/a0
step length    7.0982274E-01 a0      max. step      2.2840978E-01 a0

--------------------------------------------------------------------------------

***  Geometry step: 6

 iSCC Total electronic   Diff electronic      SCC error    
    1   -0.19572429E+03    0.00000000E+00    0.51219051E-01
    2   -0.19538706E+03    0.33722845E+00    0.28238906E-01
    3   -0.19538841E+03   -0.13505526E-02    0.41101394E-02
    4   -0.19538872E+03   -0.31172284E-03    0.51462900E-03
    5   -0.19538874E+03   -0.15376250E-04    0.24201205E-03
    6   -0.19538874E+03   -0.44239781E-06    0.10170968E-03
    7   -0.19538874E+03   -0.67821020E-08    0.25138427E-04
    8   -0.19538874E+03   -0.70861006E-09    0.67518862E-05
    9   -0.19538874E+03   -0.88562047E-10    0.13743740E-05
   10   -0.19538874E+03   -0.25863756E-11    0.84297130E-07
   11   -0.19538874E+03   -0.17053026E-12    0.23480494E-07
   12   -0.19538874E+03   -0.28421709E-13    0.80277411E-08

Total Energy:                     -193.0726390425 H        -5253.7738 eV
Extrapolated to 0K:               -193.0726390425 H        -5253.7738 eV
Total Mermin free energy:         -193.0726390425 H        -5253.7738 eV
Force related energy:             -193.0726390425 H        -5253.7738 eV

Volume:                              0.104815E+05 au^3   0.155319E+04 A^3
Pressure:                            0.221562E-03 au     0.651858E+10 Pa
>> Charges saved for restart in charges.bin

total energy  -1.9307264E+02 H       energy change -8.3755089E-02 H
gradient norm  1.9847847E-01 H/a0    max. gradient  9.6671058E-02 H/a0
step length    5.7298828E-01 a0      max. step      1.1789944E-01 a0

--------------------------------------------------------------------------------

***  Geometry step: 7

 iSCC Total electronic   Diff electronic      SCC error    
    1   -0.19538874E+03    0.00000000E+00    0.35441350E-01
    2   -0.19520082E+03    0.18791260E+00    0.18930885E-01
    3   -0.19520180E+03   -0.97569692E-03    0.36926642E-02
    4   -0.19520197E+03   -0.17228640E-03    0.74044837E-03
    5   -0.19520198E+03   -0.53260545E-05    0.30193944E-03
    6   -0.19520198E+03   -0.23357489E-06    0.10439564E-03
    7   -0.19520198E+03   -0.56728027E-08    0.21128802E-04
    8   -0.19520198E+03   -0.46713922E-09    0.33229534E-05
    9   -0.19520198E+03   -0.54512839E-10    0.10119184E-05
   10   -0.19520198E+03   -0.23590019E-11    0.12798539E-06
   11   -0.19520198E+03   -0.11368684E-12    0.12310594E-07
   12   -0.19520198E+03    0.28421709E-13    0.40530193E-08

Total Energy:                     -193.1115642981 H        -5254.8330 eV
Extrapolated to 0K:               -193.1115642981 H        -5254.8330 eV
Total Mermin free energy:         -193.1115642981 H        -5254.8330 eV
Force related energy:             -193.1115642981 H        -5254.8330 eV

Volume:                              0.105606E+05 au^3   0.156492E+04 A^3
Pressure:                            0.135254E-03 au     0.397930E+10 Pa
>> Charges saved for restart in charges.bin

total energy  -1.9311156E+02 H       energy change -3.8925256E-02 H
gradient norm  1.2666757E-01 H/a0    max. gradient  2.4142850E-02 H/a0
step length    4.3868923E-01 a0      max. step      7.4944401E-02 a0

--------------------------------------------------------------------------------

***  Geometry step: 8

 iSCC Total electronic   Diff electronic      SCC error    
    1   -0.19520198E+03    0.00000000E+00    0.15278360E-01
    2   -0.19510895E+03    0.93024524E-01    0.79358317E-02
    3   -0.19510919E+03   -0.24046425E-03    0.18082009E-02
    4   -0.19510924E+03   -0.47252744E-04    0.38797749E-03
    5   -0.19510924E+03   -0.10497656E-05    0.80488245E-04
    6   -0.19510924E+03   -0.78099418E-07    0.17434437E-04
    7   -0.19510924E+03   -0.44036312E-08    0.51661140E-05
    8   -0.19510924E+03   -0.18084734E-09    0.19767261E-05
    9   -0.19510924E+03   -0.54569682E-11    0.53788461E-06
   10   -0.19510924E+03   -0.42632564E-12    0.54054568E-07
   11   -0.19510924E+03   -0.28421709E-13    0.99810276E-08

Total Energy:                     -193.1329832093 H        -5255.4159 eV
Extrapolated to 0K:               -193.1329832093 H        -5255.4159 eV
Total Mermin free energy:         -193.1329832093 H        -5255.4159 eV
Force related energy:             -193.1329832093 H        -5255.4159 eV

Volume:                              0.106116E+05 au^3   0.157248E+04 A^3
Pressure:                            0.850187E-04 au     0.250134E+10 Pa
>> Charges saved for restart in charges.bin

total energy  -1.9313298E+02 H       energy change -2.1418911E-02 H
gradient norm  1.0668343E-01 H/a0    max. gradient  1.6828056E-02 H/a0
step length    3.4191877E-01 a0      max. step      6.0225092E-02 a0

--------------------------------------------------------------------------------

***  Geometry step: 9

 iSCC Total electronic   Diff electronic      SCC error    
    1   -0.19510924E+03    0.00000000E+00    0.24851252E-01
    2   -0.19508616E+03    0.23082812E-01    0.14422393E-01
    3   -0.19508646E+03   -0.30416989E-03    0.36701731E-02
    4   -0.19508651E+03   -0.50734911E-04    0.73195009E-03
    5   -0.19508652E+03   -0.21038601E-05    0.24795210E-03
    6   -0.19508652E+03   -0.19986598E-06    0.56782206E-04
    7   -0.19508652E+03   -0.39335077E-08    0.87659416E-05
    8   -0.19508652E+03   -0.15560886E-09    0.12119755E-05
    9   -0.19508652E+03   -0.21145752E-10    0.33159119E-06
   10   -0.19508652E+03   -0.16200374E-11    0.66562907E-07
   11   -0.19508652E+03    0.56843419E-13    0.11295323E-07
   12   -0.19508652E+03    0.28421709E-13    0.13034462E-08

Total Energy:                     -193.1553263474 H        -5256.0239 eV
Extrapolated to 0K:               -193.1553263474 H        -5256.0239 eV
Total Mermin free energy:         -193.1553263474 H        -5256.0239 eV
Force related energy:             -193.1553263474 H        -5256.0239 eV

Volume:                              0.106460E+05 au^3   0.157757E+04 A^3
Pressure:                            0.613132E-04 au     0.180390E+10 Pa
>> Charges saved for restart in charges.bin

total energy  -1.9315533E+02 H       energy change -2.2343138E-02 H
gradient norm  9.0602869E-02 H/a0    max. gradient  1.4592056E-02 H/a0
step length    3.8289443E-01 a0      max. step      6.7903867E-02 a0

--------------------------------------------------------------------------------

***  Geometry step: 10

 iSCC Total electronic   Diff electronic      SCC error    
    1   -0.19508652E+03    0.00000000E+00    0.29333803E-01
    2   -0.19512051E+03   -0.33988780E-01    0.17087220E-01
    3   -0.19512098E+03   -0.47624330E-03    0.27104446E-02
    4   -0.19512109E+03   -0.10909470E-03    0.81033800E-03
    5   -0.19512110E+03   -0.51073422E-05    0.33882014E-03
    6   -0.19512110E+03   -0.21803737E-06    0.81669934E-04
    7   -0.19512110E+03   -0.71315469E-08    0.10989364E-04
    8   -0.19512110E+03   -0.36865799E-09    0.22191732E-05
    9   -0.19512110E+03   -0.33764991E-10    0.48003172E-06
   10   -0.19512110E+03   -0.33821834E-11    0.78996603E-07
   11   -0.19512110E+03   -0.85265128E-13    0.14162786E-07
   12   -0.19512110E+03    0.85265128E-13    0.28603102E-08

Total Energy:                     -193.1759060013 H        -5256.5839 eV
Extrapolated to 0K:               -193.1759060013 H        -5256.5839 eV
Total Mermin free energy:         -193.1759060013 H        -5256.5839 eV
Force related energy:             -193.1759060013 H        -5256.5839 eV

Volume:                              0.106661E+05 au^3   0.158055E+04 A^3
Pressure:                            0.613938E-04 au     0.180627E+10 Pa
>> Charges saved for restart in charges.bin

total energy  -1.9317591E+02 H       energy change -2.0579654E-02 H
gradient norm  8.2041890E-02 H/a0    max. gradient  2.0359984E-02 H/a0
step length    4.3666102E-01 a0      max. step      6.7142690E-02 a0

--------------------------------------------------------------------------------

***  Geometry step: 11

 iSCC Total electronic   Diff electronic      SCC error    
    1   -0.19512110E+03    0.00000000E+00    0.24657877E-01
    2   -0.19516334E+03   -0.42248214E-01    0.15117226E-01
    3   -0.19516377E+03   -0.42462358E-03    0.28477577E-02
    4   -0.19516386E+03   -0.92270046E-04    0.79552008E-03
    5   -0.19516387E+03   -0.46809470E-05    0.30376193E-03
    6   -0.19516387E+03   -0.25081872E-06    0.80462346E-04
    7   -0.19516387E+03   -0.68166628E-08    0.12376721E-04
    8   -0.19516387E+03   -0.45940851E-09    0.23884511E-05
    9   -0.19516387E+03   -0.40927262E-10    0.39337836E-06
   10   -0.19516387E+03   -0.29274361E-11    0.97451148E-07
   11   -0.19516387E+03   -0.14210855E-12    0.17902628E-07
   12   -0.19516387E+03    0.28421709E-13    0.38000536E-08

Total Energy:                     -193.1882258697 H        -5256.9191 eV
Extrapolated to 0K:               -193.1882258697 H        -5256.9191 eV
Total Mermin free energy:         -193.1882258697 H        -5256.9191 eV
Force related energy:             -193.1882258697 H        -5256.9191 eV

Volume:                              0.106801E+05 au^3   0.158263E+04 A^3
Pressure:                            0.673460E-04 au     0.198139E+10 Pa
>> Charges saved for restart in charges.bin

total energy  -1.9318823E+02 H       energy change -1.2319868E-02 H
gradient norm  8.4213738E-02 H/a0    max. gradient  2.4824052E-02 H/a0
step length    3.7109740E-01 a0      max. step      5.5650417E-02 a0

--------------------------------------------------------------------------------

***  Geometry step: 12

 iSCC Total electronic   Diff electronic      SCC error    
    1   -0.19516387E+03    0.00000000E+00    0.23404508E-01
    2   -0.19519383E+03   -0.29968537E-01    0.13971288E-01
    3   -0.19519410E+03   -0.26385975E-03    0.21432944E-02
    4   -0.19519416E+03   -0.61330315E-04    0.54747152E-03
    5   -0.19519416E+03   -0.36141574E-05    0.20928579E-03
    6   -0.19519416E+03   -0.86782222E-07    0.60901194E-04
    7   -0.19519416E+03   -0.26545877E-08    0.54456808E-05
    8   -0.19519416E+03   -0.23015900E-09    0.12237029E-05
    9   -0.19519416E+03   -0.14722445E-10    0.37152868E-06
   10   -0.19519416E+03   -0.79580786E-12    0.87427610E-07
   11   -0.19519416E+03    0.00000000E+00    0.19403259E-07
   12   -0.19519416E+03    0.28421709E-13    0.34035166E-08

Total Energy:                     -193.1974179936 H        -5257.1692 eV
Extrapolated to 0K:               -193.1974179936 H        -5257.1692 eV
Total Mermin free energy:         -193.1974179936 H        -5257.1692 eV
Force related energy:             -193.1974179936 H        -5257.1692 eV

Volume:                              0.107023E+05 au^3   0.158592E+04 A^3
Pressure:                            0.700270E-04 au     0.206027E+10 Pa
>> Charges saved for restart in charges.bin

total energy  -1.9319742E+02 H       energy change -9.1921239E-03 H
gradient norm  8.1459934E-02 H/a0    max. gradient  2.9034069E-02 H/a0
step length    3.2434974E-01 a0      max. step      5.0052902E-02 a0

--------------------------------------------------------------------------------

***  Geometry step: 13

 iSCC Total electronic   Diff electronic      SCC error    
    1   -0.19519416E+03    0.00000000E+00    0.19635477E-01
    2   -0.19521054E+03   -0.16374481E-01    0.11197300E-01
    3   -0.19521068E+03   -0.14314299E-03    0.21946708E-02
    4   -0.19521072E+03   -0.35395670E-04    0.53569819E-03
    5   -0.19521072E+03   -0.19301474E-05    0.19366443E-03
    6   -0.19521072E+03   -0.51086488E-07    0.51815249E-04
    7   -0.19521072E+03   -0.14356374E-08    0.58423271E-05
    8   -0.19521072E+03   -0.19045387E-09    0.75088370E-06
    9   -0.19521072E+03   -0.12846613E-10    0.22415506E-06
   10   -0.19521072E+03   -0.45474735E-12    0.46897476E-07
   11   -0.19521072E+03   -0.28421709E-13    0.10934721E-07
   12   -0.19521072E+03    0.56843419E-13    0.26087497E-08

Total Energy:                     -193.2059648653 H        -5257.4018 eV
Extrapolated to 0K:               -193.2059648653 H        -5257.4018 eV
Total Mermin free energy:         -193.2059648653 H        -5257.4018 eV
Force related energy:             -193.2059648653 H        -5257.4018 eV

Volume:                              0.107319E+05 au^3   0.159030E+04 A^3
Pressure:                            0.697415E-04 au     0.205187E+10 Pa
>> Charges saved for restart in charges.bin

total energy  -1.9320596E+02 H       energy change -8.5468717E-03 H
gradient norm  6.5702030E-02 H/a0    max. gradient  1.2766253E-02 H/a0
step length    2.7673609E-01 a0      max. step      4.5820760E-02 a0

--------------------------------------------------------------------------------

***  Geometry step: 14

 iSCC Total electronic   Diff electronic      SCC error    
    1   -0.19521072E+03    0.00000000E+00    0.19057519E-01
    2   -0.19520319E+03    0.75245605E-02    0.10854261E-01
    3   -0.19520331E+03   -0.12023475E-03    0.22013708E-02
    4   -0.19520334E+03   -0.29959878E-04    0.55817389E-03
    5   -0.19520335E+03   -0.14636555E-05    0.22134275E-03
    6   -0.19520335E+03   -0.67601377E-07    0.47144566E-04
    7   -0.19520335E+03   -0.21398421E-08    0.55298115E-05
    8   -0.19520335E+03   -0.19386448E-09    0.88845874E-06
    9   -0.19520335E+03   -0.10118129E-10    0.24351843E-06
   10   -0.19520335E+03   -0.88107299E-12    0.33633352E-07
   11   -0.19520335E+03    0.56843419E-13    0.45118291E-08

Total Energy:                     -193.2138827587 H        -5257.6173 eV
Extrapolated to 0K:               -193.2138827587 H        -5257.6173 eV
Total Mermin free energy:         -193.2138827587 H        -5257.6173 eV
Force related energy:             -193.2138827587 H        -5257.6173 eV

Volume:                              0.107804E+05 au^3   0.159749E+04 A^3
Pressure:                            0.614213E-04 au     0.180708E+10 Pa
>> Charges saved for restart in charges.bin

total energy  -1.9321388E+02 H       energy change -7.9178935E-03 H
gradient norm  5.4725618E-02 H/a0    max. gradient  1.0621732E-02 H/a0
step length    2.8396213E-01 a0      max. step      4.9998284E-02 a0

--------------------------------------------------------------------------------

***  Geometry step: 15

 iSCC Total electronic   Diff electronic      SCC error    
    1   -0.19520335E+03    0.00000000E+00    0.10341088E-01
    2   -0.19517487E+03    0.28476831E-01    0.59583125E-02
    3   -0.19517491E+03   -0.40805066E-04    0.13337483E-02
    4   -0.19517492E+03   -0.95949303E-05    0.34423668E-03
    5   -0.19517492E+03   -0.50983041E-06    0.13853043E-03
    6   -0.19517492E+03   -0.24060057E-07    0.30486766E-04
    7   -0.19517492E+03   -0.83173290E-09    0.31733755E-05
    8   -0.19517492E+03   -0.80177642E-10    0.60584506E-06
    9   -0.19517492E+03   -0.36664005E-11    0.18921302E-06
   10   -0.19517492E+03   -0.19895197E-12    0.20390603E-07
   11   -0.19517492E+03   -0.28421709E-13    0.33472971E-08

Total Energy:                     -193.2188024383 H        -5257.7511 eV
Extrapolated to 0K:               -193.2188024383 H        -5257.7511 eV
Total Mermin free energy:         -193.2188024383 H        -5257.7511 eV
Force related energy:             -193.2188024383 H        -5257.7511 eV

Volume:                              0.108318E+05 au^3   0.160511E+04 A^3
Pressure:                            0.458329E-04 au     0.134845E+10 Pa
>> Charges saved for restart in charges.bin

total energy  -1.9321880E+02 H       energy change -4.9196796E-03 H
gradient norm  5.0554057E-02 H/a0    max. gradient  9.3251592E-03 H/a0
step length    2.3602487E-01 a0      max. step      4.3086679E-02 a0

--------------------------------------------------------------------------------

***  Geometry step: 16

 iSCC Total electronic   Diff electronic      SCC error    
    1   -0.19517492E+03    0.00000000E+00    0.98614776E-02
    2   -0.19514524E+03    0.29681356E-01    0.55585776E-02
    3   -0.19514527E+03   -0.34645536E-04    0.10765783E-02
    4   -0.19514528E+03   -0.63417278E-05    0.24794997E-03
    5   -0.19514528E+03   -0.32196726E-06    0.95755248E-04
    6   -0.19514528E+03   -0.20072775E-07    0.25414093E-04
    7   -0.19514528E+03   -0.60427396E-09    0.31051719E-05
    8   -0.19514528E+03   -0.41836756E-10    0.44023333E-06
    9   -0.19514528E+03   -0.29842795E-11    0.96727907E-07
   10   -0.19514528E+03   -0.31263880E-12    0.19393443E-07
   11   -0.19514528E+03    0.28421709E-13    0.43685717E-08

Total Energy:                     -193.2231435575 H        -5257.8693 eV
Extrapolated to 0K:               -193.2231435575 H        -5257.8693 eV
Total Mermin free energy:         -193.2231435575 H        -5257.8693 eV
Force related energy:             -193.2231435575 H        -5257.8693 eV

Volume:                              0.108820E+05 au^3   0.161255E+04 A^3
Pressure:                            0.284005E-04 au     0.835572E+09 Pa
>> Charges saved for restart in charges.bin

total energy  -1.9322314E+02 H       energy change -4.3411192E-03 H
gradient norm  5.0470700E-02 H/a0    max. gradient  1.0161524E-02 H/a0
step length    2.3283760E-01 a0      max. step      4.4293189E-02 a0

--------------------------------------------------------------------------------

***  Geometry step: 17

 iSCC Total electronic   Diff electronic      SCC error    
    1   -0.19514528E+03    0.00000000E+00    0.98917964E-02
    2   -0.19513028E+03    0.14996547E-01    0.56045286E-02
    3   -0.19513033E+03   -0.44984549E-04    0.13100593E-02
    4   -0.19513034E+03   -0.77161424E-05    0.16717992E-03
    5   -0.19513034E+03   -0.38791947E-06    0.68487353E-04
    6   -0.19513034E+03   -0.24726688E-07    0.22275020E-04
    7   -0.19513034E+03   -0.63616312E-09    0.42808442E-05
    8   -0.19513034E+03   -0.27597480E-10    0.10476898E-05
    9   -0.19513034E+03   -0.21884716E-11    0.18454548E-06
   10   -0.19513034E+03   -0.22737368E-12    0.23625040E-07
   11   -0.19513034E+03    0.00000000E+00    0.33960927E-08

Total Energy:                     -193.2279843172 H        -5258.0010 eV
Extrapolated to 0K:               -193.2279843172 H        -5258.0010 eV
Total Mermin free energy:         -193.2279843172 H        -5258.0010 eV
Force related energy:             -193.2279843172 H        -5258.0010 eV

Volume:                              0.109284E+05 au^3   0.161942E+04 A^3
Pressure:                            0.166644E-04 au     0.490284E+09 Pa
>> Charges saved for restart in charges.bin

total energy  -1.9322798E+02 H       energy change -4.8407597E-03 H
gradient norm  5.3484223E-02 H/a0    max. gradient  1.1069619E-02 H/a0
step length    2.6769401E-01 a0      max. step      5.0127929E-02 a0

--------------------------------------------------------------------------------

***  Geometry step: 18

 iSCC Total electronic   Diff electronic      SCC error    
    1   -0.19513034E+03    0.00000000E+00    0.14901449E-01
    2   -0.19513560E+03   -0.52651164E-02    0.87465206E-02
    3   -0.19513568E+03   -0.76907592E-04    0.21545837E-02
    4   -0.19513569E+03   -0.12266363E-04    0.19399228E-03
    5   -0.19513569E+03   -0.70721921E-06    0.39744134E-04
    6   -0.19513569E+03   -0.38040298E-07    0.10691225E-04
    7   -0.19513569E+03   -0.80746076E-09    0.14022505E-05
    8   -0.19513569E+03   -0.28506975E-10    0.50999905E-06
    9   -0.19513569E+03   -0.14210855E-11    0.16763746E-06
   10   -0.19513569E+03   -0.28421709E-12    0.41639279E-07
   11   -0.19513569E+03    0.28421709E-13    0.73524036E-08

Total Energy:                     -193.2335371806 H        -5258.1521 eV
Extrapolated to 0K:               -193.2335371806 H        -5258.1521 eV
Total Mermin free energy:         -193.2335371806 H        -5258.1521 eV
Force related energy:             -193.2335371806 H        -5258.1521 eV

Volume:                              0.109689E+05 au^3   0.162542E+04 A^3
Pressure:                            0.142942E-04 au     0.420548E+09 Pa
>> Charges saved for restart in charges.bin

total energy  -1.9323354E+02 H       energy change -5.5528634E-03 H
gradient norm  5.3005647E-02 H/a0    max. gradient  9.9901365E-03 H/a0
step length    3.1670417E-01 a0      max. step      5.5023259E-02 a0

--------------------------------------------------------------------------------

***  Geometry step: 19

 iSCC Total electronic   Diff electronic      SCC error    
    1   -0.19513569E+03    0.00000000E+00    0.14025468E-01
    2   -0.19515476E+03   -0.19064342E-01    0.81716522E-02
    3   -0.19515487E+03   -0.11567733E-03    0.24229852E-02
    4   -0.19515489E+03   -0.15598264E-04    0.23006531E-03
    5   -0.19515489E+03   -0.84061668E-06    0.77386542E-04
    6   -0.19515489E+03   -0.47808754E-07    0.28238512E-04
    7   -0.19515489E+03   -0.12835528E-08    0.63165970E-05
    8   -0.19515489E+03   -0.49652726E-10    0.18186619E-05
    9   -0.19515489E+03   -0.29842795E-11    0.34863308E-06
   10   -0.19515489E+03   -0.36948222E-12    0.33998386E-07
   11   -0.19515489E+03   -0.56843419E-13    0.57658331E-08

Total Energy:                     -193.2387024080 H        -5258.2926 eV
Extrapolated to 0K:               -193.2387024080 H        -5258.2926 eV
Total Mermin free energy:         -193.2387024080 H        -5258.2926 eV
Force related energy:             -193.2387024080 H        -5258.2926 eV

Volume:                              0.110035E+05 au^3   0.163055E+04 A^3
Pressure:                            0.182064E-04 au     0.535651E+09 Pa
>> Charges saved for restart in charges.bin

total energy  -1.9323870E+02 H       energy change -5.1652275E-03 H
gradient norm  4.9234032E-02 H/a0    max. gradient  1.2359387E-02 H/a0
step length    3.4279451E-01 a0      max. step      5.7776609E-02 a0

--------------------------------------------------------------------------------

***  Geometry step: 20

 iSCC Total electronic   Diff electronic      SCC error    
    1   -0.19515489E+03    0.00000000E+00    0.10089457E-01
    2   -0.19517423E+03   -0.19344652E-01    0.51055361E-02
    3   -0.19517435E+03   -0.11966498E-03    0.17038693E-02
    4   -0.19517437E+03   -0.13426204E-04    0.36495646E-03
    5   -0.19517437E+03   -0.61338412E-06    0.10807534E-03
    6   -0.19517437E+03   -0.40572189E-07    0.33058466E-04
    7   -0.19517437E+03   -0.11415295E-08    0.54458833E-05
    8   -0.19517437E+03   -0.60509819E-10    0.12718022E-05
    9   -0.19517437E+03   -0.39790393E-11    0.24381711E-06
   10   -0.19517437E+03   -0.48316906E-12    0.34742954E-07
   11   -0.19517437E+03    0.28421709E-13    0.35355736E-08

Total Energy:                     -193.2431665724 H        -5258.4141 eV
Extrapolated to 0K:               -193.2431665724 H        -5258.4141 eV
Total Mermin free energy:         -193.2431665724 H        -5258.4141 eV
Force related energy:             -193.2431665724 H        -5258.4141 eV

Volume:                              0.110360E+05 au^3   0.163537E+04 A^3
Pressure:                            0.225708E-04 au     0.664055E+09 Pa
>> Charges saved for restart in charges.bin

total energy  -1.9324317E+02 H       energy change -4.4641644E-03 H
gradient norm  4.4176011E-02 H/a0    max. gradient  8.0838495E-03 H/a0
step length    3.3061341E-01 a0      max. step      5.9471546E-02 a0

--------------------------------------------------------------------------------

***  Geometry step: 21

 iSCC Total electronic   Diff electronic      SCC error    
    1   -0.19517437E+03    0.00000000E+00    0.11731217E-01
    2   -0.19518906E+03   -0.14691189E-01    0.63754964E-02
    3   -0.19518919E+03   -0.13354914E-03    0.20411625E-02
    4   -0.19518921E+03   -0.15863613E-04    0.46285465E-03
    5   -0.19518921E+03   -0.72819466E-06    0.13309443E-03
    6   -0.19518921E+03   -0.39541334E-07    0.37356165E-04
    7   -0.19518921E+03   -0.11798136E-08    0.51641440E-05
    8   -0.19518921E+03   -0.86515684E-10    0.89251955E-06
    9   -0.19518921E+03   -0.55990768E-11    0.22167275E-06
   10   -0.19518921E+03   -0.54001248E-12    0.33050686E-07
   11   -0.19518921E+03   -0.28421709E-13    0.39114436E-08

Total Energy:                     -193.2471884187 H        -5258.5235 eV
Extrapolated to 0K:               -193.2471884187 H        -5258.5235 eV
Total Mermin free energy:         -193.2471884187 H        -5258.5235 eV
Force related energy:             -193.2471884187 H        -5258.5235 eV

Volume:                              0.110717E+05 au^3   0.164065E+04 A^3
Pressure:                            0.251180E-04 au     0.738998E+09 Pa
>> Charges saved for restart in charges.bin

total energy  -1.9324719E+02 H       energy change -4.0218463E-03 H
gradient norm  3.8864507E-02 H/a0    max. gradient  8.4004905E-03 H/a0
step length    3.3750509E-01 a0      max. step      6.3440340E-02 a0

--------------------------------------------------------------------------------

***  Geometry step: 22

 iSCC Total electronic   Diff electronic      SCC error    
    1   -0.19518921E+03    0.00000000E+00    0.91541263E-02
    2   -0.19518944E+03   -0.22959241E-03    0.51066788E-02
    3   -0.19518950E+03   -0.57681561E-04    0.13327966E-02
    4   -0.19518950E+03   -0.93456106E-05    0.30647060E-03
    5   -0.19518950E+03   -0.49249468E-06    0.97898225E-04
    6   -0.19518950E+03   -0.23349827E-07    0.25903180E-04
    7   -0.19518950E+03   -0.71187856E-09    0.41391968E-05
    8   -0.19518950E+03   -0.47805315E-10    0.73156308E-06
    9   -0.19518950E+03   -0.34958703E-11    0.10104537E-06
   10   -0.19518950E+03   -0.34106051E-12    0.14398585E-07
   11   -0.19518950E+03   -0.56843419E-13    0.31708214E-08

Total Energy:                     -193.2495490353 H        -5258.5878 eV
Extrapolated to 0K:               -193.2495490353 H        -5258.5878 eV
Total Mermin free energy:         -193.2495490353 H        -5258.5878 eV
Force related energy:             -193.2495490353 H        -5258.5878 eV

Volume:                              0.111035E+05 au^3   0.164536E+04 A^3
Pressure:                            0.233801E-04 au     0.687867E+09 Pa
>> Charges saved for restart in charges.bin

total energy  -1.9324955E+02 H       energy change -2.3606166E-03 H
gradient norm  3.3509495E-02 H/a0    max. gradient  7.4682382E-03 H/a0
step length    2.3842834E-01 a0      max. step      4.4010917E-02 a0

--------------------------------------------------------------------------------

***  Geometry step: 23

 iSCC Total electronic   Diff electronic      SCC error    
    1   -0.19518950E+03    0.00000000E+00    0.59035919E-02
    2   -0.19517906E+03    0.10442097E-01    0.35589477E-02
    3   -0.19517909E+03   -0.26686956E-04    0.78329294E-03
    4   -0.19517910E+03   -0.55548347E-05    0.11640861E-03
    5   -0.19517910E+03   -0.23822304E-06    0.43531007E-04
    6   -0.19517910E+03   -0.78038056E-08    0.14467589E-04
    7   -0.19517910E+03   -0.24786573E-09    0.31401405E-05
    8   -0.19517910E+03   -0.11851853E-10    0.62550831E-06
    9   -0.19517910E+03   -0.13358203E-11    0.88954985E-07
   10   -0.19517910E+03   -0.17053026E-12    0.15993606E-07
   11   -0.19517910E+03    0.56843419E-13    0.33482497E-08

Total Energy:                     -193.2508696181 H        -5258.6237 eV
Extrapolated to 0K:               -193.2508696181 H        -5258.6237 eV
Total Mermin free energy:         -193.2508696181 H        -5258.6237 eV
Force related energy:             -193.2508696181 H        -5258.6237 eV

Volume:                              0.111306E+05 au^3   0.164939E+04 A^3
Pressure:                            0.178933E-04 au     0.526439E+09 Pa
>> Charges saved for restart in charges.bin

total energy  -1.9325087E+02 H       energy change -1.3205828E-03 H
gradient norm  2.5755455E-02 H/a0    max. gradient  8.2618198E-03 H/a0
step length    1.4465323E-01 a0      max. step      2.6595606E-02 a0

--------------------------------------------------------------------------------

***  Geometry step: 24

 iSCC Total electronic   Diff electronic      SCC error    
    1   -0.19517910E+03    0.00000000E+00    0.46159390E-02
    2   -0.19516620E+03    0.12891106E-01    0.26415478E-02
    3   -0.19516623E+03   -0.22393882E-04    0.66502193E-03
    4   -0.19516623E+03   -0.39056348E-05    0.96801326E-04
    5   -0.19516623E+03   -0.13237894E-06    0.12723557E-04
    6   -0.19516623E+03   -0.61102128E-08    0.39736350E-05
    7   -0.19516623E+03   -0.11357315E-09    0.87394923E-06
    8   -0.19516623E+03   -0.43200998E-11    0.26654827E-06
    9   -0.19516623E+03   -0.22737368E-12    0.68107732E-07
   10   -0.19516623E+03    0.28421709E-13    0.15530907E-07
   11   -0.19516623E+03   -0.11368684E-12    0.34154248E-08

Total Energy:                     -193.2517306079 H        -5258.6471 eV
Extrapolated to 0K:               -193.2517306079 H        -5258.6471 eV
Total Mermin free energy:         -193.2517306079 H        -5258.6471 eV
Force related energy:             -193.2517306079 H        -5258.6471 eV

Volume:                              0.111519E+05 au^3   0.165254E+04 A^3
Pressure:                            0.114218E-04 au     0.336041E+09 Pa
>> Charges saved for restart in charges.bin

total energy  -1.9325173E+02 H       energy change -8.6098979E-04 H
gradient norm  2.1230789E-02 H/a0    max. gradient  6.6200868E-03 H/a0
step length    8.3265000E-02 a0      max. step      2.0770528E-02 a0

--------------------------------------------------------------------------------

***  Geometry step: 25

 iSCC Total electronic   Diff electronic      SCC error    
    1   -0.19516623E+03    0.00000000E+00    0.39078331E-02
    2   -0.19515999E+03    0.62455025E-02    0.17164359E-02
    3   -0.19516000E+03   -0.17201584E-04    0.54884643E-03
    4   -0.19516000E+03   -0.23212923E-05    0.80222604E-04
    5   -0.19516000E+03   -0.66935968E-07    0.22774269E-04
    6   -0.19516000E+03   -0.43497437E-08    0.84089663E-05
    7   -0.19516000E+03   -0.88192564E-10    0.17168803E-05
    8   -0.19516000E+03   -0.33537617E-11    0.30595966E-06
    9   -0.19516000E+03   -0.42632564E-12    0.52164082E-07
   10   -0.19516000E+03    0.56843419E-13    0.12742873E-07
   11   -0.19516000E+03    0.28421709E-13    0.15945743E-08

Total Energy:                     -193.2523966342 H        -5258.6653 eV
Extrapolated to 0K:               -193.2523966342 H        -5258.6653 eV
Total Mermin free energy:         -193.2523966342 H        -5258.6653 eV
Force related energy:             -193.2523966342 H        -5258.6653 eV

Volume:                              0.111670E+05 au^3   0.165478E+04 A^3
Pressure:                            0.770044E-05 au     0.226555E+09 Pa
>> Charges saved for restart in charges.bin

total energy  -1.9325240E+02 H       energy change -6.6602631E-04 H
gradient norm  2.2671851E-02 H/a0    max. gradient  5.5231037E-03 H/a0
step length    6.6376210E-02 a0      max. step      1.9569211E-02 a0

--------------------------------------------------------------------------------

***  Geometry step: 26

 iSCC Total electronic   Diff electronic      SCC error    
    1   -0.19516000E+03    0.00000000E+00    0.58589444E-02
    2   -0.19515819E+03    0.18126130E-02    0.24333265E-02
    3   -0.19515822E+03   -0.26504748E-04    0.84999635E-03
    4   -0.19515822E+03   -0.32971701E-05    0.14758617E-03
    5   -0.19515822E+03   -0.12259835E-06    0.44848479E-04
    6   -0.19515822E+03   -0.60819332E-08    0.13612840E-04
    7   -0.19515822E+03   -0.12840928E-09    0.15963168E-05
    8   -0.19515822E+03   -0.10658141E-10    0.25121011E-06
    9   -0.19515822E+03   -0.88107299E-12    0.83751915E-07
   10   -0.19515822E+03    0.56843419E-13    0.15567998E-07
   11   -0.19515822E+03    0.00000000E+00    0.16306121E-08

Total Energy:                     -193.2533433190 H        -5258.6910 eV
Extrapolated to 0K:               -193.2533433190 H        -5258.6910 eV
Total Mermin free energy:         -193.2533433190 H        -5258.6910 eV
Force related energy:             -193.2533433190 H        -5258.6910 eV

Volume:                              0.111888E+05 au^3   0.165801E+04 A^3
Pressure:                            0.534161E-05 au     0.157155E+09 Pa
>> Charges saved for restart in charges.bin

total energy  -1.9325334E+02 H       energy change -9.4668477E-04 H
gradient norm  2.4383126E-02 H/a0    max. gradient  5.2432020E-03 H/a0
step length    1.0797452E-01 a0      max. step      3.2501582E-02 a0

--------------------------------------------------------------------------------

***  Geometry step: 27

 iSCC Total electronic   Diff electronic      SCC error    
    1   -0.19515822E+03    0.00000000E+00    0.66231650E-02
    2   -0.19516310E+03   -0.48771990E-02    0.34312657E-02
    3   -0.19516313E+03   -0.32971860E-04    0.11355842E-02
    4   -0.19516314E+03   -0.47667942E-05    0.19882907E-03
    5   -0.19516314E+03   -0.23021875E-06    0.59993964E-04
    6   -0.19516314E+03   -0.84492058E-08    0.15962012E-04
    7   -0.19516314E+03   -0.17439561E-09    0.19809253E-05
    8   -0.19516314E+03   -0.17081447E-10    0.31935833E-06
    9   -0.19516314E+03   -0.17337243E-11    0.10412455E-06
   10   -0.19516314E+03   -0.85265128E-13    0.12904379E-07
   11   -0.19516314E+03    0.28421709E-13    0.17290387E-08

Total Energy:                     -193.2544063880 H        -5258.7200 eV
Extrapolated to 0K:               -193.2544063880 H        -5258.7200 eV
Total Mermin free energy:         -193.2544063880 H        -5258.7200 eV
Force related energy:             -193.2544063880 H        -5258.7200 eV

Volume:                              0.112186E+05 au^3   0.166243E+04 A^3
Pressure:                            0.509904E-05 au     0.150019E+09 Pa
>> Charges saved for restart in charges.bin

total energy  -1.9325441E+02 H       energy change -1.0630690E-03 H
gradient norm  2.3788574E-02 H/a0    max. gradient  5.2251445E-03 H/a0
step length    1.6060918E-01 a0      max. step      4.3712749E-02 a0

--------------------------------------------------------------------------------

***  Geometry step: 28

 iSCC Total electronic   Diff electronic      SCC error    
    1   -0.19516314E+03    0.00000000E+00    0.46493459E-02
    2   -0.19517162E+03   -0.84849454E-02    0.26049746E-02
    3   -0.19517164E+03   -0.20376226E-04    0.85151131E-03
    4   -0.19517165E+03   -0.34206315E-05    0.15148055E-03
    5   -0.19517165E+03   -0.18102762E-06    0.49455084E-04
    6   -0.19517165E+03   -0.55818532E-08    0.11806927E-04
    7   -0.19517165E+03   -0.11792167E-09    0.18263858E-05
    8   -0.19517165E+03   -0.92086339E-11    0.26828094E-06
    9   -0.19517165E+03   -0.16200374E-11    0.66490101E-07
   10   -0.19517165E+03   -0.28421709E-13    0.66140005E-08

Total Energy:                     -193.2552161289 H        -5258.7420 eV
Extrapolated to 0K:               -193.2552161289 H        -5258.7420 eV
Total Mermin free energy:         -193.2552161289 H        -5258.7420 eV
Force related energy:             -193.2552161289 H        -5258.7420 eV

Volume:                              0.112440E+05 au^3   0.166619E+04 A^3
Pressure:                            0.671775E-05 au     0.197643E+09 Pa
>> Charges saved for restart in charges.bin

total energy  -1.9325522E+02 H       energy change -8.0974087E-04 H
gradient norm  1.9353490E-02 H/a0    max. gradient  3.8534751E-03 H/a0
step length    1.5345808E-01 a0      max. step      3.6642386E-02 a0

--------------------------------------------------------------------------------

***  Geometry step: 29

 iSCC Total electronic   Diff electronic      SCC error    
    1   -0.19517165E+03    0.00000000E+00    0.43800530E-02
    2   -0.19517956E+03   -0.79096956E-02    0.24945420E-02
    3   -0.19517957E+03   -0.14857557E-04    0.53956095E-03
    4   -0.19517957E+03   -0.25832844E-05    0.85110455E-04
    5   -0.19517957E+03   -0.11828345E-06    0.32195685E-04
    6   -0.19517957E+03   -0.35658729E-08    0.91497313E-05
    7   -0.19517957E+03   -0.68780537E-10    0.17294148E-05
    8   -0.19517957E+03   -0.39790393E-11    0.17383356E-06
    9   -0.19517957E+03   -0.82422957E-12    0.63014551E-07
   10   -0.19517957E+03    0.28421709E-13    0.85959582E-08

Total Energy:                     -193.2557894984 H        -5258.7576 eV
Extrapolated to 0K:               -193.2557894984 H        -5258.7576 eV
Total Mermin free energy:         -193.2557894984 H        -5258.7576 eV
Force related energy:             -193.2557894984 H        -5258.7576 eV

Volume:                              0.112637E+05 au^3   0.166910E+04 A^3
Pressure:                            0.898870E-05 au     0.264456E+09 Pa
>> Charges saved for restart in charges.bin

total energy  -1.9325579E+02 H       energy change -5.7336951E-04 H
gradient norm  1.6138739E-02 H/a0    max. gradient  5.3721277E-03 H/a0
step length    1.3219520E-01 a0      max. step      2.8659238E-02 a0

--------------------------------------------------------------------------------

***  Geometry step: 30

 iSCC Total electronic   Diff electronic      SCC error    
    1   -0.19517957E+03    0.00000000E+00    0.30614526E-02
    2   -0.19518155E+03   -0.19749758E-02    0.17339114E-02
    3   -0.19518155E+03   -0.63921871E-05    0.37325871E-03
    4   -0.19518156E+03   -0.11558056E-05    0.41629509E-04
    5   -0.19518156E+03   -0.47609745E-07    0.77691642E-05
    6   -0.19518156E+03   -0.15549233E-08    0.29872442E-05
    7   -0.19518156E+03   -0.26005864E-10    0.84530214E-06
    8   -0.19518156E+03   -0.88107299E-12    0.19759530E-06
    9   -0.19518156E+03   -0.28421709E-13    0.44332183E-07
   10   -0.19518156E+03    0.56843419E-13    0.59094489E-08

Total Energy:                     -193.2561759038 H        -5258.7681 eV
Extrapolated to 0K:               -193.2561759038 H        -5258.7681 eV
Total Mermin free energy:         -193.2561759038 H        -5258.7681 eV
Force related energy:             -193.2561759038 H        -5258.7681 eV

Volume:                              0.112770E+05 au^3   0.167108E+04 A^3
Pressure:                            0.921360E-05 au     0.271073E+09 Pa
>> Charges saved for restart in charges.bin

total energy  -1.9325618E+02 H       energy change -3.8640538E-04 H
gradient norm  1.5371407E-02 H/a0    max. gradient  5.7310391E-03 H/a0
step length    8.7985566E-02 a0      max. step      1.7237451E-02 a0

--------------------------------------------------------------------------------

***  Geometry step: 31

 iSCC Total electronic   Diff electronic      SCC error    
    1   -0.19518156E+03    0.00000000E+00    0.34826261E-02
    2   -0.19517991E+03    0.16448127E-02    0.19796272E-02
    3   -0.19517992E+03   -0.68112116E-05    0.44426764E-03
    4   -0.19517992E+03   -0.13363918E-05    0.46432252E-04
    5   -0.19517992E+03   -0.52705786E-07    0.91232444E-05
    6   -0.19517992E+03   -0.14782131E-08    0.32308074E-05
    7   -0.19517992E+03   -0.27313263E-10    0.84842313E-06
    8   -0.19517992E+03   -0.14210855E-11    0.23550680E-06
    9   -0.19517992E+03   -0.56843419E-13    0.46165960E-07
   10   -0.19517992E+03   -0.17053026E-12    0.49823612E-08

Total Energy:                     -193.2566024030 H        -5258.7797 eV
Extrapolated to 0K:               -193.2566024030 H        -5258.7797 eV
Total Mermin free energy:         -193.2566024030 H        -5258.7797 eV
Force related energy:             -193.2566024030 H        -5258.7797 eV

Volume:                              0.112895E+05 au^3   0.167292E+04 A^3
Pressure:                            0.800425E-05 au     0.235493E+09 Pa
>> Charges saved for restart in charges.bin

total energy  -1.9325660E+02 H       energy change -4.2649924E-04 H
gradient norm  1.5489092E-02 H/a0    max. gradient  4.7334188E-03 H/a0
step length    8.7822027E-02 a0      max. step      1.6908831E-02 a0

--------------------------------------------------------------------------------

***  Geometry step: 32

 iSCC Total electronic   Diff electronic      SCC error    
    1   -0.19517992E+03    0.00000000E+00    0.35127765E-02
    2   -0.19517573E+03    0.41915515E-02    0.20934980E-02
    3   -0.19517573E+03   -0.58024220E-05    0.44853180E-03
    4   -0.19517573E+03   -0.11983645E-05    0.51792620E-04
    5   -0.19517573E+03   -0.47581437E-07    0.16518746E-04
    6   -0.19517573E+03   -0.20104949E-08    0.42349448E-05
    7   -0.19517573E+03   -0.37260861E-10    0.93108661E-06
    8   -0.19517573E+03   -0.23590019E-11    0.16487943E-06
    9   -0.19517573E+03   -0.11368684E-12    0.32587422E-07
   10   -0.19517573E+03    0.00000000E+00    0.47731765E-08

Total Energy:                     -193.2570351186 H        -5258.7915 eV
Extrapolated to 0K:               -193.2570351186 H        -5258.7915 eV
Total Mermin free energy:         -193.2570351186 H        -5258.7915 eV
Force related energy:             -193.2570351186 H        -5258.7915 eV

Volume:                              0.112999E+05 au^3   0.167448E+04 A^3
Pressure:                            0.562227E-05 au     0.165413E+09 Pa
>> Charges saved for restart in charges.bin

total energy  -1.9325704E+02 H       energy change -4.3271560E-04 H
gradient norm  1.6845626E-02 H/a0    max. gradient  2.9804529E-03 H/a0
step length    9.0471461E-02 a0      max. step      2.0751212E-02 a0

--------------------------------------------------------------------------------

***  Geometry step: 33

 iSCC Total electronic   Diff electronic      SCC error    
    1   -0.19517573E+03    0.00000000E+00    0.34257006E-02
    2   -0.19517137E+03    0.43683779E-02    0.19857760E-02
    3   -0.19517137E+03   -0.60162812E-05    0.44759260E-03
    4   -0.19517137E+03   -0.10851715E-05    0.70930256E-04
    5   -0.19517137E+03   -0.50460159E-07    0.21780250E-04
    6   -0.19517137E+03   -0.21765914E-08    0.46178267E-05
    7   -0.19517137E+03   -0.54171778E-10    0.91516137E-06
    8   -0.19517137E+03   -0.33821834E-11    0.15494884E-06
    9   -0.19517137E+03   -0.22737368E-12    0.36652632E-07
   10   -0.19517137E+03    0.56843419E-13    0.55128861E-08

Total Energy:                     -193.2575626540 H        -5258.8058 eV
Extrapolated to 0K:               -193.2575626540 H        -5258.8058 eV
Total Mermin free energy:         -193.2575626540 H        -5258.8058 eV
Force related energy:             -193.2575626540 H        -5258.8058 eV

Volume:                              0.113103E+05 au^3   0.167601E+04 A^3
Pressure:                            0.327291E-05 au     0.962922E+08 Pa
>> Charges saved for restart in charges.bin

total energy  -1.9325756E+02 H       energy change -5.2753540E-04 H
gradient norm  1.8330218E-02 H/a0    max. gradient  3.6878177E-03 H/a0
step length    1.1504475E-01 a0      max. step      2.7905717E-02 a0

--------------------------------------------------------------------------------

***  Geometry step: 34

 iSCC Total electronic   Diff electronic      SCC error    
    1   -0.19517137E+03    0.00000000E+00    0.37537716E-02
    2   -0.19516827E+03    0.31045206E-02    0.20950631E-02
    3   -0.19516828E+03   -0.82331766E-05    0.45756302E-03
    4   -0.19516828E+03   -0.13756240E-05    0.90023998E-04
    5   -0.19516828E+03   -0.65707923E-07    0.28526672E-04
    6   -0.19516828E+03   -0.23621567E-08    0.59656768E-05
    7   -0.19516828E+03   -0.65625727E-10    0.10444202E-05
    8   -0.19516828E+03   -0.43485215E-11    0.14315970E-06
    9   -0.19516828E+03   -0.45474735E-12    0.36874183E-07
   10   -0.19516828E+03    0.00000000E+00    0.71976838E-08

Total Energy:                     -193.2582269869 H        -5258.8239 eV
Extrapolated to 0K:               -193.2582269869 H        -5258.8239 eV
Total Mermin free energy:         -193.2582269869 H        -5258.8239 eV
Force related energy:             -193.2582269869 H        -5258.8239 eV

Volume:                              0.113228E+05 au^3   0.167787E+04 A^3
Pressure:                            0.117187E-05 au     0.344775E+08 Pa
>> Charges saved for restart in charges.bin

total energy  -1.9325823E+02 H       energy change -6.6433282E-04 H
gradient norm  2.0037303E-02 H/a0    max. gradient  4.0475730E-03 H/a0
step length    1.5834296E-01 a0      max. step      3.8381233E-02 a0

--------------------------------------------------------------------------------

***  Geometry step: 35

 iSCC Total electronic   Diff electronic      SCC error    
    1   -0.19516828E+03    0.00000000E+00    0.43162416E-02
    2   -0.19516955E+03   -0.12671987E-02    0.24244656E-02
    3   -0.19516956E+03   -0.10448569E-04    0.58276326E-03
    4   -0.19516956E+03   -0.16692776E-05    0.77854634E-04
    5   -0.19516956E+03   -0.69843708E-07    0.28598077E-04
    6   -0.19516956E+03   -0.25443114E-08    0.94150603E-05
    7   -0.19516956E+03   -0.47435833E-10    0.11703488E-05
    8   -0.19516956E+03   -0.38085091E-11    0.16983433E-06
    9   -0.19516956E+03   -0.28421709E-12    0.49326648E-07
   10   -0.19516956E+03    0.00000000E+00    0.84526843E-08

Total Energy:                     -193.2589210013 H        -5258.8428 eV
Extrapolated to 0K:               -193.2589210013 H        -5258.8428 eV
Total Mermin free energy:         -193.2589210013 H        -5258.8428 eV
Force related energy:             -193.2589210013 H        -5258.8428 eV

Volume:                              0.113357E+05 au^3   0.167978E+04 A^3
Pressure:                            0.601739E-06 au     0.177038E+08 Pa
>> Charges saved for restart in charges.bin

total energy  -1.9325892E+02 H       energy change -6.9401446E-04 H
gradient norm  2.0313605E-02 H/a0    max. gradient  6.7578652E-03 H/a0
step length    1.7602947E-01 a0      max. step      4.0902091E-02 a0

--------------------------------------------------------------------------------

***  Geometry step: 36

 iSCC Total electronic   Diff electronic      SCC error    
    1   -0.19516956E+03    0.00000000E+00    0.59609299E-02
    2   -0.19517656E+03   -0.70040365E-02    0.33420207E-02
    3   -0.19517658E+03   -0.17350735E-04    0.82321579E-03
    4   -0.19517658E+03   -0.29131946E-05    0.72467740E-04
    5   -0.19517658E+03   -0.94729160E-07    0.14520383E-04
    6   -0.19517658E+03   -0.48207198E-08    0.59487431E-05
    7   -0.19517658E+03   -0.91858965E-10    0.14322882E-05
    8   -0.19517658E+03   -0.31263880E-11    0.36337079E-06
    9   -0.19517658E+03   -0.31263880E-12    0.55516228E-07
   10   -0.19517658E+03   -0.28421709E-13    0.74334263E-08

Total Energy:                     -193.2596214710 H        -5258.8619 eV
Extrapolated to 0K:               -193.2596214710 H        -5258.8619 eV
Total Mermin free energy:         -193.2596214710 H        -5258.8619 eV
Force related energy:             -193.2596214710 H        -5258.8619 eV

Volume:                              0.113479E+05 au^3   0.168159E+04 A^3
Pressure:                            0.228555E-05 au     0.672432E+08 Pa
>> Charges saved for restart in charges.bin

total energy  -1.9325962E+02 H       energy change -7.0046966E-04 H
gradient norm  1.8573458E-02 H/a0    max. gradient  7.8364237E-03 H/a0
step length    1.9195810E-01 a0      max. step      4.1305547E-02 a0

--------------------------------------------------------------------------------

***  Geometry step: 37

 iSCC Total electronic   Diff electronic      SCC error    
    1   -0.19517658E+03    0.00000000E+00    0.47857006E-02
    2   -0.19518422E+03   -0.76331068E-02    0.26879885E-02
    3   -0.19518423E+03   -0.12987868E-04    0.68072804E-03
    4   -0.19518423E+03   -0.21938235E-05    0.82057837E-04
    5   -0.19518423E+03   -0.66315835E-07    0.27918589E-04
    6   -0.19518423E+03   -0.42873012E-08    0.97642221E-05
    7   -0.19518423E+03   -0.96662234E-10    0.16891197E-05
    8   -0.19518423E+03   -0.38653525E-11    0.35942832E-06
    9   -0.19518423E+03   -0.31263880E-12    0.58191792E-07
   10   -0.19518423E+03   -0.85265128E-13    0.82196738E-08

Total Energy:                     -193.2601482620 H        -5258.8762 eV
Extrapolated to 0K:               -193.2601482620 H        -5258.8762 eV
Total Mermin free energy:         -193.2601482620 H        -5258.8762 eV
Force related energy:             -193.2601482620 H        -5258.8762 eV

Volume:                              0.113588E+05 au^3   0.168319E+04 A^3
Pressure:                            0.441535E-05 au     0.129904E+09 Pa
>> Charges saved for restart in charges.bin

total energy  -1.9326015E+02 H       energy change -5.2679102E-04 H
gradient norm  1.7477434E-02 H/a0    max. gradient  6.6903256E-03 H/a0
step length    1.5841492E-01 a0      max. step      3.0822632E-02 a0

--------------------------------------------------------------------------------

***  Geometry step: 38

 iSCC Total electronic   Diff electronic      SCC error    
    1   -0.19518423E+03    0.00000000E+00    0.40114424E-02
    2   -0.19519077E+03   -0.65349345E-02    0.21563720E-02
    3   -0.19519078E+03   -0.14607119E-04    0.60044473E-03
    4   -0.19519078E+03   -0.23655330E-05    0.12449891E-03
    5   -0.19519078E+03   -0.74894871E-07    0.37648606E-04
    6   -0.19519078E+03   -0.51318239E-08    0.12225631E-04
    7   -0.19519078E+03   -0.11510792E-09    0.17059040E-05
    8   -0.19519078E+03   -0.58264504E-11    0.26491300E-06
    9   -0.19519078E+03   -0.39790393E-12    0.63615414E-07
   10   -0.19519078E+03   -0.28421709E-13    0.97030917E-08

Total Energy:                     -193.2607258422 H        -5258.8919 eV
Extrapolated to 0K:               -193.2607258422 H        -5258.8919 eV
Total Mermin free energy:         -193.2607258422 H        -5258.8919 eV
Force related energy:             -193.2607258422 H        -5258.8919 eV

Volume:                              0.113706E+05 au^3   0.168495E+04 A^3
Pressure:                            0.604646E-05 au     0.177893E+09 Pa
>> Charges saved for restart in charges.bin

total energy  -1.9326073E+02 H       energy change -5.7758017E-04 H
gradient norm  1.8164185E-02 H/a0    max. gradient  4.5396308E-03 H/a0
step length    1.6827681E-01 a0      max. step      3.2617618E-02 a0

--------------------------------------------------------------------------------

***  Geometry step: 39

 iSCC Total electronic   Diff electronic      SCC error    
    1   -0.19519078E+03    0.00000000E+00    0.51730107E-02
    2   -0.19519502E+03   -0.42410883E-02    0.29794730E-02
    3   -0.19519504E+03   -0.17591830E-04    0.78910136E-03
    4   -0.19519504E+03   -0.27087777E-05    0.14760209E-03
    5   -0.19519504E+03   -0.11612528E-06    0.46742052E-04
    6   -0.19519504E+03   -0.63070615E-08    0.14514549E-04
    7   -0.19519504E+03   -0.12218493E-09    0.18296097E-05
    8   -0.19519504E+03   -0.89812602E-11    0.19513657E-06
    9   -0.19519504E+03   -0.68212103E-12    0.58987869E-07
   10   -0.19519504E+03   -0.56843419E-13    0.81909719E-08

Total Energy:                     -193.2614124673 H        -5258.9106 eV
Extrapolated to 0K:               -193.2614124673 H        -5258.9106 eV
Total Mermin free energy:         -193.2614124673 H        -5258.9106 eV
Force related energy:             -193.2614124673 H        -5258.9106 eV

Volume:                              0.113827E+05 au^3   0.168674E+04 A^3
Pressure:                            0.703039E-05 au     0.206841E+09 Pa
>> Charges saved for restart in charges.bin

total energy  -1.9326141E+02 H       energy change -6.8662511E-04 H
gradient norm  2.0036861E-02 H/a0    max. gradient  5.2933319E-03 H/a0
step length    1.9958057E-01 a0      max. step      4.0962665E-02 a0

--------------------------------------------------------------------------------

***  Geometry step: 40

 iSCC Total electronic   Diff electronic      SCC error    
    1   -0.19519504E+03    0.00000000E+00    0.58034349E-02
    2   -0.19519367E+03    0.13733558E-02    0.33510169E-02
    3   -0.19519369E+03   -0.18368718E-04    0.93389912E-03
    4   -0.19519369E+03   -0.24478979E-05    0.10301601E-03
    5   -0.19519369E+03   -0.13760339E-06    0.35439753E-04
    6   -0.19519369E+03   -0.44738329E-08    0.10125795E-04
    7   -0.19519369E+03   -0.66563643E-10    0.18051527E-05
    8   -0.19519369E+03   -0.48032689E-11    0.22577065E-06
    9   -0.19519369E+03   -0.62527761E-12    0.53589648E-07
   10   -0.19519369E+03   -0.28421709E-13    0.93035171E-08

Total Energy:                     -193.2621144178 H        -5258.9297 eV
Extrapolated to 0K:               -193.2621144178 H        -5258.9297 eV
Total Mermin free energy:         -193.2621144178 H        -5258.9297 eV
Force related energy:             -193.2621144178 H        -5258.9297 eV

Volume:                              0.113941E+05 au^3   0.168843E+04 A^3
Pressure:                            0.550342E-05 au     0.161916E+09 Pa
>> Charges saved for restart in charges.bin

total energy  -1.9326211E+02 H       energy change -7.0195054E-04 H
gradient norm  1.9586315E-02 H/a0    max. gradient  5.7660234E-03 H/a0
step length    2.0461346E-01 a0      max. step      4.3417118E-02 a0

--------------------------------------------------------------------------------

***  Geometry step: 41

 iSCC Total electronic   Diff electronic      SCC error    
    1   -0.19519369E+03    0.00000000E+00    0.41343019E-02
    2   -0.19518995E+03    0.37377823E-02    0.24012591E-02
    3   -0.19518997E+03   -0.16818608E-04    0.71192598E-03
    4   -0.19518997E+03   -0.21393886E-05    0.59747510E-04
    5   -0.19518997E+03   -0.11603461E-06    0.14432205E-04
    6   -0.19518997E+03   -0.40884061E-08    0.52668616E-05
    7   -0.19518997E+03   -0.53262283E-10    0.15699775E-05
    8   -0.19518997E+03   -0.19895197E-11    0.30701203E-06
    9   -0.19518997E+03   -0.39790393E-12    0.82713938E-07
   10   -0.19518997E+03    0.00000000E+00    0.11623963E-07
   11   -0.19518997E+03   -0.56843419E-13    0.10431256E-08

Total Energy:                     -193.2627348192 H        -5258.9466 eV
Extrapolated to 0K:               -193.2627348192 H        -5258.9466 eV
Total Mermin free energy:         -193.2627348192 H        -5258.9466 eV
Force related energy:             -193.2627348192 H        -5258.9466 eV

Volume:                              0.114006E+05 au^3   0.168939E+04 A^3
Pressure:                            0.364686E-05 au     0.107294E+09 Pa
>> Charges saved for restart in charges.bin

total energy  -1.9326273E+02 H       energy change -6.2040134E-04 H
gradient norm  1.7119265E-02 H/a0    max. gradient  3.6449174E-03 H/a0
step length    1.8345527E-01 a0      max. step      3.9131586E-02 a0

--------------------------------------------------------------------------------

***  Geometry step: 42

 iSCC Total electronic   Diff electronic      SCC error    
    1   -0.19518997E+03    0.00000000E+00    0.41684586E-02
    2   -0.19518564E+03    0.43290694E-02    0.23960348E-02
    3   -0.19518566E+03   -0.16836404E-04    0.76443808E-03
    4   -0.19518566E+03   -0.21408196E-05    0.73418456E-04
    5   -0.19518566E+03   -0.93098265E-07    0.20396554E-04
    6   -0.19518566E+03   -0.50183928E-08    0.77641603E-05
    7   -0.19518566E+03   -0.98992814E-10    0.18438214E-05
    8   -0.19518566E+03   -0.36664005E-11    0.39664555E-06
    9   -0.19518566E+03   -0.28421709E-12    0.91019948E-07
   10   -0.19518566E+03   -0.14210855E-12    0.10863171E-07
   11   -0.19518566E+03    0.56843419E-13    0.12679839E-08

Total Energy:                     -193.2632366616 H        -5258.9602 eV
Extrapolated to 0K:               -193.2632366616 H        -5258.9602 eV
Total Mermin free energy:         -193.2632366616 H        -5258.9602 eV
Force related energy:             -193.2632366616 H        -5258.9602 eV

Volume:                              0.114062E+05 au^3   0.169023E+04 A^3
Pressure:                            0.149811E-05 au     0.440759E+08 Pa
>> Charges saved for restart in charges.bin

total energy  -1.9326324E+02 H       energy change -5.0184244E-04 H
gradient norm  1.5368570E-02 H/a0    max. gradient  3.4039694E-03 H/a0
step length    1.6065736E-01 a0      max. step      3.5686342E-02 a0

--------------------------------------------------------------------------------

***  Geometry step: 43

 iSCC Total electronic   Diff electronic      SCC error    
    1   -0.19518566E+03    0.00000000E+00    0.36031859E-02
    2   -0.19518455E+03    0.11154271E-02    0.21303387E-02
    3   -0.19518456E+03   -0.91852449E-05    0.58723809E-03
    4   -0.19518456E+03   -0.14818829E-05    0.99585954E-04
    5   -0.19518456E+03   -0.62069120E-07    0.33905897E-04
    6   -0.19518456E+03   -0.40498378E-08    0.11016465E-04
    7   -0.19518456E+03   -0.73725914E-10    0.12371997E-05
    8   -0.19518456E+03   -0.49737992E-11    0.20694625E-06
    9   -0.19518456E+03   -0.31263880E-12    0.73325955E-07
   10   -0.19518456E+03    0.00000000E+00    0.96495878E-08

Total Energy:                     -193.2636296809 H        -5258.9709 eV
Extrapolated to 0K:               -193.2636296809 H        -5258.9709 eV
Total Mermin free energy:         -193.2636296809 H        -5258.9709 eV
Force related energy:             -193.2636296809 H        -5258.9709 eV

Volume:                              0.114102E+05 au^3   0.169081E+04 A^3
Pressure:                            0.837464E-06 au     0.246390E+08 Pa
>> Charges saved for restart in charges.bin

total energy  -1.9326363E+02 H       energy change -3.9301934E-04 H
gradient norm  1.5055436E-02 H/a0    max. gradient  3.6256872E-03 H/a0
step length    1.2117233E-01 a0      max. step      2.6707706E-02 a0

--------------------------------------------------------------------------------

***  Geometry step: 44

 iSCC Total electronic   Diff electronic      SCC error    
    1   -0.19518456E+03    0.00000000E+00    0.48959058E-02
    2   -0.19518604E+03   -0.14816599E-02    0.29093594E-02
    3   -0.19518605E+03   -0.89027138E-05    0.65630934E-03
    4   -0.19518605E+03   -0.16467201E-05    0.12539401E-03
    5   -0.19518605E+03   -0.79626574E-07    0.43705750E-04
    6   -0.19518605E+03   -0.43956163E-08    0.10453293E-04
    7   -0.19518605E+03   -0.80945028E-10    0.10892238E-05
    8   -0.19518605E+03   -0.73328010E-11    0.18527026E-06
    9   -0.19518605E+03   -0.31263880E-12    0.50881913E-07
   10   -0.19518605E+03   -0.56843419E-13    0.54953633E-08

Total Energy:                     -193.2640448541 H        -5258.9822 eV
Extrapolated to 0K:               -193.2640448541 H        -5258.9822 eV
Total Mermin free energy:         -193.2640448541 H        -5258.9822 eV
Force related energy:             -193.2640448541 H        -5258.9822 eV

Volume:                              0.114153E+05 au^3   0.169157E+04 A^3
Pressure:                            0.109280E-05 au     0.321513E+08 Pa
>> Charges saved for restart in charges.bin

total energy  -1.9326404E+02 H       energy change -4.1517311E-04 H
gradient norm  1.4592808E-02 H/a0    max. gradient  3.6955291E-03 H/a0
step length    1.3218028E-01 a0      max. step      2.8761816E-02 a0

--------------------------------------------------------------------------------

***  Geometry step: 45

 iSCC Total electronic   Diff electronic      SCC error    
    1   -0.19518605E+03    0.00000000E+00    0.40459936E-02
    2   -0.19518972E+03   -0.36710611E-02    0.24072039E-02
    3   -0.19518973E+03   -0.97655594E-05    0.64568383E-03
    4   -0.19518973E+03   -0.15952915E-05    0.13398990E-03
    5   -0.19518973E+03   -0.79808046E-07    0.42937641E-04
    6   -0.19518973E+03   -0.45828870E-08    0.11602991E-04
    7   -0.19518973E+03   -0.90096819E-10    0.98829511E-06
    8   -0.19518973E+03   -0.77591267E-11    0.19961472E-06
    9   -0.19518973E+03   -0.36948222E-12    0.54576605E-07
   10   -0.19518973E+03   -0.28421709E-13    0.59333733E-08

Total Energy:                     -193.2644051091 H        -5258.9920 eV
Extrapolated to 0K:               -193.2644051091 H        -5258.9920 eV
Total Mermin free energy:         -193.2644051091 H        -5258.9920 eV
Force related energy:             -193.2644051091 H        -5258.9920 eV

Volume:                              0.114215E+05 au^3   0.169249E+04 A^3
Pressure:                            0.224207E-05 au     0.659641E+08 Pa
>> Charges saved for restart in charges.bin

total energy  -1.9326441E+02 H       energy change -3.6025504E-04 H
gradient norm  1.3504142E-02 H/a0    max. gradient  2.6836841E-03 H/a0
step length    1.4579606E-01 a0      max. step      3.1477018E-02 a0

--------------------------------------------------------------------------------

***  Geometry step: 46

 iSCC Total electronic   Diff electronic      SCC error    
    1   -0.19518973E+03    0.00000000E+00    0.29405394E-02
    2   -0.19519317E+03   -0.34409797E-02    0.17671144E-02
    3   -0.19519318E+03   -0.84966472E-05    0.59036545E-03
    4   -0.19519318E+03   -0.12179356E-05    0.12285755E-03
    5   -0.19519318E+03   -0.47059387E-07    0.31059373E-04
    6   -0.19519318E+03   -0.33529659E-08    0.99194248E-05
    7   -0.19519318E+03   -0.83275609E-10    0.87630237E-06
    8   -0.19519318E+03   -0.48601123E-11    0.14640281E-06
    9   -0.19519318E+03   -0.34106051E-12    0.45947260E-07
   10   -0.19519318E+03    0.00000000E+00    0.62301329E-08

Total Energy:                     -193.2646900546 H        -5258.9998 eV
Extrapolated to 0K:               -193.2646900546 H        -5258.9998 eV
Total Mermin free energy:         -193.2646900546 H        -5258.9998 eV
Force related energy:             -193.2646900546 H        -5258.9998 eV

Volume:                              0.114269E+05 au^3   0.169329E+04 A^3
Pressure:                            0.324626E-05 au     0.955081E+08 Pa
>> Charges saved for restart in charges.bin

total energy  -1.9326469E+02 H       energy change -2.8494552E-04 H
gradient norm  1.2246757E-02 H/a0    max. gradient  2.3176777E-03 H/a0
step length    1.3243836E-01 a0      max. step      2.8702586E-02 a0

--------------------------------------------------------------------------------

***  Geometry step: 47

 iSCC Total electronic   Diff electronic      SCC error    
    1   -0.19519318E+03    0.00000000E+00    0.30593732E-02
    2   -0.19519584E+03   -0.26534729E-02    0.15013372E-02
    3   -0.19519585E+03   -0.75420481E-05    0.59692479E-03
    4   -0.19519585E+03   -0.99383877E-06    0.12470462E-03
    5   -0.19519585E+03   -0.45279222E-07    0.30940508E-04
    6   -0.19519585E+03   -0.31298839E-08    0.93160789E-05
    7   -0.19519585E+03   -0.82650331E-10    0.67626657E-06
    8   -0.19519585E+03   -0.51727511E-11    0.12823573E-06
    9   -0.19519585E+03   -0.28421709E-12    0.37320456E-07
   10   -0.19519585E+03    0.11368684E-12    0.54769647E-08

Total Energy:                     -193.2649616811 H        -5259.0072 eV
Extrapolated to 0K:               -193.2649616811 H        -5259.0072 eV
Total Mermin free energy:         -193.2649616811 H        -5259.0072 eV
Force related energy:             -193.2649616811 H        -5259.0072 eV

Volume:                              0.114305E+05 au^3   0.169383E+04 A^3
Pressure:                            0.387410E-05 au     0.113980E+09 Pa
>> Charges saved for restart in charges.bin

total energy  -1.9326496E+02 H       energy change -2.7162644E-04 H
gradient norm  1.1950713E-02 H/a0    max. gradient  2.5260880E-03 H/a0
step length    1.2452374E-01 a0      max. step      2.7583492E-02 a0

--------------------------------------------------------------------------------

***  Geometry step: 48

 iSCC Total electronic   Diff electronic      SCC error    
    1   -0.19519585E+03    0.00000000E+00    0.39679044E-02
    2   -0.19519737E+03   -0.15261375E-02    0.22376633E-02
    3   -0.19519738E+03   -0.80074113E-05    0.58489333E-03
    4   -0.19519738E+03   -0.10646015E-05    0.12116425E-03
    5   -0.19519738E+03   -0.63223553E-07    0.37196296E-04
    6   -0.19519738E+03   -0.35263952E-08    0.93976355E-05
    7   -0.19519738E+03   -0.84298790E-10    0.65471319E-06
    8   -0.19519738E+03   -0.65938366E-11    0.15969102E-06
    9   -0.19519738E+03   -0.39790393E-12    0.43357613E-07
   10   -0.19519738E+03    0.56843419E-13    0.58040124E-08

Total Energy:                     -193.2652301008 H        -5259.0145 eV
Extrapolated to 0K:               -193.2652301008 H        -5259.0145 eV
Total Mermin free energy:         -193.2652301008 H        -5259.0145 eV
Force related energy:             -193.2652301008 H        -5259.0145 eV

Volume:                              0.114316E+05 au^3   0.169399E+04 A^3
Pressure:                            0.437973E-05 au     0.128856E+09 Pa
>> Charges saved for restart in charges.bin

total energy  -1.9326523E+02 H       energy change -2.6841976E-04 H
gradient norm  1.1974573E-02 H/a0    max. gradient  2.6917611E-03 H/a0
step length    1.1219110E-01 a0      max. step      2.4724931E-02 a0

--------------------------------------------------------------------------------

***  Geometry step: 49

 iSCC Total electronic   Diff electronic      SCC error    
    1   -0.19519738E+03    0.00000000E+00    0.43247680E-02
    2   -0.19519576E+03    0.16220236E-02    0.25064112E-02
    3   -0.19519577E+03   -0.54346057E-05    0.59339545E-03
    4   -0.19519577E+03   -0.87289152E-06    0.87011142E-04
    5   -0.19519577E+03   -0.48561446E-07    0.30489215E-04
    6   -0.19519577E+03   -0.26639100E-08    0.68719238E-05
    7   -0.19519577E+03   -0.52182259E-10    0.62629819E-06
    8   -0.19519577E+03   -0.38085091E-11    0.19030033E-06
    9   -0.19519577E+03   -0.19895197E-12    0.35461872E-07
   10   -0.19519577E+03    0.56843419E-13    0.53245062E-08

Total Energy:                     -193.2654451788 H        -5259.0203 eV
Extrapolated to 0K:               -193.2654451788 H        -5259.0203 eV
Total Mermin free energy:         -193.2654451788 H        -5259.0203 eV
Force related energy:             -193.2654451788 H        -5259.0203 eV

Volume:                              0.114318E+05 au^3   0.169402E+04 A^3
Pressure:                            0.388498E-05 au     0.114300E+09 Pa
>> Charges saved for restart in charges.bin

total energy  -1.9326545E+02 H       energy change -2.1507796E-04 H
gradient norm  1.0874967E-02 H/a0    max. gradient  2.6937679E-03 H/a0
step length    8.3123797E-02 a0      max. step      2.0821148E-02 a0

--------------------------------------------------------------------------------

***  Geometry step: 50

 iSCC Total electronic   Diff electronic      SCC error    
    1   -0.19519577E+03    0.00000000E+00    0.29549890E-02
    2   -0.19519316E+03    0.26083655E-02    0.17447730E-02
    3   -0.19519316E+03   -0.59203626E-05    0.50195415E-03
    4   -0.19519316E+03   -0.94892607E-06    0.50741410E-04
    5   -0.19519316E+03   -0.30604355E-07    0.17114251E-04
    6   -0.19519316E+03   -0.20300490E-08    0.52499389E-05
    7   -0.19519316E+03   -0.34248160E-10    0.65699555E-06
    8   -0.19519316E+03   -0.18189894E-11    0.13623816E-06
    9   -0.19519316E+03   -0.85265128E-13    0.38275814E-07
   10   -0.19519316E+03    0.56843419E-13    0.43421151E-08

Total Energy:                     -193.2656251882 H        -5259.0252 eV
Extrapolated to 0K:               -193.2656251882 H        -5259.0252 eV
Total Mermin free energy:         -193.2656251882 H        -5259.0252 eV
Force related energy:             -193.2656251882 H        -5259.0252 eV

Volume:                              0.114304E+05 au^3   0.169381E+04 A^3
Pressure:                            0.311349E-05 au     0.916020E+08 Pa
>> Charges saved for restart in charges.bin

total energy  -1.9326563E+02 H       energy change -1.8000946E-04 H
[...]

Volume:                              0.112144E+05 au^3   0.166180E+04 A^3
Pressure:                            0.131865E-06 au     0.387961E+07 Pa
>> Charges saved for restart in charges.bin

total energy  -1.9327525E+02 H       energy change -6.3754453E-07 H
gradient norm  6.5663058E-04 H/a0    max. gradient  1.2532865E-04 H/a0
step length    3.3169993E-03 a0      max. step      6.5994635E-04 a0

--------------------------------------------------------------------------------

***  Geometry step: 162

 iSCC Total electronic   Diff electronic      SCC error    
    1   -0.19518240E+03    0.00000000E+00    0.16990478E-03
    2   -0.19518209E+03    0.30552686E-03    0.89714287E-04
    3   -0.19518209E+03   -0.24907223E-07    0.30066146E-04
    4   -0.19518209E+03   -0.34606273E-08    0.21556123E-05
    5   -0.19518209E+03   -0.14242119E-09    0.49788325E-06
    6   -0.19518209E+03   -0.39221959E-11    0.16912735E-06
    7   -0.19518209E+03   -0.85265128E-13    0.26466858E-07
    8   -0.19518209E+03    0.00000000E+00    0.50020450E-08

Total Energy:                     -193.2752501315 H        -5259.2871 eV
Extrapolated to 0K:               -193.2752501315 H        -5259.2871 eV
Total Mermin free energy:         -193.2752501315 H        -5259.2871 eV
Force related energy:             -193.2752501315 H        -5259.2871 eV

Volume:                              0.112146E+05 au^3   0.166184E+04 A^3
Pressure:                           -0.668088E-08 au    -0.196558E+06 Pa
>> Charges saved for restart in charges.bin

total energy  -1.9327525E+02 H       energy change -9.3636820E-07 H
gradient norm  7.2407936E-04 H/a0    max. gradient  1.4709546E-04 H/a0
step length    5.3998715E-03 a0      max. step      1.0464876E-03 a0

--------------------------------------------------------------------------------

***  Geometry step: 163

 iSCC Total electronic   Diff electronic      SCC error    
    1   -0.19518209E+03    0.00000000E+00    0.18646326E-03
    2   -0.19518180E+03    0.29022367E-03    0.91211805E-04
    3   -0.19518180E+03   -0.28463575E-07    0.26102410E-04
    4   -0.19518180E+03   -0.40321879E-08    0.29571663E-05
    5   -0.19518180E+03   -0.15532464E-09    0.99228373E-06
    6   -0.19518180E+03   -0.38085091E-11    0.24743421E-06
    7   -0.19518180E+03   -0.28421709E-13    0.24273469E-07
    8   -0.19518180E+03   -0.28421709E-13    0.51678759E-08

Total Energy:                     -193.2752512956 H        -5259.2872 eV
Extrapolated to 0K:               -193.2752512956 H        -5259.2872 eV
Total Mermin free energy:         -193.2752512956 H        -5259.2872 eV
Force related energy:             -193.2752512956 H        -5259.2872 eV

Volume:                              0.112150E+05 au^3   0.166189E+04 A^3
Pressure:                           -0.133628E-06 au    -0.393147E+07 Pa
>> Charges saved for restart in charges.bin

total energy  -1.9327525E+02 H       energy change -1.1641438E-06 H
gradient norm  8.9451940E-04 H/a0    max. gradient  2.9518233E-04 H/a0
step length    8.3668686E-03 a0      max. step      1.7448433E-03 a0

--------------------------------------------------------------------------------

***  Geometry step: 164

 iSCC Total electronic   Diff electronic      SCC error    
    1   -0.19518180E+03    0.00000000E+00    0.20654879E-03
    2   -0.19518157E+03    0.23313436E-03    0.11110929E-03
    3   -0.19518157E+03   -0.47978347E-07    0.32059056E-04
    4   -0.19518157E+03   -0.70762951E-08    0.31612250E-05
    5   -0.19518157E+03   -0.21296387E-09    0.10256989E-05
    6   -0.19518157E+03   -0.71338491E-11    0.25563687E-06
    7   -0.19518157E+03   -0.14210855E-12    0.28957792E-07
    8   -0.19518157E+03   -0.56843419E-13    0.51894746E-08

Total Energy:                     -193.2752529828 H        -5259.2872 eV
Extrapolated to 0K:               -193.2752529828 H        -5259.2872 eV
Total Mermin free energy:         -193.2752529828 H        -5259.2872 eV
Force related energy:             -193.2752529828 H        -5259.2872 eV

Volume:                              0.112156E+05 au^3   0.166198E+04 A^3
Pressure:                           -0.255373E-06 au    -0.751334E+07 Pa
>> Charges saved for restart in charges.bin

total energy  -1.9327525E+02 H       energy change -1.6872255E-06 H
gradient norm  1.0042151E-03 H/a0    max. gradient  3.1628554E-04 H/a0
step length    1.5701724E-02 a0      max. step      3.6689232E-03 a0

--------------------------------------------------------------------------------

***  Geometry step: 165

 iSCC Total electronic   Diff electronic      SCC error    
    1   -0.19518157E+03    0.00000000E+00    0.24894292E-03
    2   -0.19518165E+03   -0.76547913E-04    0.11282335E-03
    3   -0.19518165E+03   -0.47539146E-07    0.32796008E-04
    4   -0.19518165E+03   -0.77561140E-08    0.34920113E-05
    5   -0.19518165E+03   -0.19244339E-09    0.10680471E-05
    6   -0.19518165E+03   -0.10061285E-10    0.33103151E-06
    7   -0.19518165E+03   -0.19895197E-12    0.46530924E-07
    8   -0.19518165E+03    0.85265128E-13    0.42083830E-08

Total Energy:                     -193.2752545992 H        -5259.2873 eV
Extrapolated to 0K:               -193.2752545992 H        -5259.2873 eV
Total Mermin free energy:         -193.2752545992 H        -5259.2873 eV
Force related energy:             -193.2752545992 H        -5259.2873 eV

Volume:                              0.112162E+05 au^3   0.166206E+04 A^3
Pressure:                           -0.254076E-06 au    -0.747516E+07 Pa
>> Charges saved for restart in charges.bin

total energy  -1.9327525E+02 H       energy change -1.6163657E-06 H
gradient norm  9.6152106E-04 H/a0    max. gradient  2.9620893E-04 H/a0
step length    1.5946764E-02 a0      max. step      3.7735275E-03 a0

--------------------------------------------------------------------------------

***  Geometry step: 166

 iSCC Total electronic   Diff electronic      SCC error    
    1   -0.19518165E+03    0.00000000E+00    0.22813742E-03
    2   -0.19518193E+03   -0.28664266E-03    0.97586198E-04
    3   -0.19518193E+03   -0.33559701E-07    0.25806624E-04
    4   -0.19518193E+03   -0.61862693E-08    0.51006077E-05
    5   -0.19518193E+03   -0.16515855E-09    0.15229678E-05
    6   -0.19518193E+03   -0.94644292E-11    0.40077216E-06
    7   -0.19518193E+03   -0.25579538E-12    0.36968000E-07
    8   -0.19518193E+03    0.00000000E+00    0.50203237E-08

Total Energy:                     -193.2752560510 H        -5259.2873 eV
Extrapolated to 0K:               -193.2752560510 H        -5259.2873 eV
Total Mermin free energy:         -193.2752560510 H        -5259.2873 eV
Force related energy:             -193.2752560510 H        -5259.2873 eV

Volume:                              0.112165E+05 au^3   0.166211E+04 A^3
Pressure:                           -0.166719E-06 au    -0.490504E+07 Pa
>> Charges saved for restart in charges.bin

total energy  -1.9327526E+02 H       energy change -1.4517659E-06 H
gradient norm  7.4738859E-04 H/a0    max. gradient  2.3903885E-04 H/a0
step length    1.6154852E-02 a0      max. step      4.2482773E-03 a0

--------------------------------------------------------------------------------

***  Geometry step: 167

 iSCC Total electronic   Diff electronic      SCC error    
    1   -0.19518193E+03    0.00000000E+00    0.14204594E-03
    2   -0.19518233E+03   -0.39541368E-03    0.82894369E-04
    3   -0.19518233E+03   -0.15986899E-07    0.20132632E-04
    4   -0.19518233E+03   -0.26974192E-08    0.30254100E-05
    5   -0.19518233E+03   -0.12514079E-09    0.11330749E-05
    6   -0.19518233E+03   -0.39221959E-11    0.32663994E-06
    7   -0.19518233E+03   -0.17053026E-12    0.33089469E-07
    8   -0.19518233E+03    0.28421709E-13    0.36570560E-08

Total Energy:                     -193.2752568495 H        -5259.2873 eV
Extrapolated to 0K:               -193.2752568495 H        -5259.2873 eV
Total Mermin free energy:         -193.2752568495 H        -5259.2873 eV
Force related energy:             -193.2752568495 H        -5259.2873 eV

Volume:                              0.112163E+05 au^3   0.166208E+04 A^3
Pressure:                           -0.217450E-07 au    -0.639761E+06 Pa
>> Charges saved for restart in charges.bin

total energy  -1.9327526E+02 H       energy change -7.9848698E-07 H
gradient norm  5.6009200E-04 H/a0    max. gradient  1.2412532E-04 H/a0
step length    3.4912198E-03 a0      max. step      6.4937813E-04 a0

--------------------------------------------------------------------------------

***  Geometry step: 168

 iSCC Total electronic   Diff electronic      SCC error    
    1   -0.19518233E+03    0.00000000E+00    0.15844487E-03
    2   -0.19518266E+03   -0.32847396E-03    0.91858403E-04
    3   -0.19518266E+03   -0.16876385E-07    0.22063960E-04
    4   -0.19518266E+03   -0.27557974E-08    0.29258607E-05
    5   -0.19518266E+03   -0.12931878E-09    0.10585103E-05
    6   -0.19518266E+03   -0.35527137E-11    0.29276873E-06
    7   -0.19518266E+03   -0.85265128E-13    0.27375534E-07
    8   -0.19518266E+03    0.56843419E-13    0.41411825E-08

Total Energy:                     -193.2752574920 H        -5259.2873 eV
Extrapolated to 0K:               -193.2752574920 H        -5259.2873 eV
Total Mermin free energy:         -193.2752574920 H        -5259.2873 eV
Force related energy:             -193.2752574920 H        -5259.2873 eV

Volume:                              0.112160E+05 au^3   0.166204E+04 A^3
Pressure:                            0.928754E-07 au     0.273249E+07 Pa
>> Charges saved for restart in charges.bin

total energy  -1.9327526E+02 H       energy change -6.4250816E-07 H
gradient norm  6.2133781E-04 H/a0    max. gradient  1.7084886E-04 H/a0
step length    3.7656072E-03 a0      max. step      8.2938675E-04 a0

--------------------------------------------------------------------------------

***  Geometry step: 169

 iSCC Total electronic   Diff electronic      SCC error    
    1   -0.19518266E+03    0.00000000E+00    0.91342762E-04
    2   -0.19518279E+03   -0.13386178E-03    0.49899206E-04
    3   -0.19518279E+03   -0.99274473E-08    0.18993113E-04
    4   -0.19518279E+03   -0.14582326E-08    0.44862043E-05
    5   -0.19518279E+03   -0.47663207E-10    0.11436093E-05
    6   -0.19518279E+03   -0.38369308E-11    0.28535355E-06
    7   -0.19518279E+03   -0.56843419E-13    0.19692813E-07
    8   -0.19518279E+03   -0.28421709E-13    0.34886276E-08

Total Energy:                     -193.2752580058 H        -5259.2874 eV
Extrapolated to 0K:               -193.2752580058 H        -5259.2874 eV
Total Mermin free energy:         -193.2752580058 H        -5259.2874 eV
Force related energy:             -193.2752580058 H        -5259.2874 eV

Volume:                              0.112159E+05 au^3   0.166202E+04 A^3
Pressure:                            0.150654E-06 au     0.443239E+07 Pa
>> Charges saved for restart in charges.bin

total energy  -1.9327526E+02 H       energy change -5.1384973E-07 H
gradient norm  6.4975918E-04 H/a0    max. gradient  1.6489641E-04 H/a0
step length    1.7174233E-03 a0      max. step      4.0086229E-04 a0

--------------------------------------------------------------------------------

***  Geometry step: 170

 iSCC Total electronic   Diff electronic      SCC error    
    1   -0.19518279E+03    0.00000000E+00    0.16843817E-03
    2   -0.19518270E+03    0.94776627E-04    0.10454483E-03
    3   -0.19518270E+03   -0.20600169E-07    0.40452091E-04
    4   -0.19518270E+03   -0.27475267E-08    0.87982060E-05
    5   -0.19518270E+03   -0.98026476E-10    0.17107172E-05
    6   -0.19518270E+03   -0.10089707E-10    0.27259696E-06
    7   -0.19518270E+03   -0.22737368E-12    0.17377147E-07
    8   -0.19518270E+03   -0.11368684E-12    0.46520201E-08

Total Energy:                     -193.2752588247 H        -5259.2874 eV
Extrapolated to 0K:               -193.2752588247 H        -5259.2874 eV
Total Mermin free energy:         -193.2752588247 H        -5259.2874 eV
Force related energy:             -193.2752588247 H        -5259.2874 eV

Volume:                              0.112158E+05 au^3   0.166201E+04 A^3
Pressure:                            0.122124E-06 au     0.359300E+07 Pa
>> Charges saved for restart in charges.bin

total energy  -1.9327526E+02 H       energy change -8.1886034E-07 H
gradient norm  6.6703590E-04 H/a0    max. gradient  1.9694711E-04 H/a0
step length    3.1085509E-03 a0      max. step      8.0707829E-04 a0

--------------------------------------------------------------------------------

***  Geometry step: 171

 iSCC Total electronic   Diff electronic      SCC error    
    1   -0.19518270E+03    0.00000000E+00    0.18778187E-03
    2   -0.19518259E+03    0.10303247E-03    0.11525168E-03
    3   -0.19518259E+03   -0.24351579E-07    0.44732493E-04
    4   -0.19518259E+03   -0.28262832E-08    0.90696414E-05
    5   -0.19518259E+03   -0.13233148E-09    0.19053843E-05
    6   -0.19518259E+03   -0.12192913E-10    0.34713913E-06
    7   -0.19518259E+03   -0.28421709E-12    0.25117584E-07
    8   -0.19518259E+03    0.28421709E-13    0.51065236E-08

Total Energy:                     -193.2752599167 H        -5259.2874 eV
Extrapolated to 0K:               -193.2752599167 H        -5259.2874 eV
Total Mermin free energy:         -193.2752599167 H        -5259.2874 eV
Force related energy:             -193.2752599167 H        -5259.2874 eV

Volume:                              0.112156E+05 au^3   0.166199E+04 A^3
Pressure:                            0.886319E-07 au     0.260764E+07 Pa
>> Charges saved for restart in charges.bin

total energy  -1.9327526E+02 H       energy change -1.0920369E-06 H
gradient norm  7.2451815E-04 H/a0    max. gradient  1.7720514E-04 H/a0
step length    7.9756131E-03 a0      max. step      1.9082436E-03 a0

--------------------------------------------------------------------------------

***  Geometry step: 172

 iSCC Total electronic   Diff electronic      SCC error    
    1   -0.19518259E+03    0.00000000E+00    0.22833468E-03
    2   -0.19518236E+03    0.23766710E-03    0.91139186E-04
    3   -0.19518236E+03   -0.44308734E-07    0.39964240E-04
    4   -0.19518236E+03   -0.45786237E-08    0.92456060E-05
    5   -0.19518236E+03   -0.18459900E-09    0.20223294E-05
    6   -0.19518236E+03   -0.17422508E-10    0.48402638E-06
    7   -0.19518236E+03   -0.17053026E-12    0.34738008E-07
    8   -0.19518236E+03   -0.11368684E-12    0.50973732E-08

Total Energy:                     -193.2752612805 H        -5259.2874 eV
Extrapolated to 0K:               -193.2752612805 H        -5259.2874 eV
Total Mermin free energy:         -193.2752612805 H        -5259.2874 eV
Force related energy:             -193.2752612805 H        -5259.2874 eV

Volume:                              0.112159E+05 au^3   0.166202E+04 A^3
Pressure:                           -0.139498E-07 au    -0.410418E+06 Pa
>> Charges saved for restart in charges.bin

total energy  -1.9327526E+02 H       energy change -1.3637736E-06 H
gradient norm  7.2136403E-04 H/a0    max. gradient  1.9077280E-04 H/a0
step length    1.9654657E-02 a0      max. step      4.4101086E-03 a0

--------------------------------------------------------------------------------

***  Geometry step: 173

 iSCC Total electronic   Diff electronic      SCC error    
    1   -0.19518236E+03    0.00000000E+00    0.24584873E-03
    2   -0.19518227E+03    0.85988186E-04    0.13795990E-03
    3   -0.19518227E+03   -0.33915711E-07    0.41885303E-04
    4   -0.19518227E+03   -0.40400039E-08    0.52987085E-05
    5   -0.19518227E+03   -0.17945467E-09    0.17339130E-05
    6   -0.19518227E+03   -0.11937118E-10    0.47810515E-06
    7   -0.19518227E+03   -0.22737368E-12    0.33568139E-07
    8   -0.19518227E+03    0.56843419E-13    0.50093814E-08

Total Energy:                     -193.2752621416 H        -5259.2875 eV
Extrapolated to 0K:               -193.2752621416 H        -5259.2875 eV
Total Mermin free energy:         -193.2752621416 H        -5259.2875 eV
Force related energy:             -193.2752621416 H        -5259.2875 eV

Volume:                              0.112163E+05 au^3   0.166208E+04 A^3
Pressure:                           -0.730219E-07 au    -0.214838E+07 Pa
>> Charges saved for restart in charges.bin

total energy  -1.9327526E+02 H       energy change -8.6109867E-07 H
gradient norm  6.0342504E-04 H/a0    max. gradient  1.7624351E-04 H/a0
step length    1.7822560E-02 a0      max. step      3.7814871E-03 a0

--------------------------------------------------------------------------------

***  Geometry step: 174

 iSCC Total electronic   Diff electronic      SCC error    
    1   -0.19518227E+03    0.00000000E+00    0.97254022E-04
    2   -0.19518232E+03   -0.47259718E-04    0.55011906E-04
    3   -0.19518232E+03   -0.47228639E-08    0.16053111E-04
    4   -0.19518232E+03   -0.86237151E-09    0.31631559E-05
    5   -0.19518232E+03   -0.43968384E-10    0.95007820E-06
    6   -0.19518232E+03   -0.15916157E-11    0.19430543E-06
    7   -0.19518232E+03   -0.56843419E-13    0.86949155E-08

Total Energy:                     -193.2752625565 H        -5259.2875 eV
Extrapolated to 0K:               -193.2752625565 H        -5259.2875 eV
Total Mermin free energy:         -193.2752625565 H        -5259.2875 eV
Force related energy:             -193.2752625565 H        -5259.2875 eV

Volume:                              0.112162E+05 au^3   0.166208E+04 A^3
Pressure:                           -0.570560E-07 au    -0.167864E+07 Pa
>> Charges saved for restart in charges.bin

total energy  -1.9327526E+02 H       energy change -4.1491299E-07 H
gradient norm  4.7039521E-04 H/a0    max. gradient  1.0918389E-04 H/a0
step length    1.0279354E-03 a0      max. step      2.6256588E-04 a0

--------------------------------------------------------------------------------

***  Geometry step: 175

 iSCC Total electronic   Diff electronic      SCC error    
    1   -0.19518232E+03    0.00000000E+00    0.17697228E-03
    2   -0.19518247E+03   -0.15399212E-03    0.10175914E-03
    3   -0.19518247E+03   -0.20056518E-07    0.36470177E-04
    4   -0.19518247E+03   -0.30721878E-08    0.54582522E-05
    5   -0.19518247E+03   -0.14523494E-09    0.15940296E-05
    6   -0.19518247E+03   -0.57127636E-11    0.19044698E-06
    7   -0.19518247E+03   -0.22737368E-12    0.15222907E-07
    8   -0.19518247E+03    0.56843419E-13    0.43876298E-08

Total Energy:                     -193.2752631467 H        -5259.2875 eV
Extrapolated to 0K:               -193.2752631467 H        -5259.2875 eV
Total Mermin free energy:         -193.2752631467 H        -5259.2875 eV
Force related energy:             -193.2752631467 H        -5259.2875 eV

Volume:                              0.112162E+05 au^3   0.166207E+04 A^3
Pressure:                            0.150957E-08 au     0.444131E+05 Pa
>> Charges saved for restart in charges.bin

total energy  -1.9327526E+02 H       energy change -5.9021693E-07 H
gradient norm  4.4401704E-04 H/a0    max. gradient  9.9361271E-05 H/a0
step length    3.2696661E-03 a0      max. step      8.5573099E-04 a0

Geometry converged

--------------------------------------------------------------------------------
DFTB+ running times                          cpu [s]             wall clock [s]
--------------------------------------------------------------------------------
Pre-SCC initialisation                 +      18.65 (  1.1%)       2.33 (  1.1%)
SCC                                    +    1485.42 ( 89.3%)     187.57 ( 90.4%)
Post-SCC processing                    +     160.14 (  9.6%)      17.68 (  8.5%)
--------------------------------------------------------------------------------
Missing                                +       0.06 (  0.0%)       0.01 (  0.0%)
Total                                  =    1664.27 (100.0%)     207.58 (100.0%)
--------------------------------------------------------------------------------
