|===============================================================================
|
|  DFTB+ release 24.1
|
|  Copyright (C) 2006 - 2024  DFTB+ developers group
|
|===============================================================================
|
|  When publishing results obtained with DFTB+, please cite the following
|  reference:
|
|  * DFTB+, a software package for efficient approximate density functional
|    theory based atomistic simulations, J. Chem. Phys. 152, 124101 (2020).
|    [doi: 10.1063/1.5143190]
|
|  You should also cite additional publications crediting the parametrization
|  data you use. Please consult the documentation of the SK-files for the
|  references.
|
|===============================================================================

Reading input file 'dftb_in.hsd'
Parser version: 14

--------------------------------------------------------------------------------
Reading SK-files:
./SKFiles/Si-Si.skf
./SKFiles/Si-Ge.skf
./SKFiles/Si-O.skf
./SKFiles/Ge-Ge.skf
./SKFiles/Ge-O.skf
./SKFiles/O-O.skf
Done.


Processed input in HSD format written to 'dftb_pin.hsd'

Starting initialization...
--------------------------------------------------------------------------------
WARNING!
-> Dipole printed for extended system : value printed is not well defined
MPI processes:               1
OpenMP threads:              8
BLACS orbital grid size:     1 x 1
BLACS atom grid size:        1 x 1
Chosen random seed:          154439235
Current stacksize:           unlimited
Mode:                        Static calculation
Self consistent charges:     Yes
SCC-tolerance:                 0.100000E-07
Max. scc iterations:                    500
Shell resolved Hubbard:      No
Spin polarisation:           No
Nr. of up electrons:           192.000000
Nr. of down electrons:         192.000000
Periodic boundaries:         Yes
Electronic solver:           Relatively robust
Mixer:                       Broyden mixer
Mixing parameter:                  0.200000
Maximal SCC-cycles:                     500
Nr. of chrg. vec. in memory:            500
Electronic temperature:              0.100000E-07 H      0.272114E-06 eV
Initial charges:             Set automatically (system chrg:   0.000E+00)
Included shells:            Si:  s, p, d
                            Ge:  s, p, d
                             O:  s, p
K-points and weights:           1:  0.500000  0.500000  0.500000     1.000000

K-points in absolute space:     1:  0.025319  0.017606  0.037774

Extra options:
                             Mulliken analysis
Force type                   original

--------------------------------------------------------------------------------

***  Geometry step: 0

 iSCC Total electronic   Diff electronic      SCC error    
    1    0.00000000E+00    0.00000000E+00    0.14261668E+01
    2   -0.19732408E+03   -0.19732408E+03    0.97905109E+00
    3   -0.19766696E+03   -0.34288272E+00    0.38622269E-01
    4   -0.19795563E+03   -0.28867184E+00    0.32449698E-01
    5   -0.19795725E+03   -0.16220301E-02    0.52164273E-02
    6   -0.19795737E+03   -0.11263211E-03    0.14614179E-02
    7   -0.19795737E+03   -0.35239497E-05    0.34857282E-03
    8   -0.19795737E+03   -0.62097470E-06    0.63135827E-04
    9   -0.19795737E+03   -0.43344471E-07    0.19740913E-04
   10   -0.19795737E+03   -0.27117153E-09    0.45866333E-05
   11   -0.19795737E+03   -0.94246388E-10    0.49689583E-06
   12   -0.19795737E+03   -0.55990768E-11    0.15876263E-06
   13   -0.19795737E+03    0.56843419E-13    0.22632824E-07
   14   -0.19795737E+03   -0.28421709E-13    0.77701663E-08

Total Energy:                     -190.4252515457 H        -5181.7347 eV
Extrapolated to 0K:               -190.4252515457 H        -5181.7347 eV
Total Mermin free energy:         -190.4252515457 H        -5181.7347 eV
Force related energy:             -190.4252515457 H        -5181.7347 eV

Volume:                              0.913789E+04 au^3   0.135410E+04 A^3
Pressure:                            0.249382E-02 au     0.733706E+11 Pa
>> Charges saved for restart in charges.bin

total energy  -1.9042525E+02 H       energy change -1.9042525E+02 H
gradient norm  2.1227986E+00 H/a0    max. gradient  1.1972780E+00 H/a0
step length    0.0000000E+00 a0      max. step      0.0000000E+00 a0

--------------------------------------------------------------------------------

***  Geometry step: 1

 iSCC Total electronic   Diff electronic      SCC error    
    1   -0.19795737E+03    0.00000000E+00    0.13296260E+00
    2   -0.19729250E+03    0.66487368E+00    0.60315141E-01
    3   -0.19730754E+03   -0.15046280E-01    0.19104736E-01
    4   -0.19731033E+03   -0.27890061E-02    0.20791925E-02
    5   -0.19731040E+03   -0.64747377E-04    0.67911620E-03
    6   -0.19731040E+03   -0.37527461E-05    0.21141646E-03
    7   -0.19731040E+03   -0.13741928E-06    0.29083697E-04
    8   -0.19731040E+03   -0.16309258E-07    0.64435352E-05
    9   -0.19731040E+03   -0.74228979E-09    0.24041659E-05
   10   -0.19731040E+03   -0.12676082E-10    0.57120132E-06
   11   -0.19731040E+03   -0.62527761E-12    0.10628611E-06
   12   -0.19731040E+03   -0.17053026E-12    0.18479788E-07
   13   -0.19731040E+03    0.28421709E-13    0.28820986E-08

Total Energy:                     -191.1300757907 H        -5200.9140 eV
Extrapolated to 0K:               -191.1300757907 H        -5200.9140 eV
Total Mermin free energy:         -191.1300757907 H        -5200.9140 eV
Force related energy:             -191.1300757907 H        -5200.9140 eV

Volume:                              0.968154E+04 au^3   0.143466E+04 A^3
Pressure:                            0.179571E-02 au     0.528317E+11 Pa
>> Charges saved for restart in charges.bin

total energy  -1.9113008E+02 H       energy change -7.0482425E-01 H
gradient norm  1.4254170E+00 H/a0    max. gradient  2.5643645E-01 H/a0
step length    7.9182656E-01 a0      max. step      4.4659749E-01 a0

--------------------------------------------------------------------------------

***  Geometry step: 2

 iSCC Total electronic   Diff electronic      SCC error    
    1   -0.19731040E+03    0.00000000E+00    0.56763680E-01
    2   -0.19695580E+03    0.35460323E+00    0.27638952E-01
    3   -0.19695899E+03   -0.31952210E-02    0.61021367E-02
    4   -0.19695967E+03   -0.67419586E-03    0.14363229E-02
    5   -0.19695969E+03   -0.19491581E-04    0.23351405E-03
    6   -0.19695969E+03   -0.13359977E-05    0.14514012E-03
    7   -0.19695969E+03   -0.22734241E-07    0.18694270E-04
    8   -0.19695969E+03   -0.26655300E-08    0.31003507E-05
    9   -0.19695969E+03   -0.23825919E-09    0.82436954E-06
   10   -0.19695969E+03   -0.34674486E-11    0.22324858E-06
   11   -0.19695969E+03   -0.85265128E-13    0.48291821E-07
   12   -0.19695969E+03   -0.28421709E-13    0.13742373E-07
   13   -0.19695969E+03   -0.28421709E-13    0.20558963E-08

Total Energy:                     -191.9073644273 H        -5222.0651 eV
Extrapolated to 0K:               -191.9073644273 H        -5222.0651 eV
Total Mermin free energy:         -191.9073644273 H        -5222.0651 eV
Force related energy:             -191.9073644273 H        -5222.0651 eV

Volume:                              0.983145E+04 au^3   0.145687E+04 A^3
Pressure:                            0.133268E-02 au     0.392089E+11 Pa
>> Charges saved for restart in charges.bin

total energy  -1.9190736E+02 H       energy change -7.7728864E-01 H
gradient norm  9.1484947E-01 H/a0    max. gradient  1.5289893E-01 H/a0
step length    7.5205976E-01 a0      max. step      1.3740607E-01 a0

--------------------------------------------------------------------------------

***  Geometry step: 3

 iSCC Total electronic   Diff electronic      SCC error    
    1   -0.19695969E+03    0.00000000E+00    0.70647651E-01
    2   -0.19657695E+03    0.38274011E+00    0.29732136E-01
    3   -0.19658038E+03   -0.34343820E-02    0.91378903E-02
    4   -0.19658102E+03   -0.64284588E-03    0.90912178E-03
    5   -0.19658106E+03   -0.35911802E-04    0.25215473E-03
    6   -0.19658106E+03   -0.14012249E-05    0.11732199E-03
    7   -0.19658106E+03   -0.21287661E-07    0.16082795E-04
    8   -0.19658106E+03   -0.26514897E-08    0.43262112E-05
    9   -0.19658106E+03   -0.30360070E-09    0.14924372E-05
   10   -0.19658106E+03   -0.50306426E-11    0.39493386E-06
   11   -0.19658106E+03   -0.14210855E-12    0.85302815E-07
   12   -0.19658106E+03    0.00000000E+00    0.18680080E-07
   13   -0.19658106E+03    0.28421709E-13    0.22672069E-08

Total Energy:                     -192.4581741698 H        -5237.0534 eV
Extrapolated to 0K:               -192.4581741698 H        -5237.0534 eV
Total Mermin free energy:         -192.4581741698 H        -5237.0534 eV
Force related energy:             -192.4581741698 H        -5237.0534 eV

Volume:                              0.995309E+04 au^3   0.147490E+04 A^3
Pressure:                            0.958955E-03 au     0.282134E+11 Pa
>> Charges saved for restart in charges.bin

total energy  -1.9245817E+02 H       energy change -5.5080974E-01 H
gradient norm  5.9267949E-01 H/a0    max. gradient  1.1837667E-01 H/a0
step length    7.9115949E-01 a0      max. step      1.6373828E-01 a0

--------------------------------------------------------------------------------

***  Geometry step: 4

 iSCC Total electronic   Diff electronic      SCC error    
    1   -0.19658106E+03    0.00000000E+00    0.59315000E-01
    2   -0.19616703E+03    0.41403030E+00    0.34699009E-01
    3   -0.19616921E+03   -0.21784740E-02    0.70083098E-02
    4   -0.19616975E+03   -0.53802765E-03    0.92666004E-03
    5   -0.19616978E+03   -0.35106583E-04    0.31173183E-03
    6   -0.19616978E+03   -0.11431039E-05    0.78105248E-04
    7   -0.19616978E+03   -0.24392250E-07    0.21926622E-04
    8   -0.19616978E+03   -0.18525554E-08    0.62838702E-05
    9   -0.19616978E+03   -0.26119551E-09    0.18951098E-05
   10   -0.19616978E+03   -0.54285465E-11    0.34826173E-06
   11   -0.19616978E+03   -0.22737368E-12    0.80907987E-07
   12   -0.19616978E+03   -0.56843419E-13    0.19762404E-07
   13   -0.19616978E+03    0.11368684E-12    0.33001784E-08

Total Energy:                     -192.7933341263 H        -5246.1735 eV
Extrapolated to 0K:               -192.7933341263 H        -5246.1735 eV
Total Mermin free energy:         -192.7933341263 H        -5246.1735 eV
Force related energy:             -192.7933341263 H        -5246.1735 eV

Volume:                              0.100929E+05 au^3   0.149562E+04 A^3
Pressure:                            0.657977E-03 au     0.193584E+11 Pa
>> Charges saved for restart in charges.bin

total energy  -1.9279333E+02 H       energy change -3.3515996E-01 H
gradient norm  4.4951984E-01 H/a0    max. gradient  2.2690953E-01 H/a0
step length    7.6266558E-01 a0      max. step      1.3157910E-01 a0

--------------------------------------------------------------------------------

***  Geometry step: 5

 iSCC Total electronic   Diff electronic      SCC error    
    1   -0.19616978E+03    0.00000000E+00    0.66892174E-01
    2   -0.19571587E+03    0.45391251E+00    0.40741286E-01
    3   -0.19571780E+03   -0.19275823E-02    0.79311208E-02
    4   -0.19571830E+03   -0.50497352E-03    0.13699530E-02
    5   -0.19571833E+03   -0.30781628E-04    0.31062173E-03
    6   -0.19571834E+03   -0.73472714E-06    0.80347449E-04
    7   -0.19571834E+03   -0.15057623E-07    0.26125755E-04
    8   -0.19571834E+03   -0.15076012E-08    0.65236168E-05
    9   -0.19571834E+03   -0.13795898E-09    0.18751876E-05
   10   -0.19571834E+03   -0.57980287E-11    0.20038462E-06
   11   -0.19571834E+03   -0.22737368E-12    0.29154548E-07
   12   -0.19571834E+03   -0.85265128E-13    0.10455954E-07
   13   -0.19571834E+03   -0.28421709E-13    0.24912508E-08

Total Energy:                     -192.9895163089 H        -5251.5119 eV
Extrapolated to 0K:               -192.9895163089 H        -5251.5119 eV
Total Mermin free energy:         -192.9895163089 H        -5251.5119 eV
Force related energy:             -192.9895163089 H        -5251.5119 eV

Volume:                              0.102922E+05 au^3   0.152515E+04 A^3
Pressure:                            0.391360E-03 au     0.115142E+11 Pa
>> Charges saved for restart in charges.bin

total energy  -1.9298952E+02 H       energy change -1.9618218E-01 H
gradient norm  3.0141163E-01 H/a0    max. gradient  1.2660574E-01 H/a0
step length    7.2491343E-01 a0      max. step      2.4130595E-01 a0

--------------------------------------------------------------------------------

***  Geometry step: 6

 iSCC Total electronic   Diff electronic      SCC error    
    1   -0.19571834E+03    0.00000000E+00    0.52963615E-01
    2   -0.19540011E+03    0.31822067E+00    0.29188633E-01
    3   -0.19540155E+03   -0.14319406E-02    0.33037077E-02
    4   -0.19540189E+03   -0.34777155E-03    0.63407145E-03
    5   -0.19540191E+03   -0.14200077E-04    0.23394160E-03
    6   -0.19540191E+03   -0.50296589E-06    0.10065659E-03
    7   -0.19540191E+03   -0.75131652E-08    0.23537883E-04
    8   -0.19540191E+03   -0.63675998E-09    0.55320108E-05
    9   -0.19540191E+03   -0.85975671E-10    0.18058204E-05
   10   -0.19540191E+03   -0.27284841E-11    0.16397163E-06
   11   -0.19540191E+03   -0.31263880E-12    0.27643296E-07
   12   -0.19540191E+03   -0.56843419E-13    0.77546187E-08

Total Energy:                     -193.0785546853 H        -5253.9348 eV
Extrapolated to 0K:               -193.0785546853 H        -5253.9348 eV
Total Mermin free energy:         -193.0785546853 H        -5253.9348 eV
Force related energy:             -193.0785546853 H        -5253.9348 eV

Volume:                              0.104223E+05 au^3   0.154443E+04 A^3
Pressure:                            0.225591E-03 au     0.663712E+10 Pa
>> Charges saved for restart in charges.bin

total energy  -1.9307855E+02 H       energy change -8.9038376E-02 H
gradient norm  1.7437278E-01 H/a0    max. gradient  8.0402021E-02 H/a0
step length    5.7722459E-01 a0      max. step      1.0602547E-01 a0

--------------------------------------------------------------------------------

***  Geometry step: 7

 iSCC Total electronic   Diff electronic      SCC error    
    1   -0.19540191E+03    0.00000000E+00    0.35570446E-01
    2   -0.19520723E+03    0.19468193E+00    0.19282693E-01
    3   -0.19520804E+03   -0.80887764E-03    0.30907456E-02
    4   -0.19520819E+03   -0.15664960E-03    0.45031883E-03
    5   -0.19520820E+03   -0.55776487E-05    0.15106636E-03
    6   -0.19520820E+03   -0.27620837E-06    0.54524567E-04
    7   -0.19520820E+03   -0.66692678E-08    0.15331715E-04
    8   -0.19520820E+03   -0.31008085E-09    0.41959030E-05
    9   -0.19520820E+03   -0.33281822E-10    0.13758266E-05
   10   -0.19520820E+03   -0.26147973E-11    0.18704933E-06
   11   -0.19520820E+03   -0.14210855E-12    0.15452461E-07
   12   -0.19520820E+03    0.28421709E-13    0.43468580E-08

Total Energy:                     -193.1133757065 H        -5254.8823 eV
Extrapolated to 0K:               -193.1133757065 H        -5254.8823 eV
Total Mermin free energy:         -193.1133757065 H        -5254.8823 eV
Force related energy:             -193.1133757065 H        -5254.8823 eV

Volume:                              0.105049E+05 au^3   0.155667E+04 A^3
Pressure:                            0.137448E-03 au     0.404386E+10 Pa
>> Charges saved for restart in charges.bin

total energy  -1.9311338E+02 H       energy change -3.4821021E-02 H
gradient norm  1.4028104E-01 H/a0    max. gradient  6.1817598E-02 H/a0
step length    4.3961189E-01 a0      max. step      7.8196106E-02 a0

--------------------------------------------------------------------------------

***  Geometry step: 8

 iSCC Total electronic   Diff electronic      SCC error    
    1   -0.19520820E+03    0.00000000E+00    0.19193688E-01
    2   -0.19509431E+03    0.11389194E+00    0.93047791E-02
    3   -0.19509465E+03   -0.34558258E-03    0.19419061E-02
    4   -0.19509471E+03   -0.61671509E-04    0.41138997E-03
    5   -0.19509472E+03   -0.19510219E-05    0.97287584E-04
    6   -0.19509472E+03   -0.88650864E-07    0.21330134E-04
    7   -0.19509472E+03   -0.44394994E-08    0.75090938E-05
    8   -0.19509472E+03   -0.19468871E-09    0.25531159E-05
    9   -0.19509472E+03   -0.98907549E-11    0.70621971E-06
   10   -0.19509472E+03   -0.96633812E-12    0.11886405E-06
   11   -0.19509472E+03   -0.56843419E-13    0.16387610E-07
   12   -0.19509472E+03    0.00000000E+00    0.38748134E-08

Total Energy:                     -193.1337152289 H        -5255.4358 eV
Extrapolated to 0K:               -193.1337152289 H        -5255.4358 eV
Total Mermin free energy:         -193.1337152289 H        -5255.4358 eV
Force related energy:             -193.1337152289 H        -5255.4358 eV

Volume:                              0.105686E+05 au^3   0.156610E+04 A^3
Pressure:                            0.788760E-04 au     0.232061E+10 Pa
>> Charges saved for restart in charges.bin

total energy  -1.9313372E+02 H       energy change -2.0339522E-02 H
gradient norm  1.1702914E-01 H/a0    max. gradient  2.8095057E-02 H/a0
step length    3.5938011E-01 a0      max. step      7.4306559E-02 a0

--------------------------------------------------------------------------------

***  Geometry step: 9

 iSCC Total electronic   Diff electronic      SCC error    
    1   -0.19509472E+03    0.00000000E+00    0.19337203E-01
    2   -0.19508001E+03    0.14710034E-01    0.10639822E-01
    3   -0.19508042E+03   -0.41069259E-03    0.34665639E-02
    4   -0.19508048E+03   -0.60113777E-04    0.46936351E-03
    5   -0.19508048E+03   -0.21060305E-05    0.14400890E-03
    6   -0.19508048E+03   -0.22986700E-06    0.54371262E-04
    7   -0.19508048E+03   -0.50653739E-08    0.13309227E-04
    8   -0.19508048E+03   -0.15026558E-09    0.22797493E-05
    9   -0.19508048E+03   -0.16854074E-10    0.35837601E-06
   10   -0.19508048E+03   -0.13926638E-11    0.88835355E-07
   11   -0.19508048E+03    0.00000000E+00    0.12397723E-07
   12   -0.19508048E+03   -0.28421709E-13    0.25370341E-08

Total Energy:                     -193.1522368924 H        -5255.9398 eV
Extrapolated to 0K:               -193.1522368924 H        -5255.9398 eV
Total Mermin free energy:         -193.1522368924 H        -5255.9398 eV
Force related energy:             -193.1522368924 H        -5255.9398 eV

Volume:                              0.105922E+05 au^3   0.156960E+04 A^3
Pressure:                            0.596798E-04 au     0.175584E+10 Pa
>> Charges saved for restart in charges.bin

total energy  -1.9315224E+02 H       energy change -1.8521663E-02 H
gradient norm  1.0662325E-01 H/a0    max. gradient  2.8301318E-02 H/a0
step length    3.3811224E-01 a0      max. step      6.0873676E-02 a0

--------------------------------------------------------------------------------

***  Geometry step: 10

 iSCC Total electronic   Diff electronic      SCC error    
    1   -0.19508048E+03    0.00000000E+00    0.29017191E-01
    2   -0.19512125E+03   -0.40770116E-01    0.17117158E-01
    3   -0.19512190E+03   -0.64821719E-03    0.30022854E-02
    4   -0.19512203E+03   -0.13651777E-03    0.74187932E-03
    5   -0.19512204E+03   -0.72374675E-05    0.31634924E-03
    6   -0.19512204E+03   -0.18831869E-06    0.87671671E-04
    7   -0.19512204E+03   -0.58010983E-08    0.13887032E-04
    8   -0.19512204E+03   -0.43451109E-09    0.34653391E-05
    9   -0.19512204E+03   -0.40472514E-10    0.55999556E-06
   10   -0.19512204E+03   -0.21316282E-11    0.88321394E-07
   11   -0.19512204E+03   -0.11368684E-12    0.14630428E-07
   12   -0.19512204E+03   -0.56843419E-13    0.45218984E-08

Total Energy:                     -193.1751660917 H        -5256.5637 eV
Extrapolated to 0K:               -193.1751660917 H        -5256.5637 eV
Total Mermin free energy:         -193.1751660917 H        -5256.5637 eV
Force related energy:             -193.1751660917 H        -5256.5637 eV

Volume:                              0.106140E+05 au^3   0.157284E+04 A^3
Pressure:                            0.633296E-04 au     0.186322E+10 Pa
>> Charges saved for restart in charges.bin

total energy  -1.9317517E+02 H       energy change -2.2929199E-02 H
gradient norm  9.1457087E-02 H/a0    max. gradient  2.1841979E-02 H/a0
step length    4.5493423E-01 a0      max. step      7.0412588E-02 a0

--------------------------------------------------------------------------------

***  Geometry step: 11

 iSCC Total electronic   Diff electronic      SCC error    
    1   -0.19512204E+03    0.00000000E+00    0.27251515E-01
    2   -0.19517600E+03   -0.53955817E-01    0.15994063E-01
    3   -0.19517646E+03   -0.46061877E-03    0.27256752E-02
    4   -0.19517657E+03   -0.11476626E-03    0.43276092E-03
    5   -0.19517658E+03   -0.53203143E-05    0.18910786E-03
    6   -0.19517658E+03   -0.17911177E-06    0.58436499E-04
    7   -0.19517658E+03   -0.58200555E-08    0.13599879E-04
    8   -0.19517658E+03   -0.21188384E-09    0.29369354E-05
    9   -0.19517658E+03   -0.26119551E-10    0.54000804E-06
   10   -0.19517658E+03   -0.24726887E-11    0.78639145E-07
   11   -0.19517658E+03   -0.85265128E-13    0.16568423E-07
   12   -0.19517658E+03    0.56843419E-13    0.34425223E-08

Total Energy:                     -193.1900492765 H        -5256.9687 eV
Extrapolated to 0K:               -193.1900492765 H        -5256.9687 eV
Total Mermin free energy:         -193.1900492765 H        -5256.9687 eV
Force related energy:             -193.1900492765 H        -5256.9687 eV

Volume:                              0.106263E+05 au^3   0.157466E+04 A^3
Pressure:                            0.740891E-04 au     0.217977E+10 Pa
>> Charges saved for restart in charges.bin

total energy  -1.9319005E+02 H       energy change -1.4883185E-02 H
gradient norm  8.1215480E-02 H/a0    max. gradient  1.5643180E-02 H/a0
step length    3.8786192E-01 a0      max. step      5.6330993E-02 a0

--------------------------------------------------------------------------------

***  Geometry step: 12

 iSCC Total electronic   Diff electronic      SCC error    
    1   -0.19517658E+03    0.00000000E+00    0.24202402E-01
    2   -0.19520724E+03   -0.30660375E-01    0.14258508E-01
    3   -0.19520743E+03   -0.19344744E-03    0.16016847E-02
    4   -0.19520749E+03   -0.56441968E-04    0.26382527E-03
    5   -0.19520749E+03   -0.24535178E-05    0.83631281E-04
    6   -0.19520749E+03   -0.38026599E-07    0.31416821E-04
    7   -0.19520749E+03   -0.14047714E-08    0.84172236E-05
    8   -0.19520749E+03   -0.50533799E-10    0.17305057E-05
    9   -0.19520749E+03   -0.69633188E-11    0.33626433E-06
   10   -0.19520749E+03   -0.45474735E-12    0.57849261E-07
   11   -0.19520749E+03   -0.85265128E-13    0.67150854E-08

Total Energy:                     -193.2012587932 H        -5257.2737 eV
Extrapolated to 0K:               -193.2012587932 H        -5257.2737 eV
Total Mermin free energy:         -193.2012587932 H        -5257.2737 eV
Force related energy:             -193.2012587932 H        -5257.2737 eV

Volume:                              0.106500E+05 au^3   0.157816E+04 A^3
Pressure:                            0.755515E-04 au     0.222280E+10 Pa
>> Charges saved for restart in charges.bin

total energy  -1.9320126E+02 H       energy change -1.1209517E-02 H
gradient norm  7.0079357E-02 H/a0    max. gradient  1.4681784E-02 H/a0
step length    3.3690963E-01 a0      max. step      5.3408497E-02 a0

--------------------------------------------------------------------------------

***  Geometry step: 13

 iSCC Total electronic   Diff electronic      SCC error    
    1   -0.19520749E+03    0.00000000E+00    0.23231015E-01
    2   -0.19521885E+03   -0.11359799E-01    0.13494694E-01
    3   -0.19521900E+03   -0.15204617E-03    0.17502964E-02
    4   -0.19521905E+03   -0.46099323E-04    0.25659499E-03
    5   -0.19521905E+03   -0.19223381E-05    0.29915160E-04
    6   -0.19521905E+03   -0.37078394E-07    0.92414767E-05
    7   -0.19521905E+03   -0.42234660E-09    0.26816373E-05
    8   -0.19521905E+03   -0.19269919E-10    0.56042516E-06
    9   -0.19521905E+03   -0.21884716E-11    0.15529285E-06
   10   -0.19521905E+03   -0.85265128E-13    0.34760139E-07
   11   -0.19521905E+03    0.00000000E+00    0.46173869E-08

Total Energy:                     -193.2105923027 H        -5257.5277 eV
Extrapolated to 0K:               -193.2105923027 H        -5257.5277 eV
Total Mermin free energy:         -193.2105923027 H        -5257.5277 eV
Force related energy:             -193.2105923027 H        -5257.5277 eV

Volume:                              0.106899E+05 au^3   0.158408E+04 A^3
Pressure:                            0.705740E-04 au     0.207636E+10 Pa
>> Charges saved for restart in charges.bin

total energy  -1.9321059E+02 H       energy change -9.3335094E-03 H
gradient norm  6.0516988E-02 H/a0    max. gradient  1.1952228E-02 H/a0
step length    3.2619888E-01 a0      max. step      5.6047506E-02 a0

--------------------------------------------------------------------------------

***  Geometry step: 14

 iSCC Total electronic   Diff electronic      SCC error    
    1   -0.19521905E+03    0.00000000E+00    0.15371912E-01
    2   -0.19520487E+03    0.14184457E-01    0.87516131E-02
    3   -0.19520495E+03   -0.79820850E-04    0.11593798E-02
    4   -0.19520497E+03   -0.22366670E-04    0.28453961E-03
    5   -0.19520497E+03   -0.94356687E-06    0.37919296E-04
    6   -0.19520497E+03   -0.42129955E-07    0.15546591E-04
    7   -0.19520497E+03   -0.70883743E-09    0.53455241E-05
    8   -0.19520497E+03   -0.15376145E-10    0.11755239E-05
    9   -0.19520497E+03   -0.17053026E-11    0.19183604E-06
   10   -0.19520497E+03   -0.31263880E-12    0.27479409E-07
   11   -0.19520497E+03   -0.56843419E-13    0.32330147E-08

Total Energy:                     -193.2166553246 H        -5257.6927 eV
Extrapolated to 0K:               -193.2166553246 H        -5257.6927 eV
Total Mermin free energy:         -193.2166553246 H        -5257.6927 eV
Force related energy:             -193.2166553246 H        -5257.6927 eV

Volume:                              0.107379E+05 au^3   0.159119E+04 A^3
Pressure:                            0.600035E-04 au     0.176536E+10 Pa
>> Charges saved for restart in charges.bin

total energy  -1.9321666E+02 H       energy change -6.0630219E-03 H
gradient norm  5.3669669E-02 H/a0    max. gradient  1.2348453E-02 H/a0
step length    2.6014363E-01 a0      max. step      4.6074665E-02 a0

--------------------------------------------------------------------------------

***  Geometry step: 15

 iSCC Total electronic   Diff electronic      SCC error    
    1   -0.19520497E+03    0.00000000E+00    0.90099640E-02
    2   -0.19517302E+03    0.31953052E-01    0.51379977E-02
    3   -0.19517305E+03   -0.37492981E-04    0.70451229E-03
    4   -0.19517306E+03   -0.97701896E-05    0.12913942E-03
    5   -0.19517306E+03   -0.42947445E-06    0.31488232E-04
    6   -0.19517306E+03   -0.20943531E-07    0.12404291E-04
    7   -0.19517306E+03   -0.44116177E-09    0.36653727E-05
    8   -0.19517306E+03   -0.10885515E-10    0.90030637E-06
    9   -0.19517306E+03   -0.11084467E-11    0.21267250E-06
   10   -0.19517306E+03   -0.17053026E-12    0.20357159E-07
   11   -0.19517306E+03    0.00000000E+00    0.39093822E-08

Total Energy:                     -193.2212482257 H        -5257.8177 eV
Extrapolated to 0K:               -193.2212482257 H        -5257.8177 eV
Total Mermin free energy:         -193.2212482257 H        -5257.8177 eV
Force related energy:             -193.2212482257 H        -5257.8177 eV

Volume:                              0.107912E+05 au^3   0.159909E+04 A^3
Pressure:                            0.427552E-04 au     0.125790E+10 Pa
>> Charges saved for restart in charges.bin

total energy  -1.9322125E+02 H       energy change -4.5929011E-03 H
gradient norm  4.8507424E-02 H/a0    max. gradient  8.6576770E-03 H/a0
step length    2.3245093E-01 a0      max. step      4.3988026E-02 a0

--------------------------------------------------------------------------------

***  Geometry step: 16

 iSCC Total electronic   Diff electronic      SCC error    
    1   -0.19517306E+03    0.00000000E+00    0.99056279E-02
    2   -0.19514256E+03    0.30508727E-01    0.55683217E-02
    3   -0.19514259E+03   -0.31386131E-04    0.10007982E-02
    4   -0.19514259E+03   -0.59157761E-05    0.16935427E-03
    5   -0.19514259E+03   -0.29041087E-06    0.33042121E-04
    6   -0.19514259E+03   -0.20082609E-07    0.12241235E-04
    7   -0.19514259E+03   -0.37732661E-09    0.32273752E-05
    8   -0.19514259E+03   -0.98907549E-11    0.77525232E-06
    9   -0.19514259E+03   -0.10800250E-11    0.19330312E-06
   10   -0.19514259E+03   -0.11368684E-12    0.18879553E-07
   11   -0.19514259E+03   -0.28421709E-13    0.41314325E-08

Total Energy:                     -193.2255849325 H        -5257.9357 eV
Extrapolated to 0K:               -193.2255849325 H        -5257.9357 eV
Total Mermin free energy:         -193.2255849325 H        -5257.9357 eV
Force related energy:             -193.2255849325 H        -5257.9357 eV

Volume:                              0.108426E+05 au^3   0.160671E+04 A^3
Pressure:                            0.258798E-04 au     0.761409E+09 Pa
>> Charges saved for restart in charges.bin

total energy  -1.9322558E+02 H       energy change -4.3367068E-03 H
gradient norm  4.9735096E-02 H/a0    max. gradient  9.1406669E-03 H/a0
step length    2.2645406E-01 a0      max. step      4.2296199E-02 a0

--------------------------------------------------------------------------------

***  Geometry step: 17

 iSCC Total electronic   Diff electronic      SCC error    
    1   -0.19514259E+03    0.00000000E+00    0.11333106E-01
    2   -0.19512837E+03    0.14223205E-01    0.63821363E-02
    3   -0.19512842E+03   -0.51749130E-04    0.14119705E-02
    4   -0.19512843E+03   -0.90933978E-05    0.20262264E-03
    5   -0.19512843E+03   -0.43779423E-06    0.75438533E-04
    6   -0.19512843E+03   -0.32551611E-07    0.24090578E-04
    7   -0.19512843E+03   -0.90446406E-09    0.53524164E-05
    8   -0.19512843E+03   -0.31491254E-10    0.13310940E-05
    9   -0.19512843E+03   -0.27284841E-11    0.19357396E-06
   10   -0.19512843E+03   -0.19895197E-12    0.34799688E-07
   11   -0.19512843E+03   -0.28421709E-13    0.47996180E-08

Total Energy:                     -193.2306940371 H        -5258.0747 eV
Extrapolated to 0K:               -193.2306940371 H        -5258.0747 eV
Total Mermin free energy:         -193.2306940371 H        -5258.0747 eV
Force related energy:             -193.2306940371 H        -5258.0747 eV

Volume:                              0.108917E+05 au^3   0.161399E+04 A^3
Pressure:                            0.154653E-04 au     0.455006E+09 Pa
>> Charges saved for restart in charges.bin

total energy  -1.9323069E+02 H       energy change -5.1091046E-03 H
gradient norm  5.5824529E-02 H/a0    max. gradient  1.3304628E-02 H/a0
step length    2.7214745E-01 a0      max. step      4.7328204E-02 a0

--------------------------------------------------------------------------------

***  Geometry step: 18

 iSCC Total electronic   Diff electronic      SCC error    
    1   -0.19512843E+03    0.00000000E+00    0.15385473E-01
    2   -0.19513349E+03   -0.50613804E-02    0.90258276E-02
    3   -0.19513360E+03   -0.10711182E-03    0.26055270E-02
    4   -0.19513362E+03   -0.15945613E-04    0.28237732E-03
    5   -0.19513362E+03   -0.86235596E-06    0.10396749E-03
    6   -0.19513362E+03   -0.58394733E-07    0.33973219E-04
    7   -0.19513362E+03   -0.18102639E-08    0.74975696E-05
    8   -0.19513362E+03   -0.64375172E-10    0.19631409E-05
    9   -0.19513362E+03   -0.54569682E-11    0.33164757E-06
   10   -0.19513362E+03   -0.79580786E-12    0.44938466E-07
   11   -0.19513362E+03   -0.28421709E-13    0.65151116E-08

Total Energy:                     -193.2364630109 H        -5258.2317 eV
Extrapolated to 0K:               -193.2364630109 H        -5258.2317 eV
Total Mermin free energy:         -193.2364630109 H        -5258.2317 eV
Force related energy:             -193.2364630109 H        -5258.2317 eV

Volume:                              0.109370E+05 au^3   0.162069E+04 A^3
Pressure:                            0.131785E-04 au     0.387726E+09 Pa
>> Charges saved for restart in charges.bin

total energy  -1.9323646E+02 H       energy change -5.7689739E-03 H
gradient norm  5.7317969E-02 H/a0    max. gradient  1.3372921E-02 H/a0
step length    3.2887454E-01 a0      max. step      5.3516169E-02 a0

--------------------------------------------------------------------------------

***  Geometry step: 19

 iSCC Total electronic   Diff electronic      SCC error    
    1   -0.19513362E+03    0.00000000E+00    0.14503416E-01
    2   -0.19515338E+03   -0.19760728E-01    0.85329668E-02
    3   -0.19515352E+03   -0.14207417E-03    0.27391966E-02
    4   -0.19515354E+03   -0.18404960E-04    0.28630672E-03
    5   -0.19515354E+03   -0.96761980E-06    0.99684302E-04
    6   -0.19515354E+03   -0.58088659E-07    0.34123834E-04
    7   -0.19515354E+03   -0.19078925E-08    0.82268931E-05
    8   -0.19515354E+03   -0.64346750E-10    0.21683432E-05
    9   -0.19515354E+03   -0.55990768E-11    0.34393295E-06
   10   -0.19515354E+03   -0.73896445E-12    0.48790260E-07
   11   -0.19515354E+03    0.11368684E-12    0.63283241E-08

Total Energy:                     -193.2417624681 H        -5258.3759 eV
Extrapolated to 0K:               -193.2417624681 H        -5258.3759 eV
Total Mermin free energy:         -193.2417624681 H        -5258.3759 eV
Force related energy:             -193.2417624681 H        -5258.3759 eV

Volume:                              0.109739E+05 au^3   0.162617E+04 A^3
Pressure:                            0.167708E-04 au     0.493414E+09 Pa
>> Charges saved for restart in charges.bin

total energy  -1.9324176E+02 H       energy change -5.2994572E-03 H
gradient norm  5.0164274E-02 H/a0    max. gradient  1.0646900E-02 H/a0
step length    3.4135381E-01 a0      max. step      6.2481036E-02 a0

--------------------------------------------------------------------------------

***  Geometry step: 20

 iSCC Total electronic   Diff electronic      SCC error    
    1   -0.19515354E+03    0.00000000E+00    0.10433298E-01
    2   -0.19517801E+03   -0.24475497E-01    0.54798434E-02
    3   -0.19517815E+03   -0.13853843E-03    0.18125543E-02
    4   -0.19517817E+03   -0.16300791E-04    0.21131822E-03
    5   -0.19517817E+03   -0.78949327E-06    0.82107056E-04
    6   -0.19517817E+03   -0.44497511E-07    0.29878045E-04
    7   -0.19517817E+03   -0.12721841E-08    0.74008067E-05
    8   -0.19517817E+03   -0.42120973E-10    0.18669782E-05
    9   -0.19517817E+03   -0.40358827E-11    0.30499821E-06
   10   -0.19517817E+03   -0.54001248E-12    0.38139582E-07
   11   -0.19517817E+03    0.28421709E-13    0.68306738E-08

Total Energy:                     -193.2461514023 H        -5258.4953 eV
Extrapolated to 0K:               -193.2461514023 H        -5258.4953 eV
Total Mermin free energy:         -193.2461514023 H        -5258.4953 eV
Force related energy:             -193.2461514023 H        -5258.4953 eV

Volume:                              0.110062E+05 au^3   0.163095E+04 A^3
Pressure:                            0.230795E-04 au     0.679022E+09 Pa
>> Charges saved for restart in charges.bin

total energy  -1.9324615E+02 H       energy change -4.3889342E-03 H
gradient norm  4.1203234E-02 H/a0    max. gradient  9.8424838E-03 H/a0
step length    3.3144043E-01 a0      max. step      6.3118224E-02 a0

--------------------------------------------------------------------------------

***  Geometry step: 21

 iSCC Total electronic   Diff electronic      SCC error    
    1   -0.19517817E+03    0.00000000E+00    0.10907402E-01
    2   -0.19519071E+03   -0.12537502E-01    0.61798737E-02
    3   -0.19519080E+03   -0.97603232E-04    0.17190709E-02
    4   -0.19519082E+03   -0.12460697E-04    0.17058680E-03
    5   -0.19519082E+03   -0.61390583E-06    0.46385770E-04
    6   -0.19519082E+03   -0.32125143E-07    0.18020573E-04
    7   -0.19519082E+03   -0.86376417E-09    0.52694219E-05
    8   -0.19519082E+03   -0.21827873E-10    0.14189259E-05
    9   -0.19519082E+03   -0.17337243E-11    0.23901977E-06
   10   -0.19519082E+03   -0.28421709E-12    0.35035553E-07
   11   -0.19519082E+03    0.28421709E-13    0.62379391E-08

Total Energy:                     -193.2493987312 H        -5258.5837 eV
Extrapolated to 0K:               -193.2493987312 H        -5258.5837 eV
Total Mermin free energy:         -193.2493987312 H        -5258.5837 eV
Force related energy:             -193.2493987312 H        -5258.5837 eV

Volume:                              0.110418E+05 au^3   0.163623E+04 A^3
Pressure:                            0.242777E-04 au     0.714276E+09 Pa
>> Charges saved for restart in charges.bin

total energy  -1.9324940E+02 H       energy change -3.2473288E-03 H
gradient norm  3.5164181E-02 H/a0    max. gradient  8.7359723E-03 H/a0
step length    2.9786142E-01 a0      max. step      5.6318581E-02 a0

--------------------------------------------------------------------------------

***  Geometry step: 22

 iSCC Total electronic   Diff electronic      SCC error    
    1   -0.19519082E+03    0.00000000E+00    0.10720538E-01
    2   -0.19519139E+03   -0.57223322E-03    0.58712171E-02
    3   -0.19519144E+03   -0.50128418E-04    0.11607754E-02
    4   -0.19519145E+03   -0.85651918E-05    0.15040209E-03
    5   -0.19519145E+03   -0.40768279E-06    0.29183341E-04
    6   -0.19519145E+03   -0.20619780E-07    0.77255880E-05
    7   -0.19519145E+03   -0.62544814E-09    0.27335436E-05
    8   -0.19519145E+03   -0.16513013E-10    0.97793110E-06
    9   -0.19519145E+03   -0.90949470E-12    0.17758788E-06
   10   -0.19519145E+03   -0.22737368E-12    0.25516250E-07
   11   -0.19519145E+03    0.00000000E+00    0.43088439E-08

Total Energy:                     -193.2514614341 H        -5258.6398 eV
Extrapolated to 0K:               -193.2514614341 H        -5258.6398 eV
Total Mermin free energy:         -193.2514614341 H        -5258.6398 eV
Force related energy:             -193.2514614341 H        -5258.6398 eV

Volume:                              0.110759E+05 au^3   0.164128E+04 A^3
Pressure:                            0.219904E-04 au     0.646980E+09 Pa
>> Charges saved for restart in charges.bin

total energy  -1.9325146E+02 H       energy change -2.0627029E-03 H
gradient norm  3.2959894E-02 H/a0    max. gradient  7.5319232E-03 H/a0
step length    2.2582443E-01 a0      max. step      4.4487722E-02 a0

--------------------------------------------------------------------------------

***  Geometry step: 23

 iSCC Total electronic   Diff electronic      SCC error    
    1   -0.19519145E+03    0.00000000E+00    0.80363336E-02
    2   -0.19518276E+03    0.86858627E-02    0.44269916E-02
    3   -0.19518278E+03   -0.21626293E-04    0.69494071E-03
    4   -0.19518279E+03   -0.48713173E-05    0.98730421E-04
    5   -0.19518279E+03   -0.19689273E-06    0.19582635E-04
    6   -0.19518279E+03   -0.85302645E-08    0.40276892E-05
    7   -0.19518279E+03   -0.31104719E-09    0.15807603E-05
    8   -0.19518279E+03   -0.62811978E-11    0.53923413E-06
    9   -0.19518279E+03   -0.42632564E-12    0.10019227E-06
   10   -0.19518279E+03   -0.28421709E-13    0.13335955E-07
   11   -0.19518279E+03    0.00000000E+00    0.24909088E-08

Total Energy:                     -193.2527344873 H        -5258.6745 eV
Extrapolated to 0K:               -193.2527344873 H        -5258.6745 eV
Total Mermin free energy:         -193.2527344873 H        -5258.6745 eV
Force related energy:             -193.2527344873 H        -5258.6745 eV

Volume:                              0.111030E+05 au^3   0.164530E+04 A^3
Pressure:                            0.169962E-04 au     0.500046E+09 Pa
>> Charges saved for restart in charges.bin

total energy  -1.9325273E+02 H       energy change -1.2730532E-03 H
gradient norm  2.6241847E-02 H/a0    max. gradient  7.7965597E-03 H/a0
step length    1.3323752E-01 a0      max. step      2.5233998E-02 a0

--------------------------------------------------------------------------------

***  Geometry step: 24

 iSCC Total electronic   Diff electronic      SCC error    
    1   -0.19518279E+03    0.00000000E+00    0.51871887E-02
    2   -0.19517234E+03    0.10449354E-01    0.29786000E-02
    3   -0.19517237E+03   -0.25200371E-04    0.78434024E-03
    4   -0.19517237E+03   -0.44953815E-05    0.11314717E-03
    5   -0.19517237E+03   -0.14378969E-06    0.11693969E-04
    6   -0.19517237E+03   -0.76426261E-08    0.40261438E-05
    7   -0.19517237E+03   -0.12681767E-09    0.15492201E-05
    8   -0.19517237E+03   -0.44053650E-11    0.43933312E-06
    9   -0.19517237E+03   -0.31263880E-12    0.10434891E-06
   10   -0.19517237E+03    0.00000000E+00    0.18609466E-07
   11   -0.19517237E+03    0.28421709E-13    0.30486964E-08

Total Energy:                     -193.2536204051 H        -5258.6986 eV
Extrapolated to 0K:               -193.2536204051 H        -5258.6986 eV
Total Mermin free energy:         -193.2536204051 H        -5258.6986 eV
Force related energy:             -193.2536204051 H        -5258.6986 eV

Volume:                              0.111239E+05 au^3   0.164839E+04 A^3
Pressure:                            0.115534E-04 au     0.339911E+09 Pa
>> Charges saved for restart in charges.bin

total energy  -1.9325362E+02 H       energy change -8.8591784E-04 H
gradient norm  2.1483251E-02 H/a0    max. gradient  5.4729439E-03 H/a0
step length    8.6959805E-02 a0      max. step      2.0177439E-02 a0

--------------------------------------------------------------------------------

***  Geometry step: 25

 iSCC Total electronic   Diff electronic      SCC error    
    1   -0.19517237E+03    0.00000000E+00    0.37859127E-02
    2   -0.19516722E+03    0.51529583E-02    0.19882437E-02
    3   -0.19516723E+03   -0.16892968E-04    0.68876574E-03
    4   -0.19516724E+03   -0.22037654E-05    0.65724820E-04
    5   -0.19516724E+03   -0.63847153E-07    0.13435103E-04
    6   -0.19516724E+03   -0.37796042E-08    0.51032820E-05
    7   -0.19516724E+03   -0.52096993E-10    0.13721389E-05
    8   -0.19516724E+03   -0.20179414E-11    0.26032762E-06
    9   -0.19516724E+03   -0.19895197E-12    0.54151756E-07
   10   -0.19516724E+03   -0.28421709E-13    0.12704821E-07
   11   -0.19516724E+03   -0.56843419E-13    0.19574902E-08

Total Energy:                     -193.2543343754 H        -5258.7180 eV
Extrapolated to 0K:               -193.2543343754 H        -5258.7180 eV
Total Mermin free energy:         -193.2543343754 H        -5258.7180 eV
Force related energy:             -193.2543343754 H        -5258.7180 eV

Volume:                              0.111391E+05 au^3   0.165065E+04 A^3
Pressure:                            0.804615E-05 au     0.236726E+09 Pa
>> Charges saved for restart in charges.bin

total energy  -1.9325433E+02 H       energy change -7.1397023E-04 H
gradient norm  2.2787120E-02 H/a0    max. gradient  6.0091217E-03 H/a0
step length    7.3002592E-02 a0      max. step      2.0944940E-02 a0

--------------------------------------------------------------------------------

***  Geometry step: 26

 iSCC Total electronic   Diff electronic      SCC error    
    1   -0.19516724E+03    0.00000000E+00    0.64898224E-02
    2   -0.19516626E+03    0.97927540E-03    0.30438418E-02
    3   -0.19516629E+03   -0.35664315E-04    0.10707486E-02
    4   -0.19516630E+03   -0.42095710E-05    0.12163712E-03
    5   -0.19516630E+03   -0.12724402E-06    0.32574411E-04
    6   -0.19516630E+03   -0.64080723E-08    0.12076908E-04
    7   -0.19516630E+03   -0.82820861E-10    0.18054643E-05
    8   -0.19516630E+03   -0.71338491E-11    0.27053293E-06
    9   -0.19516630E+03   -0.88107299E-12    0.73910260E-07
   10   -0.19516630E+03    0.56843419E-13    0.12625665E-07
   11   -0.19516630E+03   -0.28421709E-13    0.28098102E-08

Total Energy:                     -193.2553902817 H        -5258.7467 eV
Extrapolated to 0K:               -193.2553902817 H        -5258.7467 eV
Total Mermin free energy:         -193.2553902817 H        -5258.7467 eV
Force related energy:             -193.2553902817 H        -5258.7467 eV

Volume:                              0.111636E+05 au^3   0.165428E+04 A^3
Pressure:                            0.596017E-05 au     0.175354E+09 Pa
>> Charges saved for restart in charges.bin

total energy  -1.9325539E+02 H       energy change -1.0559064E-03 H
gradient norm  2.4168587E-02 H/a0    max. gradient  4.8425461E-03 H/a0
step length    1.2812596E-01 a0      max. step      3.7526531E-02 a0

--------------------------------------------------------------------------------

***  Geometry step: 27

 iSCC Total electronic   Diff electronic      SCC error    
    1   -0.19516630E+03    0.00000000E+00    0.51733528E-02
    2   -0.19517001E+03   -0.37120219E-02    0.24167194E-02
    3   -0.19517003E+03   -0.22610178E-04    0.67226983E-03
    4   -0.19517004E+03   -0.33062386E-05    0.89645764E-04
    5   -0.19517004E+03   -0.16616872E-06    0.29350987E-04
    6   -0.19517004E+03   -0.45740194E-08    0.97570421E-05
    7   -0.19517004E+03   -0.68666850E-10    0.17529305E-05
    8   -0.19517004E+03   -0.44337867E-11    0.23841387E-06
    9   -0.19517004E+03   -0.90949470E-12    0.58398216E-07
   10   -0.19517004E+03   -0.14210855E-12    0.94086254E-08

Total Energy:                     -193.2562869196 H        -5258.7711 eV
Extrapolated to 0K:               -193.2562869196 H        -5258.7711 eV
Total Mermin free energy:         -193.2562869196 H        -5258.7711 eV
Force related energy:             -193.2562869196 H        -5258.7711 eV

Volume:                              0.111902E+05 au^3   0.165822E+04 A^3
Pressure:                            0.588463E-05 au     0.173132E+09 Pa
>> Charges saved for restart in charges.bin

total energy  -1.9325629E+02 H       energy change -8.9663786E-04 H
gradient norm  2.1345985E-02 H/a0    max. gradient  5.2378614E-03 H/a0
step length    1.4117828E-01 a0      max. step      3.8488593E-02 a0

--------------------------------------------------------------------------------

***  Geometry step: 28

 iSCC Total electronic   Diff electronic      SCC error    
    1   -0.19517004E+03    0.00000000E+00    0.50242457E-02
    2   -0.19517656E+03   -0.65292292E-02    0.29146910E-02
    3   -0.19517658E+03   -0.18215017E-04    0.53600800E-03
    4   -0.19517659E+03   -0.37132668E-05    0.97043974E-04
    5   -0.19517659E+03   -0.19265894E-06    0.20919905E-04
    6   -0.19517659E+03   -0.47459991E-08    0.80833997E-05
    7   -0.19517659E+03   -0.68638428E-10    0.20205744E-05
    8   -0.19517659E+03   -0.34958703E-11    0.29500997E-06
    9   -0.19517659E+03   -0.82422957E-12    0.55237992E-07
   10   -0.19517659E+03   -0.56843419E-13    0.72103412E-08

Total Energy:                     -193.2570282929 H        -5258.7913 eV
Extrapolated to 0K:               -193.2570282929 H        -5258.7913 eV
Total Mermin free energy:         -193.2570282929 H        -5258.7913 eV
Force related energy:             -193.2570282929 H        -5258.7913 eV

Volume:                              0.112167E+05 au^3   0.166214E+04 A^3
Pressure:                            0.697506E-05 au     0.205213E+09 Pa
>> Charges saved for restart in charges.bin

total energy  -1.9325703E+02 H       energy change -7.4137335E-04 H
gradient norm  1.7448502E-02 H/a0    max. gradient  4.8679769E-03 H/a0
step length    1.5367026E-01 a0      max. step      3.5863216E-02 a0

--------------------------------------------------------------------------------

***  Geometry step: 29

 iSCC Total electronic   Diff electronic      SCC error    
    1   -0.19517659E+03    0.00000000E+00    0.43189355E-02
    2   -0.19518177E+03   -0.51816062E-02    0.25034653E-02
    3   -0.19518178E+03   -0.95978850E-05    0.41920241E-03
    4   -0.19518178E+03   -0.21199151E-05    0.54292841E-04
    5   -0.19518178E+03   -0.97538305E-07    0.83998802E-05
    6   -0.19518178E+03   -0.21873063E-08    0.26707453E-05
    7   -0.19518178E+03   -0.25835334E-10    0.64495752E-06
    8   -0.19518178E+03   -0.68212103E-12    0.14640184E-06
    9   -0.19518178E+03   -0.17053026E-12    0.49075385E-07
   10   -0.19518178E+03   -0.85265128E-13    0.10459084E-07
   11   -0.19518178E+03    0.11368684E-12    0.15077743E-08

Total Energy:                     -193.2574890149 H        -5258.8038 eV
Extrapolated to 0K:               -193.2574890149 H        -5258.8038 eV
Total Mermin free energy:         -193.2574890149 H        -5258.8038 eV
Force related energy:             -193.2574890149 H        -5258.8038 eV

Volume:                              0.112335E+05 au^3   0.166463E+04 A^3
Pressure:                            0.830431E-05 au     0.244321E+09 Pa
>> Charges saved for restart in charges.bin

total energy  -1.9325749E+02 H       energy change -4.6072194E-04 H
gradient norm  1.5393804E-02 H/a0    max. gradient  5.7019417E-03 H/a0
step length    1.0994186E-01 a0      max. step      2.3665213E-02 a0

--------------------------------------------------------------------------------

***  Geometry step: 30

 iSCC Total electronic   Diff electronic      SCC error    
    1   -0.19518178E+03    0.00000000E+00    0.36701928E-02
    2   -0.19518423E+03   -0.24504705E-02    0.21010461E-02
    3   -0.19518424E+03   -0.72736862E-05    0.40317500E-03
    4   -0.19518424E+03   -0.14776788E-05    0.44976731E-04
    5   -0.19518424E+03   -0.63299268E-07    0.13217178E-04
    6   -0.19518424E+03   -0.16276260E-08    0.49485872E-05
    7   -0.19518424E+03   -0.19753088E-10    0.12506579E-05
    8   -0.19518424E+03   -0.65369932E-12    0.15337622E-06
    9   -0.19518424E+03   -0.22737368E-12    0.32111108E-07
   10   -0.19518424E+03    0.56843419E-13    0.57841580E-08

Total Energy:                     -193.2578867231 H        -5258.8147 eV
Extrapolated to 0K:               -193.2578867231 H        -5258.8147 eV
Total Mermin free energy:         -193.2578867231 H        -5258.8147 eV
Force related energy:             -193.2578867231 H        -5258.8147 eV

Volume:                              0.112457E+05 au^3   0.166644E+04 A^3
Pressure:                            0.877360E-05 au     0.258128E+09 Pa
>> Charges saved for restart in charges.bin

total energy  -1.9325789E+02 H       energy change -3.9770818E-04 H
gradient norm  1.4816536E-02 H/a0    max. gradient  5.7229993E-03 H/a0
step length    8.8560668E-02 a0      max. step      1.7985075E-02 a0

--------------------------------------------------------------------------------

***  Geometry step: 31

 iSCC Total electronic   Diff electronic      SCC error    
    1   -0.19518424E+03    0.00000000E+00    0.30503773E-02
    2   -0.19518327E+03    0.96581437E-03    0.17128143E-02
    3   -0.19518328E+03   -0.45693916E-05    0.30329846E-03
    4   -0.19518328E+03   -0.91592122E-06    0.50773413E-04
    5   -0.19518328E+03   -0.44013007E-07    0.18005924E-04
    6   -0.19518328E+03   -0.10089423E-08    0.36172505E-05
    7   -0.19518328E+03   -0.19582558E-10    0.76190878E-06
    8   -0.19518328E+03   -0.93791641E-12    0.10179921E-06
    9   -0.19518328E+03   -0.19895197E-12    0.17611191E-07
   10   -0.19518328E+03    0.00000000E+00    0.26418387E-08

Total Energy:                     -193.2582944172 H        -5258.8258 eV
Extrapolated to 0K:               -193.2582944172 H        -5258.8258 eV
Total Mermin free energy:         -193.2582944172 H        -5258.8258 eV
Force related energy:             -193.2582944172 H        -5258.8258 eV

Volume:                              0.112555E+05 au^3   0.166789E+04 A^3
Pressure:                            0.810545E-05 au     0.238470E+09 Pa
>> Charges saved for restart in charges.bin

total energy  -1.9325829E+02 H       energy change -4.0769417E-04 H
gradient norm  1.5314427E-02 H/a0    max. gradient  4.4494028E-03 H/a0
step length    8.2604447E-02 a0      max. step      1.5844436E-02 a0

--------------------------------------------------------------------------------

***  Geometry step: 32

 iSCC Total electronic   Diff electronic      SCC error    
    1   -0.19518328E+03    0.00000000E+00    0.35532794E-02
    2   -0.19517883E+03    0.44450325E-02    0.20189415E-02
    3   -0.19517884E+03   -0.56432352E-05    0.37444345E-03
    4   -0.19517884E+03   -0.11817382E-05    0.57706861E-04
    5   -0.19517884E+03   -0.55015818E-07    0.19651022E-04
    6   -0.19517884E+03   -0.19394975E-08    0.45539838E-05
    7   -0.19517884E+03   -0.42149395E-10    0.11293701E-05
    8   -0.19517884E+03   -0.18474111E-11    0.15047819E-06
    9   -0.19517884E+03   -0.36948222E-12    0.33559059E-07
   10   -0.19517884E+03   -0.56843419E-13    0.55174159E-08

Total Energy:                     -193.2587459679 H        -5258.8380 eV
Extrapolated to 0K:               -193.2587459679 H        -5258.8380 eV
Total Mermin free energy:         -193.2587459679 H        -5258.8380 eV
Force related energy:             -193.2587459679 H        -5258.8380 eV

Volume:                              0.112646E+05 au^3   0.166924E+04 A^3
Pressure:                            0.594016E-05 au     0.174765E+09 Pa
>> Charges saved for restart in charges.bin

total energy  -1.9325875E+02 H       energy change -4.5155062E-04 H
gradient norm  1.6382324E-02 H/a0    max. gradient  3.6368168E-03 H/a0
step length    9.7783800E-02 a0      max. step      2.2004238E-02 a0

--------------------------------------------------------------------------------

***  Geometry step: 33

 iSCC Total electronic   Diff electronic      SCC error    
    1   -0.19517884E+03    0.00000000E+00    0.28685275E-02
    2   -0.19517446E+03    0.43765155E-02    0.16757391E-02
    3   -0.19517447E+03   -0.54658396E-05    0.34147520E-03
    4   -0.19517447E+03   -0.10907544E-05    0.45568650E-04
    5   -0.19517447E+03   -0.54565731E-07    0.16948223E-04
    6   -0.19517447E+03   -0.16528645E-08    0.49181695E-05
    7   -0.19517447E+03   -0.35328185E-10    0.11337380E-05
    8   -0.19517447E+03   -0.16768809E-11    0.21584828E-06
    9   -0.19517447E+03   -0.14210855E-12    0.38665930E-07
   10   -0.19517447E+03   -0.56843419E-13    0.75851458E-08

Total Energy:                     -193.2592034512 H        -5258.8505 eV
Extrapolated to 0K:               -193.2592034512 H        -5258.8505 eV
Total Mermin free energy:         -193.2592034512 H        -5258.8505 eV
Force related energy:             -193.2592034512 H        -5258.8505 eV

Volume:                              0.112713E+05 au^3   0.167024E+04 A^3
Pressure:                            0.383758E-05 au     0.112905E+09 Pa
>> Charges saved for restart in charges.bin

total energy  -1.9325920E+02 H       energy change -4.5748338E-04 H
gradient norm  1.6702677E-02 H/a0    max. gradient  2.8817262E-03 H/a0
step length    1.0428652E-01 a0      max. step      2.5436927E-02 a0

--------------------------------------------------------------------------------

***  Geometry step: 34

 iSCC Total electronic   Diff electronic      SCC error    
    1   -0.19517447E+03    0.00000000E+00    0.32936404E-02
    2   -0.19517261E+03    0.18636736E-02    0.18957488E-02
    3   -0.19517262E+03   -0.86276379E-05    0.41510655E-03
    4   -0.19517262E+03   -0.15617024E-05    0.46676535E-04
    5   -0.19517262E+03   -0.71366543E-07    0.11830167E-04
    6   -0.19517262E+03   -0.20222330E-08    0.41918423E-05
    7   -0.19517262E+03   -0.23675284E-10    0.10418449E-05
    8   -0.19517262E+03   -0.12221335E-11    0.23768431E-06
    9   -0.19517262E+03   -0.11368684E-12    0.37784235E-07
   10   -0.19517262E+03    0.56843419E-13    0.58228160E-08

Total Energy:                     -193.2597357094 H        -5258.8650 eV
Extrapolated to 0K:               -193.2597357094 H        -5258.8650 eV
Total Mermin free energy:         -193.2597357094 H        -5258.8650 eV
Force related energy:             -193.2597357094 H        -5258.8650 eV

Volume:                              0.112783E+05 au^3   0.167128E+04 A^3
Pressure:                            0.235662E-05 au     0.693342E+08 Pa
>> Charges saved for restart in charges.bin

total energy  -1.9325974E+02 H       energy change -5.3225813E-04 H
gradient norm  1.7115948E-02 H/a0    max. gradient  3.8744189E-03 H/a0
step length    1.3153964E-01 a0      max. step      3.3121523E-02 a0

--------------------------------------------------------------------------------

***  Geometry step: 35

 iSCC Total electronic   Diff electronic      SCC error    
    1   -0.19517262E+03    0.00000000E+00    0.40882975E-02
    2   -0.19517512E+03   -0.24980548E-02    0.23321043E-02
    3   -0.19517513E+03   -0.97147069E-05    0.53644165E-03
    4   -0.19517513E+03   -0.16887529E-05    0.51894309E-04
    5   -0.19517513E+03   -0.71578029E-07    0.72930895E-05
    6   -0.19517513E+03   -0.21742323E-08    0.23977321E-05
    7   -0.19517513E+03   -0.18729907E-10    0.50535036E-06
    8   -0.19517513E+03   -0.90949470E-12    0.16724811E-06
    9   -0.19517513E+03   -0.17053026E-12    0.45778907E-07
   10   -0.19517513E+03    0.85265128E-13    0.86228154E-08

Total Energy:                     -193.2602721397 H        -5258.8796 eV
Extrapolated to 0K:               -193.2602721397 H        -5258.8796 eV
Total Mermin free energy:         -193.2602721397 H        -5258.8796 eV
Force related energy:             -193.2602721397 H        -5258.8796 eV

Volume:                              0.112861E+05 au^3   0.167243E+04 A^3
Pressure:                            0.235309E-05 au     0.692301E+08 Pa
>> Charges saved for restart in charges.bin

total energy  -1.9326027E+02 H       energy change -5.3643036E-04 H
gradient norm  1.6559536E-02 H/a0    max. gradient  5.3676276E-03 H/a0
step length    1.4361164E-01 a0      max. step      3.5039959E-02 a0

--------------------------------------------------------------------------------

***  Geometry step: 36

 iSCC Total electronic   Diff electronic      SCC error    
    1   -0.19517513E+03    0.00000000E+00    0.44047564E-02
    2   -0.19518145E+03   -0.63203906E-02    0.25163467E-02
    3   -0.19518146E+03   -0.86198190E-05    0.61279933E-03
    4   -0.19518146E+03   -0.14042259E-05    0.61387870E-04
    5   -0.19518146E+03   -0.60941517E-07    0.17654355E-04
    6   -0.19518146E+03   -0.27110616E-08    0.64588477E-05
    7   -0.19518146E+03   -0.44650506E-10    0.11449285E-05
    8   -0.19518146E+03   -0.23590019E-11    0.30448091E-06
    9   -0.19518146E+03   -0.22737368E-12    0.51303601E-07
   10   -0.19518146E+03    0.11368684E-12    0.63528276E-08

Total Energy:                     -193.2607483567 H        -5258.8925 eV
Extrapolated to 0K:               -193.2607483567 H        -5258.8925 eV
Total Mermin free energy:         -193.2607483567 H        -5258.8925 eV
Force related energy:             -193.2607483567 H        -5258.8925 eV

Volume:                              0.112946E+05 au^3   0.167368E+04 A^3
Pressure:                            0.396071E-05 au     0.116528E+09 Pa
>> Charges saved for restart in charges.bin

total energy  -1.9326075E+02 H       energy change -4.7621702E-04 H
gradient norm  1.6094181E-02 H/a0    max. gradient  5.8465197E-03 H/a0
step length    1.3686968E-01 a0      max. step      3.0269650E-02 a0

--------------------------------------------------------------------------------

***  Geometry step: 37

 iSCC Total electronic   Diff electronic      SCC error    
    1   -0.19518146E+03    0.00000000E+00    0.41669621E-02
    2   -0.19518865E+03   -0.71897701E-02    0.24079438E-02
    3   -0.19518866E+03   -0.11735739E-04    0.65441338E-03
    4   -0.19518866E+03   -0.18367532E-05    0.89686377E-04
    5   -0.19518866E+03   -0.69395327E-07    0.26017625E-04
    6   -0.19518866E+03   -0.43791033E-08    0.91548361E-05
    7   -0.19518866E+03   -0.80774498E-10    0.14741138E-05
    8   -0.19518866E+03   -0.36095571E-11    0.29633482E-06
    9   -0.19518866E+03   -0.14210855E-12    0.69156019E-07
   10   -0.19518866E+03   -0.17053026E-12    0.71153763E-08

Total Energy:                     -193.2612231750 H        -5258.9055 eV
Extrapolated to 0K:               -193.2612231750 H        -5258.9055 eV
Total Mermin free energy:         -193.2612231750 H        -5258.9055 eV
Force related energy:             -193.2612231750 H        -5258.9055 eV

Volume:                              0.113053E+05 au^3   0.167528E+04 A^3
Pressure:                            0.601084E-05 au     0.176845E+09 Pa
>> Charges saved for restart in charges.bin

total energy  -1.9326122E+02 H       energy change -4.7481823E-04 H
gradient norm  1.6058903E-02 H/a0    max. gradient  5.2665237E-03 H/a0
step length    1.4677226E-01 a0      max. step      2.9352807E-02 a0

--------------------------------------------------------------------------------

***  Geometry step: 38

 iSCC Total electronic   Diff electronic      SCC error    
    1   -0.19518866E+03    0.00000000E+00    0.36668616E-02
    2   -0.19519351E+03   -0.48449060E-02    0.17011592E-02
    3   -0.19519352E+03   -0.13387848E-04    0.52119822E-03
    4   -0.19519352E+03   -0.20279348E-05    0.95174307E-04
    5   -0.19519352E+03   -0.70955281E-07    0.30298339E-04
    6   -0.19519352E+03   -0.46441073E-08    0.10549176E-04
    7   -0.19519352E+03   -0.90381036E-10    0.16605322E-05
    8   -0.19519352E+03   -0.40643044E-11    0.25752555E-06
    9   -0.19519352E+03   -0.25579538E-12    0.59618836E-07
   10   -0.19519352E+03   -0.11368684E-12    0.78482238E-08

Total Energy:                     -193.2617116911 H        -5258.9187 eV
Extrapolated to 0K:               -193.2617116911 H        -5258.9187 eV
Total Mermin free energy:         -193.2617116911 H        -5258.9187 eV
Force related energy:             -193.2617116911 H        -5258.9187 eV

Volume:                              0.113173E+05 au^3   0.167706E+04 A^3
Pressure:                            0.706760E-05 au     0.207936E+09 Pa
>> Charges saved for restart in charges.bin

total energy  -1.9326171E+02 H       energy change -4.8851608E-04 H
gradient norm  1.6689964E-02 H/a0    max. gradient  4.2456146E-03 H/a0
step length    1.5138468E-01 a0      max. step      2.9942998E-02 a0

--------------------------------------------------------------------------------

***  Geometry step: 39

 iSCC Total electronic   Diff electronic      SCC error    
    1   -0.19519352E+03    0.00000000E+00    0.39247576E-02
    2   -0.19519607E+03   -0.25518921E-02    0.19185825E-02
    3   -0.19519609E+03   -0.17465938E-04    0.55583879E-03
    4   -0.19519609E+03   -0.24561199E-05    0.79426619E-04
    5   -0.19519609E+03   -0.10078500E-06    0.26885063E-04
    6   -0.19519609E+03   -0.55771920E-08    0.10124206E-04
    7   -0.19519609E+03   -0.81740836E-10    0.19998269E-05
    8   -0.19519609E+03   -0.35527137E-11    0.22919604E-06
    9   -0.19519609E+03   -0.42632564E-12    0.74748685E-07
   10   -0.19519609E+03    0.00000000E+00    0.12554314E-07
   11   -0.19519609E+03    0.00000000E+00    0.13617965E-08

Total Energy:                     -193.2623147569 H        -5258.9352 eV
Extrapolated to 0K:               -193.2623147569 H        -5258.9352 eV
Total Mermin free energy:         -193.2623147569 H        -5258.9352 eV
Force related energy:             -193.2623147569 H        -5258.9352 eV

Volume:                              0.113301E+05 au^3   0.167895E+04 A^3
Pressure:                            0.714965E-05 au     0.210350E+09 Pa
>> Charges saved for restart in charges.bin

total energy  -1.9326231E+02 H       energy change -6.0306580E-04 H
gradient norm  1.7627419E-02 H/a0    max. gradient  3.7089905E-03 H/a0
step length    1.8260167E-01 a0      max. step      3.7369838E-02 a0

--------------------------------------------------------------------------------

***  Geometry step: 40

 iSCC Total electronic   Diff electronic      SCC error    
    1   -0.19519609E+03    0.00000000E+00    0.37616880E-02
    2   -0.19519501E+03    0.10884761E-02    0.21477594E-02
    3   -0.19519502E+03   -0.18529992E-04    0.65637233E-03
    4   -0.19519503E+03   -0.23228062E-05    0.71263042E-04
    5   -0.19519503E+03   -0.12626944E-06    0.19064167E-04
    6   -0.19519503E+03   -0.46441357E-08    0.71398859E-05
    7   -0.19519503E+03   -0.50761173E-10    0.16623323E-05
    8   -0.19519503E+03   -0.29274361E-11    0.29365326E-06
    9   -0.19519503E+03   -0.48316906E-12    0.71390046E-07
   10   -0.19519503E+03    0.85265128E-13    0.11625813E-07
   11   -0.19519503E+03   -0.56843419E-13    0.14079653E-08

Total Energy:                     -193.2629468139 H        -5258.9524 eV
Extrapolated to 0K:               -193.2629468139 H        -5258.9524 eV
Total Mermin free energy:         -193.2629468139 H        -5258.9524 eV
Force related energy:             -193.2629468139 H        -5258.9524 eV

Volume:                              0.113411E+05 au^3   0.168057E+04 A^3
Pressure:                            0.626493E-05 au     0.184320E+09 Pa
>> Charges saved for restart in charges.bin

total energy  -1.9326295E+02 H       energy change -6.3205706E-04 H
gradient norm  1.7125875E-02 H/a0    max. gradient  4.6747078E-03 H/a0
step length    1.9489526E-01 a0      max. step      4.2958456E-02 a0

--------------------------------------------------------------------------------

***  Geometry step: 41

 iSCC Total electronic   Diff electronic      SCC error    
    1   -0.19519503E+03    0.00000000E+00    0.40711160E-02
    2   -0.19519051E+03    0.45183682E-02    0.17635154E-02
    3   -0.19519052E+03   -0.16542950E-04    0.55120169E-03
    4   -0.19519053E+03   -0.19254822E-05    0.60075623E-04
    5   -0.19519053E+03   -0.10451768E-06    0.19339227E-04
    6   -0.19519053E+03   -0.38252779E-08    0.66871940E-05
    7   -0.19519053E+03   -0.40756731E-10    0.17408444E-05
    8   -0.19519053E+03   -0.18474111E-11    0.33080939E-06
    9   -0.19519053E+03   -0.31263880E-12    0.69209517E-07
   10   -0.19519053E+03   -0.28421709E-13    0.80342506E-08

Total Energy:                     -193.2634537386 H        -5258.9661 eV
Extrapolated to 0K:               -193.2634537386 H        -5258.9661 eV
Total Mermin free energy:         -193.2634537386 H        -5258.9661 eV
Force related energy:             -193.2634537386 H        -5258.9661 eV

Volume:                              0.113493E+05 au^3   0.168180E+04 A^3
Pressure:                            0.421650E-05 au     0.124054E+09 Pa
>> Charges saved for restart in charges.bin

total energy  -1.9326345E+02 H       energy change -5.0692467E-04 H
gradient norm  1.5241402E-02 H/a0    max. gradient  4.6484744E-03 H/a0
step length    1.7021372E-01 a0      max. step      4.2203951E-02 a0

--------------------------------------------------------------------------------

***  Geometry step: 42

 iSCC Total electronic   Diff electronic      SCC error    
    1   -0.19519053E+03    0.00000000E+00    0.31289609E-02
    2   -0.19518723E+03    0.32959631E-02    0.16965950E-02
    3   -0.19518724E+03   -0.10437941E-04    0.53436066E-03
    4   -0.19518724E+03   -0.13391449E-05    0.58851897E-04
    5   -0.19518724E+03   -0.61349738E-07    0.95982578E-05
    6   -0.19518724E+03   -0.32066509E-08    0.38975425E-05
    7   -0.19518724E+03   -0.37744030E-10    0.86308200E-06
    8   -0.19518724E+03   -0.16484591E-11    0.23088107E-06
    9   -0.19518724E+03   -0.85265128E-13    0.60283231E-07
   10   -0.19518724E+03   -0.56843419E-13    0.69381265E-08

Total Energy:                     -193.2638256811 H        -5258.9763 eV
Extrapolated to 0K:               -193.2638256811 H        -5258.9763 eV
Total Mermin free energy:         -193.2638256811 H        -5258.9763 eV
Force related energy:             -193.2638256811 H        -5258.9763 eV

Volume:                              0.113545E+05 au^3   0.168257E+04 A^3
Pressure:                            0.289178E-05 au     0.850789E+08 Pa
>> Charges saved for restart in charges.bin

total energy  -1.9326383E+02 H       energy change -3.7194247E-04 H
gradient norm  1.3494361E-02 H/a0    max. gradient  2.8533066E-03 H/a0
step length    1.2551599E-01 a0      max. step      3.2661830E-02 a0

--------------------------------------------------------------------------------

***  Geometry step: 43

 iSCC Total electronic   Diff electronic      SCC error    
    1   -0.19518724E+03    0.00000000E+00    0.33437702E-02
    2   -0.19518561E+03    0.16363629E-02    0.18927850E-02
    3   -0.19518562E+03   -0.92804601E-05    0.49177542E-03
    4   -0.19518562E+03   -0.13729852E-05    0.66121850E-04
    5   -0.19518562E+03   -0.58076580E-07    0.16902301E-04
    6   -0.19518562E+03   -0.32370338E-08    0.67346780E-05
    7   -0.19518562E+03   -0.38511416E-10    0.12026702E-05
    8   -0.19518562E+03   -0.17337243E-11    0.23197868E-06
    9   -0.19518562E+03   -0.17053026E-12    0.47855857E-07
   10   -0.19518562E+03   -0.28421709E-13    0.54308522E-08

Total Energy:                     -193.2641675645 H        -5258.9856 eV
Extrapolated to 0K:               -193.2641675645 H        -5258.9856 eV
Total Mermin free energy:         -193.2641675645 H        -5258.9856 eV
Force related energy:             -193.2641675645 H        -5258.9856 eV

Volume:                              0.113610E+05 au^3   0.168352E+04 A^3
Pressure:                            0.188708E-05 au     0.555198E+08 Pa
>> Charges saved for restart in charges.bin

total energy  -1.9326417E+02 H       energy change -3.4188344E-04 H
gradient norm  1.3282426E-02 H/a0    max. gradient  3.0207324E-03 H/a0
step length    1.2070561E-01 a0      max. step      3.0126795E-02 a0

--------------------------------------------------------------------------------

***  Geometry step: 44

 iSCC Total electronic   Diff electronic      SCC error    
    1   -0.19518562E+03    0.00000000E+00    0.39055331E-02
    2   -0.19518732E+03   -0.17033775E-02    0.22477296E-02
    3   -0.19518733E+03   -0.73671878E-05    0.51286973E-03
    4   -0.19518733E+03   -0.12133341E-05    0.71069645E-04
    5   -0.19518733E+03   -0.58625233E-07    0.25161740E-04
    6   -0.19518733E+03   -0.35465462E-08    0.66431640E-05
    7   -0.19518733E+03   -0.45616844E-10    0.71985483E-06
    8   -0.19518733E+03   -0.29842795E-11    0.15906380E-06
    9   -0.19518733E+03   -0.14210855E-12    0.34837195E-07
   10   -0.19518733E+03   -0.56843419E-13    0.66371055E-08

Total Energy:                     -193.2645068865 H        -5258.9948 eV
Extrapolated to 0K:               -193.2645068865 H        -5258.9948 eV
Total Mermin free energy:         -193.2645068865 H        -5258.9948 eV
Force related energy:             -193.2645068865 H        -5258.9948 eV

Volume:                              0.113675E+05 au^3   0.168449E+04 A^3
Pressure:                            0.203222E-05 au     0.597901E+08 Pa
>> Charges saved for restart in charges.bin

total energy  -1.9326451E+02 H       energy change -3.3932197E-04 H
gradient norm  1.4072024E-02 H/a0    max. gradient  3.1586170E-03 H/a0
step length    1.2020636E-01 a0      max. step      2.7167497E-02 a0

--------------------------------------------------------------------------------

***  Geometry step: 45

 iSCC Total electronic   Diff electronic      SCC error    
    1   -0.19518733E+03    0.00000000E+00    0.34285387E-02
    2   -0.19519177E+03   -0.44422513E-02    0.20483878E-02
    3   -0.19519178E+03   -0.87876184E-05    0.49171595E-03
    4   -0.19519178E+03   -0.14501776E-05    0.88392273E-04
    5   -0.19519178E+03   -0.83515005E-07    0.30957960E-04
    6   -0.19519178E+03   -0.46286175E-08    0.76609020E-05
    7   -0.19519178E+03   -0.74237505E-10    0.82313958E-06
    8   -0.19519178E+03   -0.63380412E-11    0.28456845E-06
    9   -0.19519178E+03   -0.22737368E-12    0.61090250E-07
   10   -0.19519178E+03   -0.11368684E-12    0.83917646E-08

Total Energy:                     -193.2648915368 H        -5259.0053 eV
Extrapolated to 0K:               -193.2648915368 H        -5259.0053 eV
Total Mermin free energy:         -193.2648915368 H        -5259.0053 eV
Force related energy:             -193.2648915368 H        -5259.0053 eV

Volume:                              0.113753E+05 au^3   0.168565E+04 A^3
Pressure:                            0.294694E-05 au     0.867019E+08 Pa
>> Charges saved for restart in charges.bin

total energy  -1.9326489E+02 H       energy change -3.8465029E-04 H
gradient norm  1.4331901E-02 H/a0    max. gradient  3.5292119E-03 H/a0
step length    1.4934238E-01 a0      max. step      3.1125551E-02 a0

--------------------------------------------------------------------------------

***  Geometry step: 46

 iSCC Total electronic   Diff electronic      SCC error    
    1   -0.19519178E+03    0.00000000E+00    0.30565698E-02
    2   -0.19519630E+03   -0.45229791E-02    0.18128996E-02
    3   -0.19519631E+03   -0.82489358E-05    0.51710795E-03
    4   -0.19519631E+03   -0.10907092E-05    0.99168171E-04
    5   -0.19519631E+03   -0.73386417E-07    0.33560787E-04
    6   -0.19519631E+03   -0.33516017E-08    0.81102748E-05
    7   -0.19519631E+03   -0.72446937E-10    0.65057226E-06
    8   -0.19519631E+03   -0.63380412E-11    0.30476399E-06
    9   -0.19519631E+03   -0.22737368E-12    0.68412032E-07
   10   -0.19519631E+03   -0.28421709E-13    0.81539651E-08

Total Energy:                     -193.2652290819 H        -5259.0145 eV
Extrapolated to 0K:               -193.2652290819 H        -5259.0145 eV
Total Mermin free energy:         -193.2652290819 H        -5259.0145 eV
Force related energy:             -193.2652290819 H        -5259.0145 eV

Volume:                              0.113835E+05 au^3   0.168687E+04 A^3
Pressure:                            0.408990E-05 au     0.120329E+09 Pa
>> Charges saved for restart in charges.bin

total energy  -1.9326523E+02 H       energy change -3.3754519E-04 H
gradient norm  1.2881438E-02 H/a0    max. gradient  2.4503411E-03 H/a0
step length    1.5071179E-01 a0      max. step      3.0355101E-02 a0

--------------------------------------------------------------------------------

***  Geometry step: 47

 iSCC Total electronic   Diff electronic      SCC error    
    1   -0.19519631E+03    0.00000000E+00    0.29655865E-02
    2   -0.19519862E+03   -0.23052431E-02    0.14120217E-02
    3   -0.19519863E+03   -0.69441113E-05    0.48161226E-03
    4   -0.19519863E+03   -0.88192797E-06    0.10234679E-03
    5   -0.19519863E+03   -0.44853351E-07    0.31316802E-04
    6   -0.19519863E+03   -0.29545220E-08    0.77214830E-05
    7   -0.19519863E+03   -0.65966788E-10    0.56455176E-06
    8   -0.19519863E+03   -0.44337867E-11    0.19367008E-06
    9   -0.19519863E+03   -0.22737368E-12    0.54837265E-07
   10   -0.19519863E+03    0.56843419E-13    0.60036034E-08

Total Energy:                     -193.2655046656 H        -5259.0220 eV
Extrapolated to 0K:               -193.2655046656 H        -5259.0220 eV
Total Mermin free energy:         -193.2655046656 H        -5259.0220 eV
Force related energy:             -193.2655046656 H        -5259.0220 eV

Volume:                              0.113909E+05 au^3   0.168796E+04 A^3
Pressure:                            0.455850E-05 au     0.134116E+09 Pa
>> Charges saved for restart in charges.bin

total energy  -1.9326550E+02 H       energy change -2.7558364E-04 H
gradient norm  1.0667327E-02 H/a0    max. gradient  2.0575283E-03 H/a0
step length    1.3265876E-01 a0      max. step      2.9356485E-02 a0

--------------------------------------------------------------------------------

***  Geometry step: 48

 iSCC Total electronic   Diff electronic      SCC error    
    1   -0.19519863E+03    0.00000000E+00    0.35847037E-02
    2   -0.19519833E+03    0.29705817E-03    0.19810932E-02
    3   -0.19519833E+03   -0.53373317E-05    0.52615603E-03
    4   -0.19519834E+03   -0.77585236E-06    0.74057950E-04
    5   -0.19519834E+03   -0.30826186E-07    0.23131638E-04
    6   -0.19519834E+03   -0.23863436E-08    0.64917347E-05
    7   -0.19519834E+03   -0.54882321E-10    0.83695237E-06
    8   -0.19519834E+03   -0.22168933E-11    0.13042772E-06
    9   -0.19519834E+03   -0.17053026E-12    0.29704381E-07
   10   -0.19519834E+03    0.11368684E-12    0.57519429E-08

Total Energy:                     -193.2657025368 H        -5259.0273 eV
Extrapolated to 0K:               -193.2657025368 H        -5259.0273 eV
Total Mermin free energy:         -193.2657025368 H        -5259.0273 eV
Force related energy:             -193.2657025368 H        -5259.0273 eV

Volume:                              0.113967E+05 au^3   0.168882E+04 A^3
Pressure:                            0.417472E-05 au     0.122825E+09 Pa
>> Charges saved for restart in charges.bin

total energy  -1.9326570E+02 H       energy change -1.9787123E-04 H
gradient norm  9.3191319E-03 H/a0    max. gradient  1.9060735E-03 H/a0
step length    9.9281104E-02 a0      max. step      2.5249827E-02 a0

--------------------------------------------------------------------------------

***  Geometry step: 49

 iSCC Total electronic   Diff electronic      SCC error    
    1   -0.19519834E+03    0.00000000E+00    0.31845800E-02
    2   -0.19519683E+03    0.15085875E-02    0.18211158E-02
    3   -0.19519683E+03   -0.26115912E-05    0.43058532E-03
    4   -0.19519683E+03   -0.46515794E-06    0.36573413E-04
    5   -0.19519683E+03   -0.15549347E-07    0.83955857E-05
    6   -0.19519683E+03   -0.12442740E-08    0.28181898E-05
    7   -0.19519683E+03   -0.24272140E-10    0.55279000E-06
    8   -0.19519683E+03   -0.56843419E-12    0.13551286E-06
    9   -0.19519683E+03   -0.56843419E-13    0.24075459E-07
   10   -0.19519683E+03    0.85265128E-13    0.27068285E-08

Total Energy:                     -193.2658454950 H        -5259.0312 eV
Extrapolated to 0K:               -193.2658454950 H        -5259.0312 eV
Total Mermin free energy:         -193.2658454950 H        -5259.0312 eV
Force related energy:             -193.2658454950 H        -5259.0312 eV

Volume:                              0.113994E+05 au^3   0.168922E+04 A^3
Pressure:                            0.352761E-05 au     0.103786E+09 Pa
>> Charges saved for restart in charges.bin

total energy  -1.9326585E+02 H       energy change -1.4295815E-04 H
gradient norm  9.1044562E-03 H/a0    max. gradient  1.8241084E-03 H/a0
step length    5.8364804E-02 a0      max. step      1.7737598E-02 a0

--------------------------------------------------------------------------------

***  Geometry step: 50

 iSCC Total electronic   Diff electronic      SCC error    
    1   -0.19519683E+03    0.00000000E+00    0.34183203E-02
    2   -0.19519446E+03    0.23668117E-02    0.20174958E-02
    3   -0.19519447E+03   -0.43935199E-05    0.51765678E-03
    4   -0.19519447E+03   -0.78572404E-06    0.49159086E-04
    5   -0.19519447E+03   -0.23349145E-07    0.85890914E-05
    6   -0.19519447E+03   -0.14359216E-08    0.33244979E-05
    7   -0.19519447E+03   -0.28904878E-10    0.78798538E-06
    8   -0.19519447E+03   -0.79580786E-12    0.19186673E-06
    9   -0.19519447E+03   -0.28421709E-13    0.47830941E-07
   10   -0.19519447E+03    0.00000000E+00    0.53023794E-08

Total Energy:                     -193.2660124650 H        -5259.0358 eV
Extrapolated to 0K:               -193.2660124650 H        -5259.0358 eV
Total Mermin free energy:         -193.2660124650 H        -5259.0358 eV
Force related energy:             -193.2660124650 H        -5259.0358 eV

Volume:                              0.114022E+05 au^3   0.168963E+04 A^3
Pressure:                            0.249018E-05 au     0.732636E+08 Pa
>> Charges saved for restart in charges.bin

total energy  -1.9326601E+02 H       energy change -1.6697001E-04 H
gradient norm  9.8055157E-03 H/a0    max. gradient  1.7508396E-03 H/a0
[...]
gradient norm  8.8675255E-04 H/a0    max. gradient  2.0544239E-04 H/a0
step length    2.2984599E-03 a0      max. step      4.8965124E-04 a0

--------------------------------------------------------------------------------

***  Geometry step: 178

 iSCC Total electronic   Diff electronic      SCC error    
    1   -0.19518534E+03    0.00000000E+00    0.20645552E-03
    2   -0.19518561E+03   -0.26446729E-03    0.12206654E-03
    3   -0.19518561E+03   -0.30972615E-07    0.35539568E-04
    4   -0.19518561E+03   -0.47801620E-08    0.35588803E-05
    5   -0.19518561E+03   -0.15850787E-09    0.12898766E-05
    6   -0.19518561E+03   -0.42632564E-11    0.25863692E-06
    7   -0.19518561E+03   -0.11368684E-12    0.28927666E-07
    8   -0.19518561E+03   -0.28421709E-13    0.50627600E-08

Total Energy:                     -193.2761040865 H        -5259.3104 eV
Extrapolated to 0K:               -193.2761040865 H        -5259.3104 eV
Total Mermin free energy:         -193.2761040865 H        -5259.3104 eV
Force related energy:             -193.2761040865 H        -5259.3104 eV

Volume:                              0.111779E+05 au^3   0.165639E+04 A^3
Pressure:                            0.379352E-07 au     0.111609E+07 Pa
>> Charges saved for restart in charges.bin

total energy  -1.9327610E+02 H       energy change -1.4287691E-06 H
gradient norm  1.0490753E-03 H/a0    max. gradient  3.6075810E-04 H/a0
step length    5.2618712E-03 a0      max. step      1.0080426E-03 a0

--------------------------------------------------------------------------------

***  Geometry step: 179

 iSCC Total electronic   Diff electronic      SCC error    
    1   -0.19518561E+03    0.00000000E+00    0.23592225E-03
    2   -0.19518593E+03   -0.31742455E-03    0.11144988E-03
    3   -0.19518593E+03   -0.48799848E-07    0.34549097E-04
    4   -0.19518593E+03   -0.65201391E-08    0.28780545E-05
    5   -0.19518593E+03   -0.17368507E-09    0.10656953E-05
    6   -0.19518593E+03   -0.63096195E-11    0.21174821E-06
    7   -0.19518593E+03   -0.11368684E-12    0.26073216E-07
    8   -0.19518593E+03    0.28421709E-13    0.68820856E-08

Total Energy:                     -193.2761061298 H        -5259.3104 eV
Extrapolated to 0K:               -193.2761061298 H        -5259.3104 eV
Total Mermin free energy:         -193.2761061298 H        -5259.3104 eV
Force related energy:             -193.2761061298 H        -5259.3104 eV

Volume:                              0.111771E+05 au^3   0.165627E+04 A^3
Pressure:                            0.186156E-06 au     0.547690E+07 Pa
>> Charges saved for restart in charges.bin

total energy  -1.9327611E+02 H       energy change -2.0432915E-06 H
gradient norm  1.3180369E-03 H/a0    max. gradient  5.3973982E-04 H/a0
step length    9.3503739E-03 a0      max. step      1.8245059E-03 a0

--------------------------------------------------------------------------------

***  Geometry step: 180

 iSCC Total electronic   Diff electronic      SCC error    
    1   -0.19518593E+03    0.00000000E+00    0.34222591E-03
    2   -0.19518607E+03   -0.14574634E-03    0.13769410E-03
    3   -0.19518607E+03   -0.61714388E-07    0.40304547E-04
    4   -0.19518607E+03   -0.79484721E-08    0.33134274E-05
    5   -0.19518607E+03   -0.27660008E-09    0.10674025E-05
    6   -0.19518607E+03   -0.10572876E-10    0.30910831E-06
    7   -0.19518607E+03   -0.11368684E-12    0.64080005E-07
    8   -0.19518607E+03   -0.14210855E-12    0.14441972E-07
    9   -0.19518607E+03    0.85265128E-13    0.26427460E-08

Total Energy:                     -193.2761086411 H        -5259.3105 eV
Extrapolated to 0K:               -193.2761086411 H        -5259.3105 eV
Total Mermin free energy:         -193.2761086411 H        -5259.3105 eV
Force related energy:             -193.2761086411 H        -5259.3105 eV

Volume:                              0.111764E+05 au^3   0.165617E+04 A^3
Pressure:                            0.259135E-06 au     0.762401E+07 Pa
>> Charges saved for restart in charges.bin

total energy  -1.9327611E+02 H       energy change -2.5112668E-06 H
gradient norm  1.4117436E-03 H/a0    max. gradient  4.9790121E-04 H/a0
step length    1.2764021E-02 a0      max. step      2.4962232E-03 a0

--------------------------------------------------------------------------------

***  Geometry step: 181

 iSCC Total electronic   Diff electronic      SCC error    
    1   -0.19518607E+03    0.00000000E+00    0.38969741E-03
    2   -0.19518608E+03   -0.25295278E-05    0.14169321E-03
    3   -0.19518608E+03   -0.88172982E-07    0.45587446E-04
    4   -0.19518608E+03   -0.10908963E-07    0.37478056E-05
    5   -0.19518608E+03   -0.36752112E-09    0.14777269E-05
    6   -0.19518608E+03   -0.13017143E-10    0.38264726E-06
    7   -0.19518608E+03   -0.25579538E-12    0.75471439E-07
    8   -0.19518608E+03   -0.11368684E-12    0.13886452E-07
    9   -0.19518608E+03    0.56843419E-13    0.27631901E-08

Total Energy:                     -193.2761114256 H        -5259.3106 eV
Extrapolated to 0K:               -193.2761114256 H        -5259.3106 eV
Total Mermin free energy:         -193.2761114256 H        -5259.3106 eV
Force related energy:             -193.2761114256 H        -5259.3106 eV

Volume:                              0.111760E+05 au^3   0.165611E+04 A^3
Pressure:                            0.312251E-06 au     0.918673E+07 Pa
>> Charges saved for restart in charges.bin

total energy  -1.9327611E+02 H       energy change -2.7845644E-06 H
gradient norm  1.1933902E-03 H/a0    max. gradient  2.9126294E-04 H/a0
step length    1.7592257E-02 a0      max. step      3.4016162E-03 a0

--------------------------------------------------------------------------------

***  Geometry step: 182

 iSCC Total electronic   Diff electronic      SCC error    
    1   -0.19518608E+03    0.00000000E+00    0.33405881E-03
    2   -0.19518562E+03    0.45473991E-03    0.18916187E-03
    3   -0.19518562E+03   -0.93565006E-07    0.61397713E-04
    4   -0.19518562E+03   -0.11441045E-07    0.49308711E-05
    5   -0.19518562E+03   -0.28933300E-09    0.56333240E-06
    6   -0.19518562E+03   -0.15319301E-10    0.20027822E-06
    7   -0.19518562E+03   -0.31263880E-12    0.50989732E-07
    8   -0.19518562E+03    0.56843419E-13    0.11116895E-07
    9   -0.19518562E+03    0.00000000E+00    0.37578918E-08

Total Energy:                     -193.2761135028 H        -5259.3106 eV
Extrapolated to 0K:               -193.2761135028 H        -5259.3106 eV
Total Mermin free energy:         -193.2761135028 H        -5259.3106 eV
Force related energy:             -193.2761135028 H        -5259.3106 eV

Volume:                              0.111764E+05 au^3   0.165617E+04 A^3
Pressure:                            0.136619E-06 au     0.401946E+07 Pa
>> Charges saved for restart in charges.bin

total energy  -1.9327611E+02 H       energy change -2.0771595E-06 H
gradient norm  9.0090953E-04 H/a0    max. gradient  2.3861246E-04 H/a0
step length    1.5213294E-02 a0      max. step      3.0100346E-03 a0

--------------------------------------------------------------------------------

***  Geometry step: 183

 iSCC Total electronic   Diff electronic      SCC error    
    1   -0.19518562E+03    0.00000000E+00    0.26026515E-03
    2   -0.19518538E+03    0.23885823E-03    0.11400077E-03
    3   -0.19518538E+03   -0.43338218E-07    0.32267773E-04
    4   -0.19518538E+03   -0.66728205E-08    0.25729930E-05
    5   -0.19518538E+03   -0.14566126E-09    0.48640503E-06
    6   -0.19518538E+03   -0.63096195E-11    0.17285950E-06
    7   -0.19518538E+03   -0.85265128E-13    0.32927520E-07
    8   -0.19518538E+03    0.00000000E+00    0.63887069E-08

Total Energy:                     -193.2761145271 H        -5259.3107 eV
Extrapolated to 0K:               -193.2761145271 H        -5259.3107 eV
Total Mermin free energy:         -193.2761145271 H        -5259.3107 eV
Force related energy:             -193.2761145271 H        -5259.3107 eV

Volume:                              0.111766E+05 au^3   0.165621E+04 A^3
Pressure:                            0.189654E-07 au     0.557980E+06 Pa
>> Charges saved for restart in charges.bin

total energy  -1.9327611E+02 H       energy change -1.0242864E-06 H
gradient norm  6.9195243E-04 H/a0    max. gradient  1.8141381E-04 H/a0
step length    4.0026354E-03 a0      max. step      8.5104784E-04 a0

--------------------------------------------------------------------------------

***  Geometry step: 184

 iSCC Total electronic   Diff electronic      SCC error    
    1   -0.19518538E+03    0.00000000E+00    0.16973855E-03
    2   -0.19518521E+03    0.17460022E-03    0.88754880E-04
    3   -0.19518521E+03   -0.22987024E-07    0.24773504E-04
    4   -0.19518521E+03   -0.36812935E-08    0.33338913E-05
    5   -0.19518521E+03   -0.10359713E-09    0.10684522E-05
    6   -0.19518521E+03   -0.40643044E-11    0.31836846E-06
    7   -0.19518521E+03   -0.19895197E-12    0.31029295E-07
    8   -0.19518521E+03   -0.28421709E-13    0.42492809E-08

Total Energy:                     -193.2761152415 H        -5259.3107 eV
Extrapolated to 0K:               -193.2761152415 H        -5259.3107 eV
Total Mermin free energy:         -193.2761152415 H        -5259.3107 eV
Force related energy:             -193.2761152415 H        -5259.3107 eV

Volume:                              0.111769E+05 au^3   0.165625E+04 A^3
Pressure:                           -0.715305E-07 au    -0.210450E+07 Pa
>> Charges saved for restart in charges.bin

total energy  -1.9327612E+02 H       energy change -7.1444055E-07 H
gradient norm  6.4738420E-04 H/a0    max. gradient  1.3552507E-04 H/a0
step length    3.7824097E-03 a0      max. step      9.1443365E-04 a0

--------------------------------------------------------------------------------

***  Geometry step: 185

 iSCC Total electronic   Diff electronic      SCC error    
    1   -0.19518521E+03    0.00000000E+00    0.14617351E-03
    2   -0.19518521E+03   -0.40332865E-05    0.84968609E-04
    3   -0.19518521E+03   -0.83623490E-08    0.13824684E-04
    4   -0.19518521E+03   -0.17838602E-08    0.17583903E-05
    5   -0.19518521E+03   -0.92626351E-10    0.62380068E-06
    6   -0.19518521E+03   -0.23305802E-11    0.14796000E-06
    7   -0.19518521E+03    0.28421709E-13    0.14504339E-07
    8   -0.19518521E+03    0.28421709E-13    0.44997939E-08

Total Energy:                     -193.2761158480 H        -5259.3107 eV
Extrapolated to 0K:               -193.2761158480 H        -5259.3107 eV
Total Mermin free energy:         -193.2761158480 H        -5259.3107 eV
Force related energy:             -193.2761158480 H        -5259.3107 eV

Volume:                              0.111770E+05 au^3   0.165626E+04 A^3
Pressure:                           -0.838401E-07 au    -0.246666E+07 Pa
>> Charges saved for restart in charges.bin

total energy  -1.9327612E+02 H       energy change -6.0647801E-07 H
gradient norm  6.0707308E-04 H/a0    max. gradient  1.3644158E-04 H/a0
step length    1.7899207E-03 a0      max. step      3.6678748E-04 a0

--------------------------------------------------------------------------------

***  Geometry step: 186

 iSCC Total electronic   Diff electronic      SCC error    
    1   -0.19518521E+03    0.00000000E+00    0.18986740E-03
    2   -0.19518526E+03   -0.45756082E-04    0.11319177E-03
    3   -0.19518526E+03   -0.23916726E-07    0.26036873E-04
    4   -0.19518526E+03   -0.43624198E-08    0.38273771E-05
    5   -0.19518526E+03   -0.24004976E-09    0.13377028E-05
    6   -0.19518526E+03   -0.73043793E-11    0.32927649E-06
    7   -0.19518526E+03   -0.22737368E-12    0.36350786E-07
    8   -0.19518526E+03    0.28421709E-13    0.74497670E-08

Total Energy:                     -193.2761168363 H        -5259.3107 eV
Extrapolated to 0K:               -193.2761168363 H        -5259.3107 eV
Total Mermin free energy:         -193.2761168363 H        -5259.3107 eV
Force related energy:             -193.2761168363 H        -5259.3107 eV

Volume:                              0.111771E+05 au^3   0.165628E+04 A^3
Pressure:                           -0.895236E-07 au    -0.263387E+07 Pa
>> Charges saved for restart in charges.bin

total energy  -1.9327612E+02 H       energy change -9.8828889E-07 H
gradient norm  6.9114630E-04 H/a0    max. gradient  1.4752857E-04 H/a0
step length    5.0595302E-03 a0      max. step      9.8271942E-04 a0

--------------------------------------------------------------------------------

***  Geometry step: 187

 iSCC Total electronic   Diff electronic      SCC error    
    1   -0.19518526E+03    0.00000000E+00    0.17107956E-03
    2   -0.19518535E+03   -0.88128282E-04    0.99572300E-04
    3   -0.19518535E+03   -0.17814841E-07    0.27077878E-04
    4   -0.19518535E+03   -0.27063436E-08    0.22931009E-05
    5   -0.19518535E+03   -0.11544898E-09    0.74261256E-06
    6   -0.19518535E+03   -0.45190518E-11    0.20247623E-06
    7   -0.19518535E+03   -0.56843419E-13    0.24532255E-07
    8   -0.19518535E+03   -0.85265128E-13    0.39049652E-08

Total Energy:                     -193.2761177879 H        -5259.3108 eV
Extrapolated to 0K:               -193.2761177879 H        -5259.3108 eV
Total Mermin free energy:         -193.2761177879 H        -5259.3108 eV
Force related energy:             -193.2761177879 H        -5259.3108 eV

Volume:                              0.111771E+05 au^3   0.165628E+04 A^3
Pressure:                           -0.589188E-07 au    -0.173345E+07 Pa
>> Charges saved for restart in charges.bin

total energy  -1.9327612E+02 H       energy change -9.5160397E-07 H
gradient norm  8.1373708E-04 H/a0    max. gradient  2.0170127E-04 H/a0
step length    6.1434128E-03 a0      max. step      1.3727416E-03 a0

--------------------------------------------------------------------------------

***  Geometry step: 188

 iSCC Total electronic   Diff electronic      SCC error    
    1   -0.19518535E+03    0.00000000E+00    0.23720960E-03
    2   -0.19518549E+03   -0.14256636E-03    0.13460077E-03
    3   -0.19518549E+03   -0.36585220E-07    0.40166015E-04
    4   -0.19518549E+03   -0.49537050E-08    0.30060899E-05
    5   -0.19518549E+03   -0.14702550E-09    0.40215060E-06
    6   -0.19518549E+03   -0.67643668E-11    0.14776685E-06
    7   -0.19518549E+03   -0.14210855E-12    0.38276697E-07
    8   -0.19518549E+03    0.85265128E-13    0.90354955E-08

Total Energy:                     -193.2761191427 H        -5259.3108 eV
Extrapolated to 0K:               -193.2761191427 H        -5259.3108 eV
Total Mermin free energy:         -193.2761191427 H        -5259.3108 eV
Force related energy:             -193.2761191427 H        -5259.3108 eV

Volume:                              0.111771E+05 au^3   0.165628E+04 A^3
Pressure:                           -0.160024E-08 au    -0.470807E+05 Pa
>> Charges saved for restart in charges.bin

total energy  -1.9327612E+02 H       energy change -1.3547493E-06 H
gradient norm  8.5009888E-04 H/a0    max. gradient  2.2549307E-04 H/a0
step length    9.6156177E-03 a0      max. step      2.1551892E-03 a0

--------------------------------------------------------------------------------

***  Geometry step: 189

 iSCC Total electronic   Diff electronic      SCC error    
    1   -0.19518549E+03    0.00000000E+00    0.17443253E-03
    2   -0.19518553E+03   -0.44211499E-04    0.93779401E-04
    3   -0.19518553E+03   -0.30916425E-07    0.27810340E-04
    4   -0.19518553E+03   -0.47454307E-08    0.20964208E-05
    5   -0.19518553E+03   -0.13201884E-09    0.47513765E-06
    6   -0.19518553E+03   -0.60822458E-11    0.17433866E-06
    7   -0.19518553E+03    0.28421709E-13    0.50186778E-07
    8   -0.19518553E+03   -0.11368684E-12    0.68720416E-08

Total Energy:                     -193.2761203495 H        -5259.3108 eV
Extrapolated to 0K:               -193.2761203495 H        -5259.3108 eV
Total Mermin free energy:         -193.2761203495 H        -5259.3108 eV
Force related energy:             -193.2761203495 H        -5259.3108 eV

Volume:                              0.111772E+05 au^3   0.165629E+04 A^3
Pressure:                            0.243268E-07 au     0.715719E+06 Pa
>> Charges saved for restart in charges.bin

total energy  -1.9327612E+02 H       energy change -1.2068301E-06 H
gradient norm  7.4380747E-04 H/a0    max. gradient  1.5032559E-04 H/a0
step length    1.1322681E-02 a0      max. step      2.2460213E-03 a0

--------------------------------------------------------------------------------

***  Geometry step: 190

 iSCC Total electronic   Diff electronic      SCC error    
    1   -0.19518553E+03    0.00000000E+00    0.21894189E-03
    2   -0.19518544E+03    0.94980326E-04    0.12681495E-03
    3   -0.19518544E+03   -0.30076620E-07    0.37486611E-04
    4   -0.19518544E+03   -0.44802846E-08    0.35068880E-05
    5   -0.19518544E+03   -0.17550406E-09    0.11124566E-05
    6   -0.19518544E+03   -0.77591267E-11    0.33815581E-06
    7   -0.19518544E+03   -0.17053026E-12    0.58862530E-07
    8   -0.19518544E+03   -0.56843419E-13    0.49025122E-08

Total Energy:                     -193.2761212310 H        -5259.3108 eV
Extrapolated to 0K:               -193.2761212310 H        -5259.3108 eV
Total Mermin free energy:         -193.2761212310 H        -5259.3108 eV
Force related energy:             -193.2761212310 H        -5259.3108 eV

Volume:                              0.111772E+05 au^3   0.165629E+04 A^3
Pressure:                           -0.187813E-07 au    -0.552564E+06 Pa
>> Charges saved for restart in charges.bin

total energy  -1.9327612E+02 H       energy change -8.8150267E-07 H
gradient norm  5.6673308E-04 H/a0    max. gradient  1.0559892E-04 H/a0
step length    1.3169032E-02 a0      max. step      2.6767372E-03 a0

--------------------------------------------------------------------------------

***  Geometry step: 191

 iSCC Total electronic   Diff electronic      SCC error    
    1   -0.19518544E+03    0.00000000E+00    0.10846657E-03
    2   -0.19518539E+03    0.44999324E-04    0.62889733E-04
    3   -0.19518539E+03   -0.69458963E-08    0.15128951E-04
    4   -0.19518539E+03   -0.13473596E-08    0.14961484E-05
    5   -0.19518539E+03   -0.60282446E-10    0.44600566E-06
    6   -0.19518539E+03   -0.16200374E-11    0.13051620E-06
    7   -0.19518539E+03   -0.85265128E-13    0.14411680E-07
    8   -0.19518539E+03    0.28421709E-13    0.22901530E-08

Total Energy:                     -193.2761216284 H        -5259.3109 eV
Extrapolated to 0K:               -193.2761216284 H        -5259.3109 eV
Total Mermin free energy:         -193.2761216284 H        -5259.3109 eV
Force related energy:             -193.2761216284 H        -5259.3109 eV

Volume:                              0.111773E+05 au^3   0.165630E+04 A^3
Pressure:                           -0.287549E-07 au    -0.845998E+06 Pa
>> Charges saved for restart in charges.bin

total energy  -1.9327612E+02 H       energy change -3.9736594E-07 H
gradient norm  4.7464246E-04 H/a0    max. gradient  9.0901353E-05 H/a0
step length    1.2027290E-03 a0      max. step      2.6202613E-04 a0

Geometry converged

--------------------------------------------------------------------------------
DFTB+ running times                          cpu [s]             wall clock [s]
--------------------------------------------------------------------------------
Pre-SCC initialisation                 +       6.50 (  0.2%)       3.15 (  0.8%)
SCC                                    +    2749.65 ( 92.6%)     361.95 ( 90.7%)
Post-SCC processing                    +     214.53 (  7.2%)      33.77 (  8.5%)
--------------------------------------------------------------------------------
Missing                                +       0.18 (  0.0%)       0.01 (  0.0%)
Total                                  =    2970.87 (100.0%)     398.88 (100.0%)
--------------------------------------------------------------------------------
