|===============================================================================
|
|  DFTB+ release 24.1
|
|  Copyright (C) 2006 - 2024  DFTB+ developers group
|
|===============================================================================
|
|  When publishing results obtained with DFTB+, please cite the following
|  reference:
|
|  * DFTB+, a software package for efficient approximate density functional
|    theory based atomistic simulations, J. Chem. Phys. 152, 124101 (2020).
|    [doi: 10.1063/1.5143190]
|
|  You should also cite additional publications crediting the parametrization
|  data you use. Please consult the documentation of the SK-files for the
|  references.
|
|===============================================================================

Reading input file 'dftb_in.hsd'
Parser version: 14

--------------------------------------------------------------------------------
Reading SK-files:
./SKFiles/Si-Si.skf
./SKFiles/Si-Ge.skf
./SKFiles/Si-O.skf
./SKFiles/Ge-Ge.skf
./SKFiles/Ge-O.skf
./SKFiles/O-O.skf
Done.


Processed input in HSD format written to 'dftb_pin.hsd'

Starting initialization...
--------------------------------------------------------------------------------
WARNING!
-> Dipole printed for extended system : value printed is not well defined
MPI processes:               1
OpenMP threads:              8
BLACS orbital grid size:     1 x 1
BLACS atom grid size:        1 x 1
Chosen random seed:          144123986
Current stacksize:           unlimited
Mode:                        Static calculation
Self consistent charges:     Yes
SCC-tolerance:                 0.100000E-07
Max. scc iterations:                    500
Shell resolved Hubbard:      No
Spin polarisation:           No
Nr. of up electrons:           192.000000
Nr. of down electrons:         192.000000
Periodic boundaries:         Yes
Electronic solver:           Relatively robust
Mixer:                       Broyden mixer
Mixing parameter:                  0.200000
Maximal SCC-cycles:                     500
Nr. of chrg. vec. in memory:            500
Electronic temperature:              0.100000E-07 H      0.272114E-06 eV
Initial charges:             Set automatically (system chrg:   0.000E+00)
Included shells:            Si:  s, p, d
                            Ge:  s, p, d
                             O:  s, p
K-points and weights:           1:  0.500000  0.500000  0.500000     1.000000

K-points in absolute space:     1:  0.025319  0.017606  0.037774

Extra options:
                             Mulliken analysis
Force type                   original

--------------------------------------------------------------------------------

***  Geometry step: 0

 iSCC Total electronic   Diff electronic      SCC error    
    1    0.00000000E+00    0.00000000E+00    0.14262473E+01
    2   -0.19732293E+03   -0.19732293E+03    0.97909688E+00
    3   -0.19766601E+03   -0.34308649E+00    0.37892215E-01
    4   -0.19795457E+03   -0.28855260E+00    0.32657092E-01
    5   -0.19795628E+03   -0.17178501E-02    0.46631509E-02
    6   -0.19795640E+03   -0.11938218E-03    0.13584620E-02
    7   -0.19795641E+03   -0.48119627E-05    0.35551529E-03
    8   -0.19795641E+03   -0.66742885E-06    0.45232119E-04
    9   -0.19795641E+03   -0.50970755E-07    0.19677021E-04
   10   -0.19795641E+03   -0.28074965E-09    0.32227130E-05
   11   -0.19795641E+03   -0.77108098E-10    0.30287836E-06
   12   -0.19795641E+03   -0.44622084E-11    0.11912194E-06
   13   -0.19795641E+03    0.28421709E-13    0.15041863E-07
   14   -0.19795641E+03    0.28421709E-13    0.26916998E-08

Total Energy:                     -190.4263495312 H        -5181.7646 eV
Extrapolated to 0K:               -190.4263495312 H        -5181.7646 eV
Total Mermin free energy:         -190.4263495312 H        -5181.7646 eV
Force related energy:             -190.4263495312 H        -5181.7646 eV

Volume:                              0.913789E+04 au^3   0.135410E+04 A^3
Pressure:                            0.249188E-02 au     0.733136E+11 Pa
>> Charges saved for restart in charges.bin

total energy  -1.9042635E+02 H       energy change -1.9042635E+02 H
gradient norm  2.2559665E+00 H/a0    max. gradient  1.3923563E+00 H/a0
step length    0.0000000E+00 a0      max. step      0.0000000E+00 a0

--------------------------------------------------------------------------------

***  Geometry step: 1

 iSCC Total electronic   Diff electronic      SCC error    
    1   -0.19795641E+03    0.00000000E+00    0.13971877E+00
    2   -0.19728072E+03    0.67568883E+00    0.63175986E-01
    3   -0.19729669E+03   -0.15966773E-01    0.20229976E-01
    4   -0.19729956E+03   -0.28740422E-02    0.21892366E-02
    5   -0.19729964E+03   -0.77579150E-04    0.75705942E-03
    6   -0.19729964E+03   -0.41990002E-05    0.22957710E-03
    7   -0.19729964E+03   -0.14055152E-06    0.29043364E-04
    8   -0.19729964E+03   -0.17759646E-07    0.69385280E-05
    9   -0.19729964E+03   -0.93990593E-09    0.26641179E-05
   10   -0.19729964E+03   -0.18246737E-10    0.69023379E-06
   11   -0.19729964E+03   -0.54001248E-12    0.11513708E-06
   12   -0.19729964E+03   -0.31263880E-12    0.28543166E-07
   13   -0.19729964E+03   -0.28421709E-13    0.41747690E-08

Total Energy:                     -191.1311135502 H        -5200.9422 eV
Extrapolated to 0K:               -191.1311135502 H        -5200.9422 eV
Total Mermin free energy:         -191.1311135502 H        -5200.9422 eV
Force related energy:             -191.1311135502 H        -5200.9422 eV

Volume:                              0.969148E+04 au^3   0.143613E+04 A^3
Pressure:                            0.178648E-02 au     0.525599E+11 Pa
>> Charges saved for restart in charges.bin

total energy  -1.9113111E+02 H       energy change -7.0476402E-01 H
gradient norm  1.4593266E+00 H/a0    max. gradient  2.7949495E-01 H/a0
step length    8.0263200E-01 a0      max. step      4.9537515E-01 a0

--------------------------------------------------------------------------------

***  Geometry step: 2

 iSCC Total electronic   Diff electronic      SCC error    
    1   -0.19729964E+03    0.00000000E+00    0.53939703E-01
    2   -0.19695039E+03    0.34925049E+00    0.25370299E-01
    3   -0.19695401E+03   -0.36151497E-02    0.62802953E-02
    4   -0.19695472E+03   -0.71725642E-03    0.10366436E-02
    5   -0.19695474E+03   -0.18316727E-04    0.23859997E-03
    6   -0.19695474E+03   -0.13331523E-05    0.12058092E-03
    7   -0.19695474E+03   -0.22824878E-07    0.21606234E-04
    8   -0.19695474E+03   -0.24029418E-08    0.35546646E-05
    9   -0.19695474E+03   -0.21114488E-09    0.14595502E-05
   10   -0.19695474E+03   -0.28990144E-11    0.48933441E-06
   11   -0.19695474E+03   -0.14210855E-12    0.75484018E-07
   12   -0.19695474E+03    0.56843419E-13    0.16857317E-07
   13   -0.19695474E+03   -0.28421709E-13    0.22800721E-08

Total Energy:                     -191.9214209525 H        -5222.4476 eV
Extrapolated to 0K:               -191.9214209525 H        -5222.4476 eV
Total Mermin free energy:         -191.9214209525 H        -5222.4476 eV
Force related energy:             -191.9214209525 H        -5222.4476 eV

Volume:                              0.983388E+04 au^3   0.145723E+04 A^3
Pressure:                            0.132194E-02 au     0.388929E+11 Pa
>> Charges saved for restart in charges.bin

total energy  -1.9192142E+02 H       energy change -7.9030740E-01 H
gradient norm  9.4200479E-01 H/a0    max. gradient  1.8384913E-01 H/a0
step length    7.4478805E-01 a0      max. step      1.2530851E-01 a0

--------------------------------------------------------------------------------

***  Geometry step: 3

 iSCC Total electronic   Diff electronic      SCC error    
    1   -0.19695474E+03    0.00000000E+00    0.75686057E-01
    2   -0.19659430E+03    0.36044444E+00    0.29085758E-01
    3   -0.19659859E+03   -0.42946827E-02    0.88394297E-02
    4   -0.19659932E+03   -0.72921087E-03    0.11502419E-02
    5   -0.19659936E+03   -0.33543670E-04    0.23256694E-03
    6   -0.19659936E+03   -0.15878611E-05    0.11874409E-03
    7   -0.19659936E+03   -0.27946413E-07    0.21747928E-04
    8   -0.19659936E+03   -0.31552077E-08    0.63880547E-05
    9   -0.19659936E+03   -0.30522074E-09    0.20156153E-05
   10   -0.19659936E+03   -0.82138740E-11    0.49475489E-06
   11   -0.19659936E+03   -0.34106051E-12    0.96654130E-07
   12   -0.19659936E+03    0.00000000E+00    0.14621652E-07
   13   -0.19659936E+03    0.28421709E-13    0.20660007E-08

Total Energy:                     -192.4711195042 H        -5237.4056 eV
Extrapolated to 0K:               -192.4711195042 H        -5237.4056 eV
Total Mermin free energy:         -192.4711195042 H        -5237.4056 eV
Force related energy:             -192.4711195042 H        -5237.4056 eV

Volume:                              0.993980E+04 au^3   0.147293E+04 A^3
Pressure:                            0.958838E-03 au     0.282100E+11 Pa
>> Charges saved for restart in charges.bin

total energy  -1.9247112E+02 H       energy change -5.4969855E-01 H
gradient norm  5.9189263E-01 H/a0    max. gradient  1.3037443E-01 H/a0
step length    7.8200869E-01 a0      max. step      1.3861116E-01 a0

--------------------------------------------------------------------------------

***  Geometry step: 4

 iSCC Total electronic   Diff electronic      SCC error    
    1   -0.19659936E+03    0.00000000E+00    0.60302074E-01
    2   -0.19619047E+03    0.40888977E+00    0.34237122E-01
    3   -0.19619323E+03   -0.27595815E-02    0.67543426E-02
    4   -0.19619382E+03   -0.59587044E-03    0.16116980E-02
    5   -0.19619386E+03   -0.37003092E-04    0.21515758E-03
    6   -0.19619386E+03   -0.19280073E-05    0.83722422E-04
    7   -0.19619386E+03   -0.29683093E-07    0.29605270E-04
    8   -0.19619386E+03   -0.25463578E-08    0.78982457E-05
    9   -0.19619386E+03   -0.25926283E-09    0.24594719E-05
   10   -0.19619386E+03   -0.73896445E-11    0.41304596E-06
   11   -0.19619386E+03   -0.25579538E-12    0.64085022E-07
   12   -0.19619386E+03   -0.85265128E-13    0.17416084E-07
   13   -0.19619386E+03   -0.28421709E-13    0.28054470E-08

Total Energy:                     -192.7958189181 H        -5246.2412 eV
Extrapolated to 0K:               -192.7958189181 H        -5246.2412 eV
Total Mermin free energy:         -192.7958189181 H        -5246.2412 eV
Force related energy:             -192.7958189181 H        -5246.2412 eV

Volume:                              0.100823E+05 au^3   0.149405E+04 A^3
Pressure:                            0.661370E-03 au     0.194582E+11 Pa
>> Charges saved for restart in charges.bin

total energy  -1.9279582E+02 H       energy change -3.2469941E-01 H
gradient norm  4.7898365E-01 H/a0    max. gradient  1.8011986E-01 H/a0
step length    7.4943622E-01 a0      max. step      1.3183031E-01 a0

--------------------------------------------------------------------------------

***  Geometry step: 5

 iSCC Total electronic   Diff electronic      SCC error    
    1   -0.19619386E+03    0.00000000E+00    0.62949292E-01
    2   -0.19574929E+03    0.44457751E+00    0.38152024E-01
    3   -0.19575198E+03   -0.26922231E-02    0.75139639E-02
    4   -0.19575258E+03   -0.60333124E-03    0.14777748E-02
    5   -0.19575261E+03   -0.32955810E-04    0.36936769E-03
    6   -0.19575262E+03   -0.13412014E-05    0.14705414E-03
    7   -0.19575262E+03   -0.21705688E-07    0.45923345E-04
    8   -0.19575262E+03   -0.15202772E-08    0.74215750E-05
    9   -0.19575262E+03   -0.23447910E-09    0.18365463E-05
   10   -0.19575262E+03   -0.10743406E-10    0.21596360E-06
   11   -0.19575262E+03   -0.51159077E-12    0.48021965E-07
   12   -0.19575262E+03    0.28421709E-13    0.13232389E-07
   13   -0.19575262E+03    0.28421709E-13    0.39559489E-08

Total Energy:                     -192.9900149857 H        -5251.5255 eV
Extrapolated to 0K:               -192.9900149857 H        -5251.5255 eV
Total Mermin free energy:         -192.9900149857 H        -5251.5255 eV
Force related energy:             -192.9900149857 H        -5251.5255 eV

Volume:                              0.102733E+05 au^3   0.152235E+04 A^3
Pressure:                            0.401445E-03 au     0.118109E+11 Pa
>> Charges saved for restart in charges.bin

total energy  -1.9299001E+02 H       energy change -1.9419607E-01 H
gradient norm  4.0301079E-01 H/a0    max. gradient  2.0821824E-01 H/a0
step length    7.3640494E-01 a0      max. step      2.0086235E-01 a0

--------------------------------------------------------------------------------

***  Geometry step: 6

 iSCC Total electronic   Diff electronic      SCC error    
    1   -0.19575262E+03    0.00000000E+00    0.48668204E-01
    2   -0.19540644E+03    0.34617841E+00    0.28195749E-01
    3   -0.19540795E+03   -0.15145632E-02    0.44185840E-02
    4   -0.19540830E+03   -0.34781113E-03    0.84620269E-03
    5   -0.19540832E+03   -0.16430292E-04    0.25557396E-03
    6   -0.19540832E+03   -0.54417879E-06    0.11066278E-03
    7   -0.19540832E+03   -0.84653493E-08    0.27095308E-04
    8   -0.19540832E+03   -0.71798922E-09    0.49957290E-05
    9   -0.19540832E+03   -0.10891199E-09    0.10085956E-05
   10   -0.19540832E+03   -0.44053650E-11    0.13000494E-06
   11   -0.19540832E+03   -0.25579538E-12    0.22305474E-07
   12   -0.19540832E+03    0.11368684E-12    0.64991488E-08

Total Energy:                     -193.0849074923 H        -5254.1077 eV
Extrapolated to 0K:               -193.0849074923 H        -5254.1077 eV
Total Mermin free energy:         -193.0849074923 H        -5254.1077 eV
Force related energy:             -193.0849074923 H        -5254.1077 eV

Volume:                              0.104313E+05 au^3   0.154576E+04 A^3
Pressure:                            0.222411E-03 au     0.654355E+10 Pa
>> Charges saved for restart in charges.bin

total energy  -1.9308491E+02 H       energy change -9.4892507E-02 H
gradient norm  1.7576279E-01 H/a0    max. gradient  4.0034108E-02 H/a0
step length    5.6713997E-01 a0      max. step      1.2950417E-01 a0

--------------------------------------------------------------------------------

***  Geometry step: 7

 iSCC Total electronic   Diff electronic      SCC error    
    1   -0.19540832E+03    0.00000000E+00    0.36369781E-01
    2   -0.19523480E+03    0.17351673E+00    0.19679927E-01
    3   -0.19523569E+03   -0.88665081E-03    0.26976099E-02
    4   -0.19523587E+03   -0.18288598E-03    0.41319907E-03
    5   -0.19523587E+03   -0.51876322E-05    0.12938398E-03
    6   -0.19523587E+03   -0.27099296E-06    0.59929271E-04
    7   -0.19523587E+03   -0.40769521E-08    0.16355600E-04
    8   -0.19523587E+03   -0.24721203E-09    0.21071127E-05
    9   -0.19523587E+03   -0.34106051E-10    0.63004034E-06
   10   -0.19523587E+03   -0.19326762E-11    0.11108919E-06
   11   -0.19523587E+03   -0.85265128E-13    0.14514414E-07
   12   -0.19523587E+03    0.00000000E+00    0.34962007E-08

Total Energy:                     -193.1210902295 H        -5255.0922 eV
Extrapolated to 0K:               -193.1210902295 H        -5255.0922 eV
Total Mermin free energy:         -193.1210902295 H        -5255.0922 eV
Force related energy:             -193.1210902295 H        -5255.0922 eV

Volume:                              0.104954E+05 au^3   0.155525E+04 A^3
Pressure:                            0.142762E-03 au     0.420019E+10 Pa
>> Charges saved for restart in charges.bin

total energy  -1.9312109E+02 H       energy change -3.6182737E-02 H
gradient norm  1.3146128E-01 H/a0    max. gradient  3.9092022E-02 H/a0
step length    4.2033142E-01 a0      max. step      7.4294234E-02 a0

--------------------------------------------------------------------------------

***  Geometry step: 8

 iSCC Total electronic   Diff electronic      SCC error    
    1   -0.19523587E+03    0.00000000E+00    0.24898866E-01
    2   -0.19511567E+03    0.12020231E+00    0.13475599E-01
    3   -0.19511607E+03   -0.40223954E-03    0.27239488E-02
    4   -0.19511614E+03   -0.70364021E-04    0.60186745E-03
    5   -0.19511615E+03   -0.25011963E-05    0.26546668E-03
    6   -0.19511615E+03   -0.12460725E-06    0.65284319E-04
    7   -0.19511615E+03   -0.68992279E-08    0.15320792E-04
    8   -0.19511615E+03   -0.33023184E-09    0.34718102E-05
    9   -0.19511615E+03   -0.30610181E-10    0.64787428E-06
   10   -0.19511615E+03   -0.32969183E-11    0.83039839E-07
   11   -0.19511615E+03   -0.17053026E-12    0.19911514E-07
   12   -0.19511615E+03   -0.11368684E-12    0.31069445E-08

Total Energy:                     -193.1421631428 H        -5255.6657 eV
Extrapolated to 0K:               -193.1421631428 H        -5255.6657 eV
Total Mermin free energy:         -193.1421631428 H        -5255.6657 eV
Force related energy:             -193.1421631428 H        -5255.6657 eV

Volume:                              0.105582E+05 au^3   0.156456E+04 A^3
Pressure:                            0.800763E-04 au     0.235593E+10 Pa
>> Charges saved for restart in charges.bin

total energy  -1.9314216E+02 H       energy change -2.1072913E-02 H
gradient norm  1.1457945E-01 H/a0    max. gradient  2.2080196E-02 H/a0
step length    3.7764621E-01 a0      max. step      8.9432478E-02 a0

--------------------------------------------------------------------------------

***  Geometry step: 9

 iSCC Total electronic   Diff electronic      SCC error    
    1   -0.19511615E+03    0.00000000E+00    0.17477388E-01
    2   -0.19510208E+03    0.14070157E-01    0.10391744E-01
    3   -0.19510237E+03   -0.29714338E-03    0.32752969E-02
    4   -0.19510242E+03   -0.44585868E-04    0.36594509E-03
    5   -0.19510242E+03   -0.15698831E-05    0.63225237E-04
    6   -0.19510242E+03   -0.18744876E-06    0.24394249E-04
    7   -0.19510242E+03   -0.25933389E-08    0.74756603E-05
    8   -0.19510242E+03   -0.77164941E-10    0.18504347E-05
    9   -0.19510242E+03   -0.73896445E-11    0.39963984E-06
   10   -0.19510242E+03   -0.71054274E-12    0.82770366E-07
   11   -0.19510242E+03    0.28421709E-13    0.12576691E-07
   12   -0.19510242E+03   -0.85265128E-13    0.20190005E-08

Total Energy:                     -193.1593420759 H        -5256.1331 eV
Extrapolated to 0K:               -193.1593420759 H        -5256.1331 eV
Total Mermin free energy:         -193.1593420759 H        -5256.1331 eV
Force related energy:             -193.1593420759 H        -5256.1331 eV

Volume:                              0.105781E+05 au^3   0.156752E+04 A^3
Pressure:                            0.631583E-04 au     0.185818E+10 Pa
>> Charges saved for restart in charges.bin

total energy  -1.9315934E+02 H       energy change -1.7178933E-02 H
gradient norm  9.8031780E-02 H/a0    max. gradient  1.8069644E-02 H/a0
step length    3.0552650E-01 a0      max. step      5.4588152E-02 a0

--------------------------------------------------------------------------------

***  Geometry step: 10

 iSCC Total electronic   Diff electronic      SCC error    
    1   -0.19510242E+03    0.00000000E+00    0.29362515E-01
    2   -0.19514070E+03   -0.38275013E-01    0.17249741E-01
    3   -0.19514127E+03   -0.57334497E-03    0.30304526E-02
    4   -0.19514139E+03   -0.11806078E-03    0.40319828E-03
    5   -0.19514139E+03   -0.62730819E-05    0.91387045E-04
    6   -0.19514139E+03   -0.20383825E-06    0.30976368E-04
    7   -0.19514139E+03   -0.35325058E-08    0.54971373E-05
    8   -0.19514139E+03   -0.16092372E-09    0.19125382E-05
    9   -0.19514139E+03   -0.17166712E-10    0.66130059E-06
   10   -0.19514139E+03   -0.11652901E-11    0.16658048E-06
   11   -0.19514139E+03    0.11368684E-12    0.17742665E-07
   12   -0.19514139E+03   -0.56843419E-13    0.34027132E-08

Total Energy:                     -193.1806104743 H        -5256.7119 eV
Extrapolated to 0K:               -193.1806104743 H        -5256.7119 eV
Total Mermin free energy:         -193.1806104743 H        -5256.7119 eV
Force related energy:             -193.1806104743 H        -5256.7119 eV

Volume:                              0.105960E+05 au^3   0.157017E+04 A^3
Pressure:                            0.676752E-04 au     0.199107E+10 Pa
>> Charges saved for restart in charges.bin

total energy  -1.9318061E+02 H       energy change -2.1268398E-02 H
gradient norm  9.2142959E-02 H/a0    max. gradient  3.5735921E-02 H/a0
step length    4.4152448E-01 a0      max. step      6.8095561E-02 a0

--------------------------------------------------------------------------------

***  Geometry step: 11

 iSCC Total electronic   Diff electronic      SCC error    
    1   -0.19514139E+03    0.00000000E+00    0.26929057E-01
    2   -0.19518868E+03   -0.47289320E-01    0.15257918E-01
    3   -0.19518922E+03   -0.53805088E-03    0.29730501E-02
    4   -0.19518934E+03   -0.11526068E-03    0.50104434E-03
    5   -0.19518934E+03   -0.58951251E-05    0.78185096E-04
    6   -0.19518934E+03   -0.24406674E-06    0.29471433E-04
    7   -0.19518934E+03   -0.50306710E-08    0.91429788E-05
    8   -0.19518934E+03   -0.17263346E-09    0.26151003E-05
    9   -0.19518934E+03   -0.17820412E-10    0.67437813E-06
   10   -0.19518934E+03   -0.21884716E-11    0.16603624E-06
   11   -0.19518934E+03   -0.28421709E-13    0.15145773E-07
   12   -0.19518934E+03   -0.28421709E-13    0.33285970E-08

Total Energy:                     -193.1947075209 H        -5257.0955 eV
Extrapolated to 0K:               -193.1947075209 H        -5257.0955 eV
Total Mermin free energy:         -193.1947075209 H        -5257.0955 eV
Force related energy:             -193.1947075209 H        -5257.0955 eV

Volume:                              0.106115E+05 au^3   0.157247E+04 A^3
Pressure:                            0.753702E-04 au     0.221747E+10 Pa
>> Charges saved for restart in charges.bin

total energy  -1.9319471E+02 H       energy change -1.4097047E-02 H
gradient norm  8.9342453E-02 H/a0    max. gradient  2.6885636E-02 H/a0
step length    3.8594921E-01 a0      max. step      5.6943257E-02 a0

--------------------------------------------------------------------------------

***  Geometry step: 12

 iSCC Total electronic   Diff electronic      SCC error    
    1   -0.19518934E+03    0.00000000E+00    0.21960115E-01
    2   -0.19521185E+03   -0.22511708E-01    0.13141570E-01
    3   -0.19521204E+03   -0.18970713E-03    0.14301265E-02
    4   -0.19521210E+03   -0.51184180E-04    0.22971140E-03
    5   -0.19521210E+03   -0.25399379E-05    0.42825913E-04
    6   -0.19521210E+03   -0.37226954E-07    0.18251139E-04
    7   -0.19521210E+03   -0.89787022E-09    0.60302893E-05
    8   -0.19521210E+03   -0.32173375E-10    0.15533866E-05
    9   -0.19521210E+03   -0.40358827E-11    0.38318561E-06
   10   -0.19521210E+03   -0.34106051E-12    0.81337880E-07
   11   -0.19521210E+03    0.28421709E-13    0.46773860E-08

Total Energy:                     -193.2053877694 H        -5257.3861 eV
Extrapolated to 0K:               -193.2053877694 H        -5257.3861 eV
Total Mermin free energy:         -193.2053877694 H        -5257.3861 eV
Force related energy:             -193.2053877694 H        -5257.3861 eV

Volume:                              0.106383E+05 au^3   0.157643E+04 A^3
Pressure:                            0.757716E-04 au     0.222928E+10 Pa
>> Charges saved for restart in charges.bin

total energy  -1.9320539E+02 H       energy change -1.0680248E-02 H
gradient norm  7.8194908E-02 H/a0    max. gradient  1.6422106E-02 H/a0
step length    3.2361604E-01 a0      max. step      5.4093973E-02 a0

--------------------------------------------------------------------------------

***  Geometry step: 13

 iSCC Total electronic   Diff electronic      SCC error    
    1   -0.19521210E+03    0.00000000E+00    0.23379093E-01
    2   -0.19521658E+03   -0.44853888E-02    0.13537249E-01
    3   -0.19521675E+03   -0.17042038E-03    0.16547324E-02
    4   -0.19521680E+03   -0.49309397E-04    0.20859258E-03
    5   -0.19521681E+03   -0.22529190E-05    0.27328295E-04
    6   -0.19521681E+03   -0.38472734E-07    0.10856654E-04
    7   -0.19521681E+03   -0.39315751E-09    0.29675394E-05
    8   -0.19521681E+03   -0.19014124E-10    0.39828640E-06
    9   -0.19521681E+03   -0.21884716E-11    0.78697589E-07
   10   -0.19521681E+03   -0.28421709E-13    0.20936097E-07
   11   -0.19521681E+03    0.00000000E+00    0.20545015E-08

Total Energy:                     -193.2156806114 H        -5257.6662 eV
Extrapolated to 0K:               -193.2156806114 H        -5257.6662 eV
Total Mermin free energy:         -193.2156806114 H        -5257.6662 eV
Force related energy:             -193.2156806114 H        -5257.6662 eV

Volume:                              0.106832E+05 au^3   0.158308E+04 A^3
Pressure:                            0.669062E-04 au     0.196845E+10 Pa
>> Charges saved for restart in charges.bin

total energy  -1.9321568E+02 H       energy change -1.0292842E-02 H
gradient norm  6.4083012E-02 H/a0    max. gradient  1.4660291E-02 H/a0
step length    3.3275248E-01 a0      max. step      5.7662414E-02 a0

--------------------------------------------------------------------------------

***  Geometry step: 14

 iSCC Total electronic   Diff electronic      SCC error    
    1   -0.19521681E+03    0.00000000E+00    0.17391323E-01
    2   -0.19520404E+03    0.12764978E-01    0.99948340E-02
    3   -0.19520413E+03   -0.92618135E-04    0.12606724E-02
    4   -0.19520416E+03   -0.25264560E-04    0.24901922E-03
    5   -0.19520416E+03   -0.11911814E-05    0.22879231E-04
    6   -0.19520416E+03   -0.34310801E-07    0.64408652E-05
    7   -0.19520416E+03   -0.60896355E-09    0.19437148E-05
    8   -0.19520416E+03   -0.16740387E-10    0.42668387E-06
    9   -0.19520416E+03   -0.99475983E-12    0.13112479E-06
   10   -0.19520416E+03   -0.19895197E-12    0.39417492E-07
   11   -0.19520416E+03   -0.56843419E-13    0.52763394E-08

Total Energy:                     -193.2220443835 H        -5257.8393 eV
Extrapolated to 0K:               -193.2220443835 H        -5257.8393 eV
Total Mermin free energy:         -193.2220443835 H        -5257.8393 eV
Force related energy:             -193.2220443835 H        -5257.8393 eV

Volume:                              0.107302E+05 au^3   0.159005E+04 A^3
Pressure:                            0.564239E-04 au     0.166005E+10 Pa
>> Charges saved for restart in charges.bin

total energy  -1.9322204E+02 H       energy change -6.3637721E-03 H
gradient norm  5.2534471E-02 H/a0    max. gradient  1.1548846E-02 H/a0
step length    2.6361327E-01 a0      max. step      4.6306876E-02 a0

--------------------------------------------------------------------------------

***  Geometry step: 15

 iSCC Total electronic   Diff electronic      SCC error    
    1   -0.19520416E+03    0.00000000E+00    0.94316023E-02
    2   -0.19517959E+03    0.24568134E-01    0.54330661E-02
    3   -0.19517964E+03   -0.45510721E-04    0.83551052E-03
    4   -0.19517965E+03   -0.99216791E-05    0.17840794E-03
    5   -0.19517965E+03   -0.50130410E-06    0.18813934E-04
    6   -0.19517965E+03   -0.24666804E-07    0.56716107E-05
    7   -0.19517965E+03   -0.38730263E-09    0.16443876E-05
    8   -0.19517965E+03   -0.76170181E-11    0.59346253E-06
    9   -0.19517965E+03   -0.51159077E-12    0.18100994E-06
   10   -0.19517965E+03   -0.85265128E-13    0.35044141E-07
   11   -0.19517965E+03    0.85265128E-13    0.21309114E-08

Total Energy:                     -193.2261623125 H        -5257.9514 eV
Extrapolated to 0K:               -193.2261623125 H        -5257.9514 eV
Total Mermin free energy:         -193.2261623125 H        -5257.9514 eV
Force related energy:             -193.2261623125 H        -5257.9514 eV

Volume:                              0.107764E+05 au^3   0.159690E+04 A^3
Pressure:                            0.423454E-04 au     0.124584E+10 Pa
>> Charges saved for restart in charges.bin

total energy  -1.9322616E+02 H       energy change -4.1179290E-03 H
gradient norm  4.7123735E-02 H/a0    max. gradient  8.7005966E-03 H/a0
step length    2.1946644E-01 a0      max. step      4.1068775E-02 a0

--------------------------------------------------------------------------------

***  Geometry step: 16

 iSCC Total electronic   Diff electronic      SCC error    
    1   -0.19517965E+03    0.00000000E+00    0.83792490E-02
    2   -0.19515517E+03    0.24473653E-01    0.46750946E-02
    3   -0.19515521E+03   -0.34888760E-04    0.95515987E-03
    4   -0.19515521E+03   -0.62324850E-05    0.15420550E-03
    5   -0.19515521E+03   -0.26175493E-06    0.31382244E-04
    6   -0.19515521E+03   -0.16967363E-07    0.12888683E-04
    7   -0.19515521E+03   -0.33480774E-09    0.38052263E-05
    8   -0.19515521E+03   -0.83559826E-11    0.87988425E-06
    9   -0.19515521E+03   -0.93791641E-12    0.15559979E-06
   10   -0.19515521E+03   -0.28421709E-13    0.18145518E-07
   11   -0.19515521E+03   -0.28421709E-13    0.17680017E-08

Total Energy:                     -193.2300727247 H        -5258.0578 eV
Extrapolated to 0K:               -193.2300727247 H        -5258.0578 eV
Total Mermin free energy:         -193.2300727247 H        -5258.0578 eV
Force related energy:             -193.2300727247 H        -5258.0578 eV

Volume:                              0.108211E+05 au^3   0.160353E+04 A^3
Pressure:                            0.277491E-04 au     0.816407E+09 Pa
>> Charges saved for restart in charges.bin

total energy  -1.9323007E+02 H       energy change -3.9104122E-03 H
gradient norm  4.9116981E-02 H/a0    max. gradient  9.6038326E-03 H/a0
step length    2.1251919E-01 a0      max. step      3.9619281E-02 a0

--------------------------------------------------------------------------------

***  Geometry step: 17

 iSCC Total electronic   Diff electronic      SCC error    
    1   -0.19515521E+03    0.00000000E+00    0.10230768E-01
    2   -0.19514282E+03    0.12394596E-01    0.56524545E-02
    3   -0.19514287E+03   -0.52766899E-04    0.13286194E-02
    4   -0.19514288E+03   -0.80442078E-05    0.14630573E-03
    5   -0.19514288E+03   -0.47062940E-06    0.67056558E-04
    6   -0.19514288E+03   -0.22243910E-07    0.21950571E-04
    7   -0.19514288E+03   -0.55652549E-09    0.39570381E-05
    8   -0.19514288E+03   -0.28421709E-10    0.90218218E-06
    9   -0.19514288E+03   -0.19610980E-11    0.15227509E-06
   10   -0.19514288E+03   -0.17053026E-12    0.27035616E-07
   11   -0.19514288E+03   -0.14210855E-12    0.28987457E-08

Total Energy:                     -193.2350055346 H        -5258.1920 eV
Extrapolated to 0K:               -193.2350055346 H        -5258.1920 eV
Total Mermin free energy:         -193.2350055346 H        -5258.1920 eV
Force related energy:             -193.2350055346 H        -5258.1920 eV

Volume:                              0.108679E+05 au^3   0.161045E+04 A^3
Pressure:                            0.184293E-04 au     0.542208E+09 Pa
>> Charges saved for restart in charges.bin

total energy  -1.9323501E+02 H       energy change -4.9328098E-03 H
gradient norm  5.3742169E-02 H/a0    max. gradient  1.1439513E-02 H/a0
step length    2.6865145E-01 a0      max. step      4.7412014E-02 a0

--------------------------------------------------------------------------------

***  Geometry step: 18

 iSCC Total electronic   Diff electronic      SCC error    
    1   -0.19514288E+03    0.00000000E+00    0.14257014E-01
    2   -0.19514615E+03   -0.32726425E-02    0.84187400E-02
    3   -0.19514625E+03   -0.98646694E-04    0.23233885E-02
    4   -0.19514627E+03   -0.14823324E-04    0.20792159E-03
    5   -0.19514627E+03   -0.84135519E-06    0.85811718E-04
    6   -0.19514627E+03   -0.45678888E-07    0.28207736E-04
    7   -0.19514627E+03   -0.11315819E-08    0.51654926E-05
    8   -0.19514627E+03   -0.60140337E-10    0.13390220E-05
    9   -0.19514627E+03   -0.38653525E-11    0.31071966E-06
   10   -0.19514627E+03   -0.42632564E-12    0.36220528E-07
   11   -0.19514627E+03   -0.56843419E-13    0.64592776E-08

Total Energy:                     -193.2403806854 H        -5258.3383 eV
Extrapolated to 0K:               -193.2403806854 H        -5258.3383 eV
Total Mermin free energy:         -193.2403806854 H        -5258.3383 eV
Force related energy:             -193.2403806854 H        -5258.3383 eV

Volume:                              0.109124E+05 au^3   0.161704E+04 A^3
Pressure:                            0.158137E-04 au     0.465255E+09 Pa
>> Charges saved for restart in charges.bin

total energy  -1.9324038E+02 H       energy change -5.3751508E-03 H
gradient norm  5.3165870E-02 H/a0    max. gradient  1.1278731E-02 H/a0
step length    3.2180140E-01 a0      max. step      5.1915512E-02 a0

--------------------------------------------------------------------------------

***  Geometry step: 19

 iSCC Total electronic   Diff electronic      SCC error    
    1   -0.19514627E+03    0.00000000E+00    0.13221835E-01
    2   -0.19516008E+03   -0.13815204E-01    0.77030273E-02
    3   -0.19516021E+03   -0.12405721E-03    0.24076498E-02
    4   -0.19516022E+03   -0.16147963E-04    0.27507331E-03
    5   -0.19516022E+03   -0.81404104E-06    0.72626743E-04
    6   -0.19516022E+03   -0.51986376E-07    0.26102039E-04
    7   -0.19516022E+03   -0.12511236E-08    0.56030634E-05
    8   -0.19516022E+03   -0.55393912E-10    0.14960141E-05
    9   -0.19516022E+03   -0.42064130E-11    0.36330234E-06
   10   -0.19516022E+03   -0.45474735E-12    0.46977557E-07
   11   -0.19516022E+03   -0.56843419E-13    0.57206924E-08

Total Energy:                     -193.2450473832 H        -5258.4653 eV
Extrapolated to 0K:               -193.2450473832 H        -5258.4653 eV
Total Mermin free energy:         -193.2450473832 H        -5258.4653 eV
Force related energy:             -193.2450473832 H        -5258.4653 eV

Volume:                              0.109502E+05 au^3   0.162265E+04 A^3
Pressure:                            0.176467E-04 au     0.519183E+09 Pa
>> Charges saved for restart in charges.bin

total energy  -1.9324505E+02 H       energy change -4.6666978E-03 H
gradient norm  4.6719997E-02 H/a0    max. gradient  9.8407105E-03 H/a0
step length    3.2556851E-01 a0      max. step      5.7658956E-02 a0

--------------------------------------------------------------------------------

***  Geometry step: 20

 iSCC Total electronic   Diff electronic      SCC error    
    1   -0.19516022E+03    0.00000000E+00    0.11371587E-01
    2   -0.19517795E+03   -0.17723271E-01    0.63662163E-02
    3   -0.19517807E+03   -0.12135515E-03    0.19532043E-02
    4   -0.19517808E+03   -0.14289310E-04    0.28577504E-03
    5   -0.19517808E+03   -0.65205234E-06    0.83942917E-04
    6   -0.19517808E+03   -0.46799101E-07    0.29424044E-04
    7   -0.19517808E+03   -0.11066277E-08    0.56561392E-05
    8   -0.19517808E+03   -0.52921223E-10    0.13626366E-05
    9   -0.19517808E+03   -0.44337867E-11    0.31650256E-06
   10   -0.19517808E+03   -0.42632564E-12    0.53190303E-07
   11   -0.19517808E+03   -0.11368684E-12    0.35211074E-08

Total Energy:                     -193.2489615095 H        -5258.5718 eV
Extrapolated to 0K:               -193.2489615095 H        -5258.5718 eV
Total Mermin free energy:         -193.2489615095 H        -5258.5718 eV
Force related energy:             -193.2489615095 H        -5258.5718 eV

Volume:                              0.109844E+05 au^3   0.162772E+04 A^3
Pressure:                            0.214007E-04 au     0.629630E+09 Pa
>> Charges saved for restart in charges.bin

total energy  -1.9324896E+02 H       energy change -3.9141263E-03 H
gradient norm  3.9633171E-02 H/a0    max. gradient  7.1774071E-03 H/a0
step length    3.1304645E-01 a0      max. step      5.7443982E-02 a0

--------------------------------------------------------------------------------

***  Geometry step: 21

 iSCC Total electronic   Diff electronic      SCC error    
    1   -0.19517808E+03    0.00000000E+00    0.10269970E-01
    2   -0.19519021E+03   -0.12125353E-01    0.56887612E-02
    3   -0.19519031E+03   -0.96535320E-04    0.15682985E-02
    4   -0.19519032E+03   -0.12035875E-04    0.26859764E-03
    5   -0.19519032E+03   -0.55834110E-06    0.83509184E-04
    6   -0.19519032E+03   -0.34591324E-07    0.29174762E-04
    7   -0.19519032E+03   -0.82818019E-09    0.51774081E-05
    8   -0.19519032E+03   -0.40444093E-10    0.11131831E-05
    9   -0.19519032E+03   -0.35242920E-11    0.16510498E-06
   10   -0.19519032E+03   -0.51159077E-12    0.29330449E-07
   11   -0.19519032E+03    0.17053026E-12    0.44434532E-08

Total Energy:                     -193.2520330920 H        -5258.6554 eV
Extrapolated to 0K:               -193.2520330920 H        -5258.6554 eV
Total Mermin free energy:         -193.2520330920 H        -5258.6554 eV
Force related energy:             -193.2520330920 H        -5258.6554 eV

Volume:                              0.110177E+05 au^3   0.163266E+04 A^3
Pressure:                            0.220613E-04 au     0.649067E+09 Pa
>> Charges saved for restart in charges.bin

total energy  -1.9325203E+02 H       energy change -3.0715825E-03 H
gradient norm  3.4451125E-02 H/a0    max. gradient  8.5019299E-03 H/a0
step length    2.7730884E-01 a0      max. step      5.4762527E-02 a0

--------------------------------------------------------------------------------

***  Geometry step: 22

 iSCC Total electronic   Diff electronic      SCC error    
    1   -0.19519032E+03    0.00000000E+00    0.10978157E-01
    2   -0.19519471E+03   -0.43865773E-02    0.60783940E-02
    3   -0.19519476E+03   -0.49831617E-04    0.11435217E-02
    4   -0.19519476E+03   -0.86368404E-05    0.23257198E-03
    5   -0.19519476E+03   -0.45648432E-06    0.81848364E-04
    6   -0.19519476E+03   -0.22112602E-07    0.22814014E-04
    7   -0.19519476E+03   -0.62502181E-09    0.43020582E-05
    8   -0.19519476E+03   -0.32514436E-10    0.90776727E-06
    9   -0.19519476E+03   -0.32116532E-11    0.14316900E-06
   10   -0.19519476E+03   -0.39790393E-12    0.17517266E-07
   11   -0.19519476E+03    0.56843419E-13    0.28464973E-08

Total Energy:                     -193.2540094270 H        -5258.7092 eV
Extrapolated to 0K:               -193.2540094270 H        -5258.7092 eV
Total Mermin free energy:         -193.2540094270 H        -5258.7092 eV
Force related energy:             -193.2540094270 H        -5258.7092 eV

Volume:                              0.110464E+05 au^3   0.163691E+04 A^3
Pressure:                            0.217814E-04 au     0.640831E+09 Pa
>> Charges saved for restart in charges.bin

total energy  -1.9325401E+02 H       energy change -1.9763350E-03 H
gradient norm  3.3148513E-02 H/a0    max. gradient  8.4272796E-03 H/a0
step length    2.0687453E-01 a0      max. step      4.3197133E-02 a0

--------------------------------------------------------------------------------

***  Geometry step: 23

 iSCC Total electronic   Diff electronic      SCC error    
    1   -0.19519476E+03    0.00000000E+00    0.61762506E-02
    2   -0.19518737E+03    0.73991541E-02    0.33673211E-02
    3   -0.19518738E+03   -0.19412284E-04    0.52392464E-03
    4   -0.19518739E+03   -0.41916858E-05    0.10947468E-03
    5   -0.19518739E+03   -0.19696390E-06    0.42448629E-04
    6   -0.19518739E+03   -0.50098095E-08    0.13063517E-04
    7   -0.19518739E+03   -0.18314950E-09    0.26381744E-05
    8   -0.19518739E+03   -0.81570306E-11    0.43858792E-06
    9   -0.19518739E+03   -0.93791641E-12    0.90797453E-07
   10   -0.19518739E+03   -0.11368684E-12    0.92948351E-08

Total Energy:                     -193.2552327708 H        -5258.7424 eV
Extrapolated to 0K:               -193.2552327708 H        -5258.7424 eV
Total Mermin free energy:         -193.2552327708 H        -5258.7424 eV
Force related energy:             -193.2552327708 H        -5258.7424 eV

Volume:                              0.110705E+05 au^3   0.164048E+04 A^3
Pressure:                            0.174572E-04 au     0.513608E+09 Pa
>> Charges saved for restart in charges.bin

total energy  -1.9325523E+02 H       energy change -1.2233438E-03 H
gradient norm  2.5807971E-02 H/a0    max. gradient  8.6500416E-03 H/a0
step length    1.1826391E-01 a0      max. step      2.3320019E-02 a0

--------------------------------------------------------------------------------

***  Geometry step: 24

 iSCC Total electronic   Diff electronic      SCC error    
    1   -0.19518739E+03    0.00000000E+00    0.48160201E-02
    2   -0.19517685E+03    0.10539954E-01    0.27190895E-02
    3   -0.19517688E+03   -0.27218837E-04    0.72785981E-03
    4   -0.19517688E+03   -0.44580526E-05    0.11471096E-03
    5   -0.19517688E+03   -0.14956382E-06    0.37761799E-04
    6   -0.19517688E+03   -0.84843919E-08    0.11367156E-04
    7   -0.19517688E+03   -0.12292389E-09    0.23406105E-05
    8   -0.19517688E+03   -0.54285465E-11    0.40717738E-06
    9   -0.19517688E+03   -0.11368684E-11    0.88542037E-07
   10   -0.19517688E+03   -0.28421709E-13    0.81627851E-08

Total Energy:                     -193.2561761955 H        -5258.7681 eV
Extrapolated to 0K:               -193.2561761955 H        -5258.7681 eV
Total Mermin free energy:         -193.2561761955 H        -5258.7681 eV
Force related energy:             -193.2561761955 H        -5258.7681 eV

Volume:                              0.110929E+05 au^3   0.164380E+04 A^3
Pressure:                            0.116954E-04 au     0.344089E+09 Pa
>> Charges saved for restart in charges.bin

total energy  -1.9325618E+02 H       energy change -9.4342468E-04 H
gradient norm  2.1669318E-02 H/a0    max. gradient  6.4721144E-03 H/a0
step length    9.4399988E-02 a0      max. step      2.3053729E-02 a0

--------------------------------------------------------------------------------

***  Geometry step: 25

 iSCC Total electronic   Diff electronic      SCC error    
    1   -0.19517688E+03    0.00000000E+00    0.37625542E-02
    2   -0.19517353E+03    0.33531939E-02    0.13052603E-02
    3   -0.19517354E+03   -0.12829109E-04    0.43868123E-03
    4   -0.19517354E+03   -0.15994525E-05    0.65629176E-04
    5   -0.19517354E+03   -0.43761105E-07    0.20709088E-04
    6   -0.19517354E+03   -0.28304896E-08    0.70409096E-05
    7   -0.19517354E+03   -0.45986326E-10    0.96472339E-06
    8   -0.19517354E+03   -0.28421709E-11    0.15110381E-06
    9   -0.19517354E+03   -0.17053026E-12    0.56148788E-07
   10   -0.19517354E+03   -0.19895197E-12    0.11781226E-07
   11   -0.19517354E+03    0.56843419E-13    0.15361850E-08

Total Energy:                     -193.2568276180 H        -5258.7858 eV
Extrapolated to 0K:               -193.2568276180 H        -5258.7858 eV
Total Mermin free energy:         -193.2568276180 H        -5258.7858 eV
Force related energy:             -193.2568276180 H        -5258.7858 eV

Volume:                              0.111076E+05 au^3   0.164597E+04 A^3
Pressure:                            0.905347E-05 au     0.266362E+09 Pa
>> Charges saved for restart in charges.bin

total energy  -1.9325683E+02 H       energy change -6.5142252E-04 H
gradient norm  2.2449069E-02 H/a0    max. gradient  6.7982649E-03 H/a0
step length    6.7007356E-02 a0      max. step      2.0384171E-02 a0

--------------------------------------------------------------------------------

***  Geometry step: 26

 iSCC Total electronic   Diff electronic      SCC error    
    1   -0.19517354E+03    0.00000000E+00    0.73059582E-02
    2   -0.19517439E+03   -0.84512858E-03    0.28684241E-02
    3   -0.19517443E+03   -0.38966893E-04    0.94669309E-03
    4   -0.19517443E+03   -0.46573830E-05    0.10772491E-03
    5   -0.19517443E+03   -0.14831841E-06    0.39610580E-04
    6   -0.19517443E+03   -0.76297226E-08    0.13220463E-04
    7   -0.19517443E+03   -0.10598455E-09    0.17970826E-05
    8   -0.19517443E+03   -0.95212727E-11    0.22340376E-06
    9   -0.19517443E+03   -0.11084467E-11    0.56372175E-07
   10   -0.19517443E+03    0.56843419E-13    0.10325504E-07
   11   -0.19517443E+03   -0.28421709E-13    0.12856889E-08

Total Energy:                     -193.2579204317 H        -5258.8156 eV
Extrapolated to 0K:               -193.2579204317 H        -5258.8156 eV
Total Mermin free energy:         -193.2579204317 H        -5258.8156 eV
Force related energy:             -193.2579204317 H        -5258.8156 eV

Volume:                              0.111354E+05 au^3   0.165010E+04 A^3
Pressure:                            0.718942E-05 au     0.211520E+09 Pa
>> Charges saved for restart in charges.bin

total energy  -1.9325792E+02 H       energy change -1.0928137E-03 H
gradient norm  2.3015097E-02 H/a0    max. gradient  5.0821947E-03 H/a0
step length    1.3989602E-01 a0      max. step      4.3913214E-02 a0

--------------------------------------------------------------------------------

***  Geometry step: 27

 iSCC Total electronic   Diff electronic      SCC error    
    1   -0.19517443E+03    0.00000000E+00    0.52902491E-02
    2   -0.19517953E+03   -0.51030226E-02    0.23112738E-02
    3   -0.19517955E+03   -0.19819464E-04    0.56993221E-03
    4   -0.19517956E+03   -0.31844857E-05    0.79435063E-04
    5   -0.19517956E+03   -0.16334360E-06    0.23110066E-04
    6   -0.19517956E+03   -0.45261856E-08    0.85494109E-05
    7   -0.19517956E+03   -0.77307050E-10    0.18724077E-05
    8   -0.19517956E+03   -0.47748472E-11    0.40512620E-06
    9   -0.19517956E+03   -0.79580786E-12    0.61886775E-07
   10   -0.19517956E+03   -0.85265128E-13    0.73233308E-08

Total Energy:                     -193.2587373266 H        -5258.8378 eV
Extrapolated to 0K:               -193.2587373266 H        -5258.8378 eV
Total Mermin free energy:         -193.2587373266 H        -5258.8378 eV
Force related energy:             -193.2587373266 H        -5258.8378 eV

Volume:                              0.111605E+05 au^3   0.165381E+04 A^3
Pressure:                            0.742009E-05 au     0.218307E+09 Pa
>> Charges saved for restart in charges.bin

total energy  -1.9325874E+02 H       energy change -8.1689493E-04 H
gradient norm  2.0796625E-02 H/a0    max. gradient  5.5506197E-03 H/a0
step length    1.3306180E-01 a0      max. step      3.7078157E-02 a0

--------------------------------------------------------------------------------

***  Geometry step: 28

 iSCC Total electronic   Diff electronic      SCC error    
    1   -0.19517956E+03    0.00000000E+00    0.48939009E-02
    2   -0.19518564E+03   -0.60819504E-02    0.28043677E-02
    3   -0.19518566E+03   -0.16569139E-04    0.55283416E-03
    4   -0.19518566E+03   -0.31895522E-05    0.63144932E-04
    5   -0.19518566E+03   -0.15998933E-06    0.19360167E-04
    6   -0.19518566E+03   -0.42540762E-08    0.78670384E-05
    7   -0.19518566E+03   -0.64119376E-10    0.21707463E-05
    8   -0.19518566E+03   -0.35242920E-11    0.43107954E-06
    9   -0.19518566E+03   -0.65369932E-12    0.79302990E-07
   10   -0.19518566E+03   -0.85265128E-13    0.10329704E-07
   11   -0.19518566E+03    0.28421709E-13    0.20598745E-08

Total Energy:                     -193.2594058245 H        -5258.8560 eV
Extrapolated to 0K:               -193.2594058245 H        -5258.8560 eV
Total Mermin free energy:         -193.2594058245 H        -5258.8560 eV
Force related energy:             -193.2594058245 H        -5258.8560 eV

Volume:                              0.111850E+05 au^3   0.165745E+04 A^3
Pressure:                            0.836771E-05 au     0.246186E+09 Pa
>> Charges saved for restart in charges.bin

total energy  -1.9325941E+02 H       energy change -6.6849782E-04 H
gradient norm  1.7240682E-02 H/a0    max. gradient  3.9431749E-03 H/a0
step length    1.3783069E-01 a0      max. step      3.3328731E-02 a0

--------------------------------------------------------------------------------

***  Geometry step: 29

 iSCC Total electronic   Diff electronic      SCC error    
    1   -0.19518566E+03    0.00000000E+00    0.40585461E-02
    2   -0.19518932E+03   -0.36615968E-02    0.23107232E-02
    3   -0.19518933E+03   -0.87466497E-05    0.41922949E-03
    4   -0.19518933E+03   -0.17257631E-05    0.39958145E-04
    5   -0.19518933E+03   -0.81082845E-07    0.76848915E-05
    6   -0.19518933E+03   -0.17491288E-08    0.24328196E-05
    7   -0.19518933E+03   -0.24812152E-10    0.59817619E-06
    8   -0.19518933E+03   -0.62527761E-12    0.18072252E-06
    9   -0.19518933E+03   -0.14210855E-12    0.60660938E-07
   10   -0.19518933E+03    0.28421709E-13    0.11375888E-07
   11   -0.19518933E+03   -0.56843419E-13    0.12452941E-08

Total Energy:                     -193.2598427416 H        -5258.8679 eV
Extrapolated to 0K:               -193.2598427416 H        -5258.8679 eV
Total Mermin free energy:         -193.2598427416 H        -5258.8679 eV
Force related energy:             -193.2598427416 H        -5258.8679 eV

Volume:                              0.112014E+05 au^3   0.165988E+04 A^3
Pressure:                            0.909915E-05 au     0.267706E+09 Pa
>> Charges saved for restart in charges.bin

total energy  -1.9325984E+02 H       energy change -4.3691711E-04 H
gradient norm  1.5141220E-02 H/a0    max. gradient  5.5593309E-03 H/a0
step length    9.8987084E-02 a0      max. step      1.9019957E-02 a0

--------------------------------------------------------------------------------

***  Geometry step: 30

 iSCC Total electronic   Diff electronic      SCC error    
    1   -0.19518933E+03    0.00000000E+00    0.35514459E-02
    2   -0.19518928E+03    0.51241473E-04    0.19976619E-02
    3   -0.19518929E+03   -0.66534215E-05    0.40770321E-03
    4   -0.19518929E+03   -0.12504398E-05    0.41486472E-04
    5   -0.19518929E+03   -0.52244843E-07    0.58826438E-05
    6   -0.19518929E+03   -0.11430927E-08    0.24502491E-05
    7   -0.19518929E+03   -0.17536195E-10    0.91080099E-06
    8   -0.19518929E+03   -0.54001248E-12    0.16304980E-06
    9   -0.19518929E+03    0.00000000E+00    0.40660366E-07
   10   -0.19518929E+03   -0.56843419E-13    0.50072013E-08

Total Energy:                     -193.2602480945 H        -5258.8789 eV
Extrapolated to 0K:               -193.2602480945 H        -5258.8789 eV
Total Mermin free energy:         -193.2602480945 H        -5258.8789 eV
Force related energy:             -193.2602480945 H        -5258.8789 eV

Volume:                              0.112157E+05 au^3   0.166200E+04 A^3
Pressure:                            0.882117E-05 au     0.259528E+09 Pa
>> Charges saved for restart in charges.bin

total energy  -1.9326025E+02 H       energy change -4.0535291E-04 H
gradient norm  1.5003492E-02 H/a0    max. gradient  5.5449462E-03 H/a0
step length    8.7706759E-02 a0      max. step      1.6282198E-02 a0

--------------------------------------------------------------------------------

***  Geometry step: 31

 iSCC Total electronic   Diff electronic      SCC error    
    1   -0.19518929E+03    0.00000000E+00    0.38759233E-02
    2   -0.19518541E+03    0.38803824E-02    0.21899903E-02
    3   -0.19518541E+03   -0.59279773E-05    0.45998040E-03
    4   -0.19518541E+03   -0.11057838E-05    0.45206311E-04
    5   -0.19518541E+03   -0.49326928E-07    0.15102375E-04
    6   -0.19518541E+03   -0.17936088E-08    0.52502756E-05
    7   -0.19518541E+03   -0.51670668E-10    0.91731862E-06
    8   -0.19518541E+03   -0.19610980E-11    0.12470432E-06
    9   -0.19518541E+03   -0.19895197E-12    0.43642979E-07
   10   -0.19518541E+03   -0.14210855E-12    0.54937312E-08

Total Energy:                     -193.2606751345 H        -5258.8905 eV
Extrapolated to 0K:               -193.2606751345 H        -5258.8905 eV
Total Mermin free energy:         -193.2606751345 H        -5258.8905 eV
Force related energy:             -193.2606751345 H        -5258.8905 eV

Volume:                              0.112286E+05 au^3   0.166391E+04 A^3
Pressure:                            0.719465E-05 au     0.211674E+09 Pa
>> Charges saved for restart in charges.bin

total energy  -1.9326068E+02 H       energy change -4.2704005E-04 H
gradient norm  1.5221218E-02 H/a0    max. gradient  4.4439272E-03 H/a0
step length    8.8976368E-02 a0      max. step      1.7856655E-02 a0

--------------------------------------------------------------------------------

***  Geometry step: 32

 iSCC Total electronic   Diff electronic      SCC error    
    1   -0.19518541E+03    0.00000000E+00    0.40593719E-02
    2   -0.19517942E+03    0.59938028E-02    0.23231415E-02
    3   -0.19517943E+03   -0.59971676E-05    0.46097235E-03
    4   -0.19517943E+03   -0.11092425E-05    0.54509044E-04
    5   -0.19517943E+03   -0.57274661E-07    0.22245199E-04
    6   -0.19517943E+03   -0.21953213E-08    0.64755155E-05
    7   -0.19517943E+03   -0.70116357E-10    0.99797642E-06
    8   -0.19517943E+03   -0.36095571E-11    0.19669458E-06
    9   -0.19517943E+03   -0.31263880E-12    0.52592120E-07
   10   -0.19517943E+03   -0.85265128E-13    0.52254672E-08

Total Energy:                     -193.2611194790 H        -5258.9026 eV
Extrapolated to 0K:               -193.2611194790 H        -5258.9026 eV
Total Mermin free energy:         -193.2611194790 H        -5258.9026 eV
Force related energy:             -193.2611194790 H        -5258.9026 eV

Volume:                              0.112401E+05 au^3   0.166561E+04 A^3
Pressure:                            0.460132E-05 au     0.135376E+09 Pa
>> Charges saved for restart in charges.bin

total energy  -1.9326112E+02 H       energy change -4.4434449E-04 H
gradient norm  1.6632021E-02 H/a0    max. gradient  3.6719185E-03 H/a0
step length    1.0074565E-01 a0      max. step      2.2429852E-02 a0

--------------------------------------------------------------------------------

***  Geometry step: 33

 iSCC Total electronic   Diff electronic      SCC error    
    1   -0.19517943E+03    0.00000000E+00    0.34265585E-02
    2   -0.19517499E+03    0.44408741E-02    0.16981185E-02
    3   -0.19517499E+03   -0.73396462E-05    0.43885977E-03
    4   -0.19517500E+03   -0.12143729E-05    0.61828498E-04
    5   -0.19517500E+03   -0.56851462E-07    0.22899986E-04
    6   -0.19517500E+03   -0.28245211E-08    0.73030785E-05
    7   -0.19517500E+03   -0.68268946E-10    0.10884077E-05
    8   -0.19517500E+03   -0.40074610E-11    0.20443198E-06
    9   -0.19517500E+03   -0.28421709E-12    0.50476903E-07
   10   -0.19517500E+03    0.00000000E+00    0.63206098E-08

Total Energy:                     -193.2616041508 H        -5258.9158 eV
Extrapolated to 0K:               -193.2616041508 H        -5258.9158 eV
Total Mermin free energy:         -193.2616041508 H        -5258.9158 eV
Force related energy:             -193.2616041508 H        -5258.9158 eV

Volume:                              0.112493E+05 au^3   0.166698E+04 A^3
Pressure:                            0.234456E-05 au     0.689793E+08 Pa
>> Charges saved for restart in charges.bin

total energy  -1.9326160E+02 H       energy change -4.8467179E-04 H
gradient norm  1.7368480E-02 H/a0    max. gradient  3.1504875E-03 H/a0
step length    1.1270941E-01 a0      max. step      2.6226060E-02 a0

--------------------------------------------------------------------------------

***  Geometry step: 34

 iSCC Total electronic   Diff electronic      SCC error    
    1   -0.19517500E+03    0.00000000E+00    0.37033878E-02
    2   -0.19517434E+03    0.65810093E-03    0.21605436E-02
    3   -0.19517435E+03   -0.99319068E-05    0.58270572E-03
    4   -0.19517435E+03   -0.16481879E-05    0.66368582E-04
    5   -0.19517435E+03   -0.62074804E-07    0.19867290E-04
    6   -0.19517435E+03   -0.28276474E-08    0.73601644E-05
    7   -0.19517435E+03   -0.54484417E-10    0.14987891E-05
    8   -0.19517435E+03   -0.28421709E-11    0.32095765E-06
    9   -0.19517435E+03   -0.17053026E-12    0.45979910E-07
   10   -0.19517435E+03   -0.56843419E-13    0.67329857E-08

Total Energy:                     -193.2621817312 H        -5258.9315 eV
Extrapolated to 0K:               -193.2621817312 H        -5258.9315 eV
Total Mermin free energy:         -193.2621817312 H        -5258.9315 eV
Force related energy:             -193.2621817312 H        -5258.9315 eV

Volume:                              0.112582E+05 au^3   0.166829E+04 A^3
Pressure:                            0.130647E-05 au     0.384375E+08 Pa
>> Charges saved for restart in charges.bin

total energy  -1.9326218E+02 H       energy change -5.7758042E-04 H
gradient norm  1.7162535E-02 H/a0    max. gradient  3.3723348E-03 H/a0
step length    1.3981196E-01 a0      max. step      3.2121817E-02 a0

--------------------------------------------------------------------------------

***  Geometry step: 35

 iSCC Total electronic   Diff electronic      SCC error    
    1   -0.19517435E+03    0.00000000E+00    0.39106727E-02
    2   -0.19517937E+03   -0.50171943E-02    0.19256851E-02
    3   -0.19517938E+03   -0.11313913E-04    0.51258657E-03
    4   -0.19517938E+03   -0.18443332E-05    0.52980303E-04
    5   -0.19517938E+03   -0.57528013E-07    0.82814823E-05
    6   -0.19517938E+03   -0.25118254E-08    0.35432812E-05
    7   -0.19517938E+03   -0.37886139E-10    0.11590697E-05
    8   -0.19517938E+03   -0.16200374E-11    0.34650239E-06
    9   -0.19517938E+03   -0.14210855E-12    0.58337795E-07
   10   -0.19517938E+03   -0.28421709E-13    0.72037745E-08

Total Energy:                     -193.2627358271 H        -5258.9466 eV
Extrapolated to 0K:               -193.2627358271 H        -5258.9466 eV
Total Mermin free energy:         -193.2627358271 H        -5258.9466 eV
Force related energy:             -193.2627358271 H        -5258.9466 eV

Volume:                              0.112661E+05 au^3   0.166946E+04 A^3
Pressure:                            0.228548E-05 au     0.672411E+08 Pa
>> Charges saved for restart in charges.bin

total energy  -1.9326274E+02 H       energy change -5.5409582E-04 H
gradient norm  1.6524269E-02 H/a0    max. gradient  4.8968347E-03 H/a0
step length    1.4998754E-01 a0      max. step      3.2509844E-02 a0

--------------------------------------------------------------------------------

***  Geometry step: 36

 iSCC Total electronic   Diff electronic      SCC error    
    1   -0.19517938E+03    0.00000000E+00    0.44040406E-02
    2   -0.19518726E+03   -0.78845291E-02    0.24987983E-02
    3   -0.19518727E+03   -0.91547708E-05    0.60566279E-03
    4   -0.19518728E+03   -0.15280843E-05    0.46970393E-04
    5   -0.19518728E+03   -0.54722506E-07    0.12245573E-04
    6   -0.19518728E+03   -0.21175595E-08    0.46831303E-05
    7   -0.19518728E+03   -0.24812152E-10    0.11840280E-05
    8   -0.19518728E+03   -0.88107299E-12    0.29787905E-06
    9   -0.19518728E+03   -0.25579538E-12    0.47734643E-07
   10   -0.19518728E+03    0.85265128E-13    0.45840691E-08

Total Energy:                     -193.2631961758 H        -5258.9591 eV
Extrapolated to 0K:               -193.2631961758 H        -5258.9591 eV
Total Mermin free energy:         -193.2631961758 H        -5258.9591 eV
Force related energy:             -193.2631961758 H        -5258.9591 eV

Volume:                              0.112736E+05 au^3   0.167057E+04 A^3
Pressure:                            0.456710E-05 au     0.134369E+09 Pa
>> Charges saved for restart in charges.bin

total energy  -1.9326320E+02 H       energy change -4.6034878E-04 H
gradient norm  1.5482202E-02 H/a0    max. gradient  5.2669480E-03 H/a0
step length    1.3626852E-01 a0      max. step      2.7032777E-02 a0

--------------------------------------------------------------------------------

***  Geometry step: 37

 iSCC Total electronic   Diff electronic      SCC error    
    1   -0.19518728E+03    0.00000000E+00    0.41122852E-02
    2   -0.19519428E+03   -0.69999760E-02    0.24146671E-02
    3   -0.19519428E+03   -0.95086617E-05    0.63588747E-03
    4   -0.19519429E+03   -0.15386940E-05    0.45571217E-04
    5   -0.19519429E+03   -0.62606148E-07    0.16085109E-04
    6   -0.19519429E+03   -0.26061855E-08    0.65776561E-05
    7   -0.19519429E+03   -0.33196557E-10    0.13504474E-05
    8   -0.19519429E+03   -0.15916157E-11    0.30581300E-06
    9   -0.19519429E+03   -0.85265128E-13    0.48012874E-07
   10   -0.19519429E+03   -0.28421709E-13    0.55728755E-08

Total Energy:                     -193.2636245703 H        -5258.9708 eV
Extrapolated to 0K:               -193.2636245703 H        -5258.9708 eV
Total Mermin free energy:         -193.2636245703 H        -5258.9708 eV
Force related energy:             -193.2636245703 H        -5258.9708 eV

Volume:                              0.112821E+05 au^3   0.167183E+04 A^3
Pressure:                            0.625815E-05 au     0.184121E+09 Pa
>> Charges saved for restart in charges.bin

total energy  -1.9326362E+02 H       energy change -4.2839448E-04 H
gradient norm  1.4655078E-02 H/a0    max. gradient  4.3196891E-03 H/a0
step length    1.3333966E-01 a0      max. step      2.4697958E-02 a0

--------------------------------------------------------------------------------

***  Geometry step: 38

 iSCC Total electronic   Diff electronic      SCC error    
    1   -0.19519429E+03    0.00000000E+00    0.30398023E-02
    2   -0.19519909E+03   -0.48039336E-02    0.17769875E-02
    3   -0.19519910E+03   -0.11613420E-04    0.53944759E-03
    4   -0.19519910E+03   -0.18287907E-05    0.57892460E-04
    5   -0.19519910E+03   -0.70455314E-07    0.12261450E-04
    6   -0.19519910E+03   -0.34519871E-08    0.51011757E-05
    7   -0.19519910E+03   -0.45616844E-10    0.14625973E-05
    8   -0.19519910E+03   -0.14210855E-11    0.37191071E-06
    9   -0.19519910E+03   -0.11368684E-12    0.61981128E-07
   10   -0.19519910E+03   -0.56843419E-13    0.70186852E-08

Total Energy:                     -193.2640460132 H        -5258.9823 eV
Extrapolated to 0K:               -193.2640460132 H        -5258.9823 eV
Total Mermin free energy:         -193.2640460132 H        -5258.9823 eV
Force related energy:             -193.2640460132 H        -5258.9823 eV

Volume:                              0.112902E+05 au^3   0.167304E+04 A^3
Pressure:                            0.720988E-05 au     0.212122E+09 Pa
>> Charges saved for restart in charges.bin

total energy  -1.9326405E+02 H       energy change -4.2144286E-04 H
gradient norm  1.5079051E-02 H/a0    max. gradient  3.4005572E-03 H/a0
step length    1.3237100E-01 a0      max. step      2.4950997E-02 a0

--------------------------------------------------------------------------------

***  Geometry step: 39

 iSCC Total electronic   Diff electronic      SCC error    
    1   -0.19519910E+03    0.00000000E+00    0.33480409E-02
    2   -0.19519972E+03   -0.61133347E-03    0.20057973E-02
    3   -0.19519973E+03   -0.10237976E-04    0.56632271E-03
    4   -0.19519973E+03   -0.15851570E-05    0.62395458E-04
    5   -0.19519973E+03   -0.71271216E-07    0.11896201E-04
    6   -0.19519973E+03   -0.32759431E-08    0.48398212E-05
    7   -0.19519973E+03   -0.37971404E-10    0.14444807E-05
    8   -0.19519973E+03   -0.13073986E-11    0.36449748E-06
    9   -0.19519973E+03    0.28421709E-13    0.73534026E-07
   10   -0.19519973E+03   -0.11368684E-12    0.99932480E-08

Total Energy:                     -193.2644711966 H        -5258.9938 eV
Extrapolated to 0K:               -193.2644711966 H        -5258.9938 eV
Total Mermin free energy:         -193.2644711966 H        -5258.9938 eV
Force related energy:             -193.2644711966 H        -5258.9938 eV

Volume:                              0.112988E+05 au^3   0.167431E+04 A^3
Pressure:                            0.688335E-05 au     0.202515E+09 Pa
>> Charges saved for restart in charges.bin

total energy  -1.9326447E+02 H       energy change -4.2518344E-04 H
gradient norm  1.5517883E-02 H/a0    max. gradient  2.7670832E-03 H/a0
step length    1.3218364E-01 a0      max. step      2.6203970E-02 a0

--------------------------------------------------------------------------------

***  Geometry step: 40

 iSCC Total electronic   Diff electronic      SCC error    
    1   -0.19519973E+03    0.00000000E+00    0.40680800E-02
    2   -0.19519595E+03    0.37746111E-02    0.23625369E-02
    3   -0.19519597E+03   -0.13115798E-04    0.66710368E-03
    4   -0.19519597E+03   -0.18178143E-05    0.50568080E-04
    5   -0.19519597E+03   -0.96014617E-07    0.19156131E-04
    6   -0.19519597E+03   -0.39732981E-08    0.65087003E-05
    7   -0.19519597E+03   -0.47435833E-10    0.16790293E-05
    8   -0.19519597E+03   -0.19895197E-11    0.28236646E-06
    9   -0.19519597E+03   -0.39790393E-12    0.49435129E-07
   10   -0.19519597E+03    0.56843419E-13    0.93770813E-08

Total Energy:                     -193.2649405425 H        -5259.0066 eV
Extrapolated to 0K:               -193.2649405425 H        -5259.0066 eV
Total Mermin free energy:         -193.2649405425 H        -5259.0066 eV
Force related energy:             -193.2649405425 H        -5259.0066 eV

Volume:                              0.113083E+05 au^3   0.167572E+04 A^3
Pressure:                            0.501505E-05 au     0.147548E+09 Pa
>> Charges saved for restart in charges.bin

total energy  -1.9326494E+02 H       energy change -4.6934589E-04 H
gradient norm  1.5453737E-02 H/a0    max. gradient  4.0057989E-03 H/a0
step length    1.4368220E-01 a0      max. step      3.2686057E-02 a0

--------------------------------------------------------------------------------

***  Geometry step: 41

 iSCC Total electronic   Diff electronic      SCC error    
    1   -0.19519597E+03    0.00000000E+00    0.38766961E-02
    2   -0.19519129E+03    0.46815785E-02    0.18028957E-02
    3   -0.19519130E+03   -0.11743139E-04    0.54243891E-03
    4   -0.19519130E+03   -0.14106963E-05    0.59458159E-04
    5   -0.19519130E+03   -0.76194226E-07    0.21575118E-04
    6   -0.19519130E+03   -0.27939109E-08    0.63022107E-05
    7   -0.19519130E+03   -0.40358827E-10    0.12279913E-05
    8   -0.19519130E+03   -0.23305802E-11    0.19156067E-06
    9   -0.19519130E+03   -0.25579538E-12    0.43461033E-07
   10   -0.19519130E+03   -0.56843419E-13    0.65882073E-08

Total Energy:                     -193.2653538219 H        -5259.0179 eV
Extrapolated to 0K:               -193.2653538219 H        -5259.0179 eV
Total Mermin free energy:         -193.2653538219 H        -5259.0179 eV
Force related energy:             -193.2653538219 H        -5259.0179 eV

Volume:                              0.113160E+05 au^3   0.167686E+04 A^3
Pressure:                            0.301329E-05 au     0.886540E+08 Pa
>> Charges saved for restart in charges.bin

total energy  -1.9326535E+02 H       energy change -4.1327939E-04 H
gradient norm  1.4514481E-02 H/a0    max. gradient  3.3777945E-03 H/a0
step length    1.3301348E-01 a0      max. step      3.2832337E-02 a0

--------------------------------------------------------------------------------

***  Geometry step: 42

 iSCC Total electronic   Diff electronic      SCC error    
    1   -0.19519130E+03    0.00000000E+00    0.30749941E-02
    2   -0.19518897E+03    0.23285531E-02    0.13824364E-02
    3   -0.19518898E+03   -0.96886203E-05    0.40863133E-03
    4   -0.19518898E+03   -0.11428357E-05    0.58109318E-04
    5   -0.19518898E+03   -0.35604756E-07    0.17063913E-04
    6   -0.19518898E+03   -0.23180462E-08    0.61059397E-05
    7   -0.19518898E+03   -0.41154635E-10    0.10614457E-05
    8   -0.19518898E+03   -0.20179414E-11    0.16563764E-06
    9   -0.19518898E+03   -0.17053026E-12    0.42420779E-07
   10   -0.19518898E+03    0.00000000E+00    0.71549535E-08

Total Energy:                     -193.2656970079 H        -5259.0272 eV
Extrapolated to 0K:               -193.2656970079 H        -5259.0272 eV
Total Mermin free energy:         -193.2656970079 H        -5259.0272 eV
Force related energy:             -193.2656970079 H        -5259.0272 eV

Volume:                              0.113227E+05 au^3   0.167785E+04 A^3
Pressure:                            0.200076E-05 au     0.588643E+08 Pa
>> Charges saved for restart in charges.bin

total energy  -1.9326570E+02 H       energy change -3.4318600E-04 H
gradient norm  1.3342065E-02 H/a0    max. gradient  2.4206441E-03 H/a0
step length    1.1585573E-01 a0      max. step      2.8474349E-02 a0

--------------------------------------------------------------------------------

***  Geometry step: 43

 iSCC Total electronic   Diff electronic      SCC error    
    1   -0.19518898E+03    0.00000000E+00    0.28188908E-02
    2   -0.19518953E+03   -0.55119323E-03    0.14816527E-02
    3   -0.19518954E+03   -0.92534800E-05    0.41129872E-03
    4   -0.19518954E+03   -0.13056485E-05    0.53871915E-04
    5   -0.19518954E+03   -0.36511068E-07    0.10004465E-04
    6   -0.19518954E+03   -0.23793802E-08    0.40267682E-05
    7   -0.19518954E+03   -0.53660187E-10    0.11343104E-05
    8   -0.19518954E+03   -0.15916157E-11    0.28805034E-06
    9   -0.19518954E+03   -0.56843419E-13    0.55779028E-07
   10   -0.19518954E+03   -0.56843419E-13    0.80824520E-08

Total Energy:                     -193.2660218195 H        -5259.0360 eV
Extrapolated to 0K:               -193.2660218195 H        -5259.0360 eV
Total Mermin free energy:         -193.2660218195 H        -5259.0360 eV
Force related energy:             -193.2660218195 H        -5259.0360 eV

Volume:                              0.113301E+05 au^3   0.167895E+04 A^3
Pressure:                            0.181249E-05 au     0.533252E+08 Pa
>> Charges saved for restart in charges.bin

total energy  -1.9326602E+02 H       energy change -3.2481162E-04 H
gradient norm  1.2609205E-02 H/a0    max. gradient  2.5740051E-03 H/a0
step length    1.1936906E-01 a0      max. step      2.7702404E-02 a0

--------------------------------------------------------------------------------

***  Geometry step: 44

 iSCC Total electronic   Diff electronic      SCC error    
    1   -0.19518954E+03    0.00000000E+00    0.28906483E-02
    2   -0.19519316E+03   -0.36215441E-02    0.17110373E-02
    3   -0.19519317E+03   -0.70687100E-05    0.46087394E-03
    4   -0.19519317E+03   -0.11790256E-05    0.44086612E-04
    5   -0.19519317E+03   -0.40989505E-07    0.83053001E-05
    6   -0.19519317E+03   -0.27373233E-08    0.17970597E-05
    7   -0.19519317E+03   -0.58946625E-10    0.46187644E-06
    8   -0.19519317E+03   -0.11368684E-11    0.18361741E-06
    9   -0.19519317E+03   -0.56843419E-13    0.53804862E-07
   10   -0.19519317E+03    0.00000000E+00    0.12250735E-07
   11   -0.19519317E+03   -0.56843419E-13    0.13093655E-08

Total Energy:                     -193.2663140142 H        -5259.0440 eV
Extrapolated to 0K:               -193.2663140142 H        -5259.0440 eV
Total Mermin free energy:         -193.2663140142 H        -5259.0440 eV
Force related energy:             -193.2663140142 H        -5259.0440 eV

Volume:                              0.113370E+05 au^3   0.167998E+04 A^3
Pressure:                            0.290802E-05 au     0.855569E+08 Pa
>> Charges saved for restart in charges.bin

total energy  -1.9326631E+02 H       energy change -2.9219472E-04 H
gradient norm  1.2352188E-02 H/a0    max. gradient  3.5456691E-03 H/a0
step length    1.1544835E-01 a0      max. step      2.4363933E-02 a0

--------------------------------------------------------------------------------

***  Geometry step: 45

 iSCC Total electronic   Diff electronic      SCC error    
    1   -0.19519317E+03    0.00000000E+00    0.31270240E-02
    2   -0.19519693E+03   -0.37535697E-02    0.18306780E-02
    3   -0.19519693E+03   -0.58148749E-05    0.44816842E-03
    4   -0.19519693E+03   -0.98572696E-06    0.53712792E-04
    5   -0.19519693E+03   -0.40950681E-07    0.98366540E-05
    6   -0.19519693E+03   -0.28088891E-08    0.40469492E-05
    7   -0.19519693E+03   -0.51073812E-10    0.95139073E-06
    8   -0.19519693E+03   -0.12221335E-11    0.25756432E-06
    9   -0.19519693E+03   -0.85265128E-13    0.40483064E-07
   10   -0.19519693E+03    0.28421709E-13    0.56409353E-08

Total Energy:                     -193.2665857906 H        -5259.0514 eV
Extrapolated to 0K:               -193.2665857906 H        -5259.0514 eV
Total Mermin free energy:         -193.2665857906 H        -5259.0514 eV
Force related energy:             -193.2665857906 H        -5259.0514 eV

Volume:                              0.113449E+05 au^3   0.168114E+04 A^3
Pressure:                            0.388985E-05 au     0.114443E+09 Pa
>> Charges saved for restart in charges.bin

total energy  -1.9326659E+02 H       energy change -2.7177631E-04 H
gradient norm  1.2195847E-02 H/a0    max. gradient  3.8413939E-03 H/a0
step length    1.2006867E-01 a0      max. step      2.3685124E-02 a0

--------------------------------------------------------------------------------

***  Geometry step: 46

 iSCC Total electronic   Diff electronic      SCC error    
    1   -0.19519693E+03    0.00000000E+00    0.27805148E-02
    2   -0.19519979E+03   -0.28608883E-02    0.16282084E-02
    3   -0.19519980E+03   -0.59332542E-05    0.44130230E-03
    4   -0.19519980E+03   -0.87152330E-06    0.61210794E-04
    5   -0.19519980E+03   -0.41096456E-07    0.16168310E-04
    6   -0.19519980E+03   -0.26618068E-08    0.58470675E-05
    7   -0.19519980E+03   -0.44252602E-10    0.86354172E-06
    8   -0.19519980E+03   -0.16768809E-11    0.16220355E-06
    9   -0.19519980E+03   -0.25579538E-12    0.52949632E-07
   10   -0.19519980E+03    0.56843419E-13    0.58255281E-08

Total Energy:                     -193.2668594203 H        -5259.0588 eV
Extrapolated to 0K:               -193.2668594203 H        -5259.0588 eV
Total Mermin free energy:         -193.2668594203 H        -5259.0588 eV
Force related energy:             -193.2668594203 H        -5259.0588 eV

Volume:                              0.113525E+05 au^3   0.168226E+04 A^3
Pressure:                            0.461271E-05 au     0.135710E+09 Pa
>> Charges saved for restart in charges.bin

total energy  -1.9326686E+02 H       energy change -2.7362974E-04 H
gradient norm  1.2120457E-02 H/a0    max. gradient  3.5745607E-03 H/a0
step length    1.2445174E-01 a0      max. step      2.5558625E-02 a0

--------------------------------------------------------------------------------

***  Geometry step: 47

 iSCC Total electronic   Diff electronic      SCC error    
    1   -0.19519980E+03    0.00000000E+00    0.29674504E-02
    2   -0.19520042E+03   -0.61915464E-03    0.15543345E-02
    3   -0.19520043E+03   -0.75012283E-05    0.46936360E-03
    4   -0.19520043E+03   -0.10189157E-05    0.61863639E-04
    5   -0.19520043E+03   -0.49849348E-07    0.18491784E-04
    6   -0.19520043E+03   -0.30315448E-08    0.60837741E-05
    7   -0.19520043E+03   -0.45304205E-10    0.84935836E-06
    8   -0.19520043E+03   -0.18474111E-11    0.12434821E-06
    9   -0.19520043E+03   -0.28421709E-12    0.38476003E-07
   10   -0.19520043E+03    0.85265128E-13    0.38278927E-08

Total Energy:                     -193.2671426852 H        -5259.0665 eV
Extrapolated to 0K:               -193.2671426852 H        -5259.0665 eV
Total Mermin free energy:         -193.2671426852 H        -5259.0665 eV
Force related energy:             -193.2671426852 H        -5259.0665 eV

Volume:                              0.113602E+05 au^3   0.168340E+04 A^3
Pressure:                            0.428253E-05 au     0.125996E+09 Pa
>> Charges saved for restart in charges.bin

total energy  -1.9326714E+02 H       energy change -2.8326492E-04 H
gradient norm  1.1850650E-02 H/a0    max. gradient  2.9130791E-03 H/a0
step length    1.3588332E-01 a0      max. step      3.0604788E-02 a0

--------------------------------------------------------------------------------

***  Geometry step: 48

 iSCC Total electronic   Diff electronic      SCC error    
    1   -0.19520043E+03    0.00000000E+00    0.30036786E-02
    2   -0.19519942E+03    0.10128938E-02    0.17334654E-02
    3   -0.19519942E+03   -0.69337800E-05    0.45000498E-03
    4   -0.19519942E+03   -0.11154385E-05    0.80020136E-04
    5   -0.19519942E+03   -0.52984291E-07    0.14899618E-04
    6   -0.19519942E+03   -0.32624996E-08    0.45883212E-05
    7   -0.19519942E+03   -0.61106675E-10    0.98925020E-06
    8   -0.19519942E+03   -0.17621460E-11    0.18631579E-06
    9   -0.19519942E+03   -0.14210855E-12    0.37657456E-07
   10   -0.19519942E+03   -0.28421709E-13    0.78834090E-08

Total Energy:                     -193.2673829572 H        -5259.0731 eV
Extrapolated to 0K:               -193.2673829572 H        -5259.0731 eV
Total Mermin free energy:         -193.2673829572 H        -5259.0731 eV
Force related energy:             -193.2673829572 H        -5259.0731 eV

Volume:                              0.113649E+05 au^3   0.168411E+04 A^3
Pressure:                            0.355000E-05 au     0.104445E+09 Pa
>> Charges saved for restart in charges.bin

total energy  -1.9326738E+02 H       energy change -2.4027196E-04 H
gradient norm  1.0784554E-02 H/a0    max. gradient  2.2756300E-03 H/a0
step length    1.1227508E-01 a0      max. step      2.7647054E-02 a0

--------------------------------------------------------------------------------

***  Geometry step: 49

 iSCC Total electronic   Diff electronic      SCC error    
    1   -0.19519942E+03    0.00000000E+00    0.25120166E-02
    2   -0.19519771E+03    0.17110117E-02    0.14505599E-02
    3   -0.19519772E+03   -0.39891720E-05    0.28678819E-03
    4   -0.19519772E+03   -0.80615484E-06    0.52009710E-04
    5   -0.19519772E+03   -0.31356450E-07    0.14150932E-04
    6   -0.19519772E+03   -0.19848869E-08    0.44891931E-05
    7   -0.19519772E+03   -0.33509195E-10    0.93979649E-06
    8   -0.19519772E+03   -0.10800250E-11    0.19349884E-06
    9   -0.19519772E+03   -0.17053026E-12    0.45765222E-07
   10   -0.19519772E+03    0.28421709E-13    0.64013843E-08

Total Energy:                     -193.2675580966 H        -5259.0778 eV
Extrapolated to 0K:               -193.2675580966 H        -5259.0778 eV
Total Mermin free energy:         -193.2675580966 H        -5259.0778 eV
Force related energy:             -193.2675580966 H        -5259.0778 eV

Volume:                              0.113667E+05 au^3   0.168438E+04 A^3
Pressure:                            0.253725E-05 au     0.746485E+08 Pa
>> Charges saved for restart in charges.bin

total energy  -1.9326756E+02 H       energy change -1.7513943E-04 H
gradient norm  9.5602509E-03 H/a0    max. gradient  2.1860870E-03 H/a0
step length    6.9726211E-02 a0      max. step      1.8048441E-02 a0

--------------------------------------------------------------------------------

***  Geometry step: 50

 iSCC Total electronic   Diff electronic      SCC error    
    1   -0.19519772E+03    0.00000000E+00    0.20470526E-02
    2   -0.19519706E+03    0.66049473E-03    0.11284992E-02
    3   -0.19519706E+03   -0.33538349E-05    0.23264744E-03
    4   -0.19519706E+03   -0.65151201E-06    0.34743627E-04
    5   -0.19519706E+03   -0.18945656E-07    0.12403852E-04
    6   -0.19519706E+03   -0.84912699E-09    0.41503588E-05
    7   -0.19519706E+03   -0.18275159E-10    0.85248835E-06
    8   -0.19519706E+03   -0.82422957E-12    0.15463368E-06
    9   -0.19519706E+03    0.56843419E-13    0.48097698E-07
   10   -0.19519706E+03   -0.85265128E-13    0.44851598E-08

Total Energy:                     -193.2677064057 H        -5259.0819 eV
Extrapolated to 0K:               -193.2677064057 H        -5259.0819 eV
Total Mermin free energy:         -193.2677064057 H        -5259.0819 eV
Force related energy:             -193.2677064057 H        -5259.0819 eV

Volume:                              0.113673E+05 au^3   0.168446E+04 A^3
Pressure:                            0.205602E-05 au     0.604901E+08 Pa
>> Charges saved for restart in charges.bin

total energy  -1.9326771E+02 H       energy change -1.4830910E-04 H
gradient norm  8.8254716E-03 H/a0    max. gradient  1.6235175E-03 H/a0
step length    5.2314274E-02 a0      max. step      1.2325660E-02 a0

--------------------------------------------------------------------------------

[...]
>> Charges saved for restart in charges.bin

total energy  -1.9327686E+02 H       energy change -1.9237162E-06 H
gradient norm  1.0992820E-03 H/a0    max. gradient  2.0360752E-04 H/a0
step length    7.3198826E-03 a0      max. step      2.0695189E-03 a0

--------------------------------------------------------------------------------

***  Geometry step: 173

 iSCC Total electronic   Diff electronic      SCC error    
    1   -0.19518701E+03    0.00000000E+00    0.32830422E-03
    2   -0.19518714E+03   -0.12393948E-03    0.13114099E-03
    3   -0.19518714E+03   -0.74844195E-07    0.46953334E-04
    4   -0.19518714E+03   -0.10177814E-07    0.44800992E-05
    5   -0.19518714E+03   -0.21978508E-09    0.92144558E-06
    6   -0.19518714E+03   -0.12988721E-10    0.29221118E-06
    7   -0.19518714E+03   -0.85265128E-13    0.43319717E-07
    8   -0.19518714E+03   -0.28421709E-13    0.78982869E-08

Total Energy:                     -193.2768582636 H        -5259.3309 eV
Extrapolated to 0K:               -193.2768582636 H        -5259.3309 eV
Total Mermin free energy:         -193.2768582636 H        -5259.3309 eV
Force related energy:             -193.2768582636 H        -5259.3309 eV

Volume:                              0.111666E+05 au^3   0.165472E+04 A^3
Pressure:                            0.179333E-06 au     0.527616E+07 Pa
>> Charges saved for restart in charges.bin

total energy  -1.9327686E+02 H       energy change -2.4496506E-06 H
gradient norm  1.2509513E-03 H/a0    max. gradient  3.1450661E-04 H/a0
step length    1.1910324E-02 a0      max. step      3.2087140E-03 a0

--------------------------------------------------------------------------------

***  Geometry step: 174

 iSCC Total electronic   Diff electronic      SCC error    
    1   -0.19518714E+03    0.00000000E+00    0.29603089E-03
    2   -0.19518703E+03    0.11188966E-03    0.16193278E-03
    3   -0.19518703E+03   -0.10074231E-06    0.57148499E-04
    4   -0.19518703E+03   -0.12337836E-07    0.57567739E-05
    5   -0.19518703E+03   -0.29592684E-09    0.13476690E-05
    6   -0.19518703E+03   -0.18445689E-10    0.45451327E-06
    7   -0.19518703E+03   -0.22737368E-12    0.84934446E-07
    8   -0.19518703E+03   -0.56843419E-13    0.12218103E-07
    9   -0.19518703E+03   -0.11368684E-12    0.25615190E-08

Total Energy:                     -193.2768611819 H        -5259.3310 eV
Extrapolated to 0K:               -193.2768611819 H        -5259.3310 eV
Total Mermin free energy:         -193.2768611819 H        -5259.3310 eV
Force related energy:             -193.2768611819 H        -5259.3310 eV

Volume:                              0.111661E+05 au^3   0.165464E+04 A^3
Pressure:                            0.113608E-06 au     0.334245E+07 Pa
>> Charges saved for restart in charges.bin

total energy  -1.9327686E+02 H       energy change -2.9183120E-06 H
gradient norm  1.2161806E-03 H/a0    max. gradient  3.1151720E-04 H/a0
step length    1.9982489E-02 a0      max. step      5.3807665E-03 a0

--------------------------------------------------------------------------------

***  Geometry step: 175

 iSCC Total electronic   Diff electronic      SCC error    
    1   -0.19518703E+03    0.00000000E+00    0.30689584E-03
    2   -0.19518692E+03    0.10576648E-03    0.17427233E-03
    3   -0.19518692E+03   -0.77529450E-07    0.54485513E-04
    4   -0.19518692E+03   -0.10361333E-07    0.52588278E-05
    5   -0.19518692E+03   -0.30811975E-09    0.13402651E-05
    6   -0.19518692E+03   -0.19468871E-10    0.47676969E-06
    7   -0.19518692E+03   -0.36948222E-12    0.77030469E-07
    8   -0.19518692E+03    0.00000000E+00    0.83046130E-08

Total Energy:                     -193.2768637902 H        -5259.3311 eV
Extrapolated to 0K:               -193.2768637902 H        -5259.3311 eV
Total Mermin free energy:         -193.2768637902 H        -5259.3311 eV
Force related energy:             -193.2768637902 H        -5259.3311 eV

Volume:                              0.111649E+05 au^3   0.165447E+04 A^3
Pressure:                            0.110617E-06 au     0.325447E+07 Pa
>> Charges saved for restart in charges.bin

total energy  -1.9327686E+02 H       energy change -2.6083039E-06 H
gradient norm  1.0062481E-03 H/a0    max. gradient  2.5686940E-04 H/a0
step length    2.2886519E-02 a0      max. step      6.8227433E-03 a0

--------------------------------------------------------------------------------

***  Geometry step: 176

 iSCC Total electronic   Diff electronic      SCC error    
    1   -0.19518692E+03    0.00000000E+00    0.23067360E-03
    2   -0.19518681E+03    0.10963285E-03    0.12899539E-03
    3   -0.19518681E+03   -0.40126196E-07    0.37250888E-04
    4   -0.19518681E+03   -0.58703336E-08    0.38543827E-05
    5   -0.19518681E+03   -0.13412205E-09    0.71569493E-06
    6   -0.19518681E+03   -0.76170181E-11    0.26144578E-06
    7   -0.19518681E+03   -0.17053026E-12    0.49785210E-07
    8   -0.19518681E+03    0.28421709E-13    0.87110661E-08

Total Energy:                     -193.2768653074 H        -5259.3311 eV
Extrapolated to 0K:               -193.2768653074 H        -5259.3311 eV
Total Mermin free energy:         -193.2768653074 H        -5259.3311 eV
Force related energy:             -193.2768653074 H        -5259.3311 eV

Volume:                              0.111648E+05 au^3   0.165446E+04 A^3
Pressure:                            0.763200E-07 au     0.224541E+07 Pa
>> Charges saved for restart in charges.bin

total energy  -1.9327687E+02 H       energy change -1.5172122E-06 H
gradient norm  7.9878276E-04 H/a0    max. gradient  1.8615200E-04 H/a0
step length    4.9656564E-03 a0      max. step      1.3485589E-03 a0

--------------------------------------------------------------------------------

***  Geometry step: 177

 iSCC Total electronic   Diff electronic      SCC error    
    1   -0.19518681E+03    0.00000000E+00    0.21875371E-03
    2   -0.19518676E+03    0.53563462E-04    0.97876978E-04
    3   -0.19518676E+03   -0.50798889E-07    0.33016831E-04
    4   -0.19518676E+03   -0.68897350E-08    0.49454406E-05
    5   -0.19518676E+03   -0.13221779E-09    0.54076071E-06
    6   -0.19518676E+03   -0.10373924E-10    0.20537020E-06
    7   -0.19518676E+03   -0.25579538E-12    0.49966589E-07
    8   -0.19518676E+03    0.00000000E+00    0.87584846E-08

Total Energy:                     -193.2768664958 H        -5259.3311 eV
Extrapolated to 0K:               -193.2768664958 H        -5259.3311 eV
Total Mermin free energy:         -193.2768664958 H        -5259.3311 eV
Force related energy:             -193.2768664958 H        -5259.3311 eV

Volume:                              0.111648E+05 au^3   0.165445E+04 A^3
Pressure:                            0.448353E-07 au     0.131910E+07 Pa
>> Charges saved for restart in charges.bin

total energy  -1.9327687E+02 H       energy change -1.1884611E-06 H
gradient norm  7.3398294E-04 H/a0    max. gradient  1.4790596E-04 H/a0
step length    5.6929494E-03 a0      max. step      1.3494566E-03 a0

--------------------------------------------------------------------------------

***  Geometry step: 178

 iSCC Total electronic   Diff electronic      SCC error    
    1   -0.19518676E+03    0.00000000E+00    0.14201423E-03
    2   -0.19518661E+03    0.14296877E-03    0.76580302E-04
    3   -0.19518661E+03   -0.19807544E-07    0.22545004E-04
    4   -0.19518661E+03   -0.32170249E-08    0.28661139E-05
    5   -0.19518661E+03   -0.91091579E-10    0.36910688E-06
    6   -0.19518661E+03   -0.49453774E-11    0.14849791E-06
    7   -0.19518661E+03   -0.11368684E-12    0.41006494E-07
    8   -0.19518661E+03   -0.28421709E-13    0.75055588E-08

Total Energy:                     -193.2768673520 H        -5259.3312 eV
Extrapolated to 0K:               -193.2768673520 H        -5259.3312 eV
Total Mermin free energy:         -193.2768673520 H        -5259.3312 eV
Force related energy:             -193.2768673520 H        -5259.3312 eV

Volume:                              0.111648E+05 au^3   0.165446E+04 A^3
Pressure:                           -0.195172E-07 au    -0.574216E+06 Pa
>> Charges saved for restart in charges.bin

total energy  -1.9327687E+02 H       energy change -8.5618751E-07 H
gradient norm  7.3866683E-04 H/a0    max. gradient  1.6713741E-04 H/a0
step length    4.6735269E-03 a0      max. step      9.5871956E-04 a0

--------------------------------------------------------------------------------

***  Geometry step: 179

 iSCC Total electronic   Diff electronic      SCC error    
    1   -0.19518661E+03    0.00000000E+00    0.16846834E-03
    2   -0.19518667E+03   -0.53835450E-04    0.83000599E-04
    3   -0.19518667E+03   -0.25090003E-07    0.25208297E-04
    4   -0.19518667E+03   -0.40496104E-08    0.30378828E-05
    5   -0.19518667E+03   -0.12849455E-09    0.37927012E-06
    6   -0.19518667E+03   -0.84128260E-11    0.10133724E-06
    7   -0.19518667E+03   -0.85265128E-13    0.28254594E-07
    8   -0.19518667E+03   -0.11368684E-12    0.65109433E-08

Total Energy:                     -193.2768685555 H        -5259.3312 eV
Extrapolated to 0K:               -193.2768685555 H        -5259.3312 eV
Total Mermin free energy:         -193.2768685555 H        -5259.3312 eV
Force related energy:             -193.2768685555 H        -5259.3312 eV

Volume:                              0.111649E+05 au^3   0.165446E+04 A^3
Pressure:                            0.261472E-08 au     0.769276E+05 Pa
>> Charges saved for restart in charges.bin

total energy  -1.9327687E+02 H       energy change -1.2034542E-06 H
gradient norm  8.0463267E-04 H/a0    max. gradient  2.1058867E-04 H/a0
step length    6.5873597E-03 a0      max. step      1.4137163E-03 a0

--------------------------------------------------------------------------------

***  Geometry step: 180

 iSCC Total electronic   Diff electronic      SCC error    
    1   -0.19518667E+03    0.00000000E+00    0.21726468E-03
    2   -0.19518671E+03   -0.41907964E-04    0.89922979E-04
    3   -0.19518671E+03   -0.33805861E-07    0.28862487E-04
    4   -0.19518671E+03   -0.48851518E-08    0.31143143E-05
    5   -0.19518671E+03   -0.18735591E-09    0.66854215E-06
    6   -0.19518671E+03   -0.10743406E-10    0.24969900E-06
    7   -0.19518671E+03   -0.19895197E-12    0.61473152E-07
    8   -0.19518671E+03   -0.56843419E-13    0.81121692E-08

Total Energy:                     -193.2768700086 H        -5259.3312 eV
Extrapolated to 0K:               -193.2768700086 H        -5259.3312 eV
Total Mermin free energy:         -193.2768700086 H        -5259.3312 eV
Force related energy:             -193.2768700086 H        -5259.3312 eV

Volume:                              0.111650E+05 au^3   0.165448E+04 A^3
Pressure:                            0.704177E-08 au     0.207176E+06 Pa
>> Charges saved for restart in charges.bin

total energy  -1.9327687E+02 H       energy change -1.4531339E-06 H
gradient norm  8.7777141E-04 H/a0    max. gradient  1.8956733E-04 H/a0
step length    9.0115923E-03 a0      max. step      2.1495010E-03 a0

--------------------------------------------------------------------------------

***  Geometry step: 181

 iSCC Total electronic   Diff electronic      SCC error    
    1   -0.19518671E+03    0.00000000E+00    0.23247903E-03
    2   -0.19518667E+03    0.35948925E-04    0.10839714E-03
    3   -0.19518667E+03   -0.49621320E-07    0.35767354E-04
    4   -0.19518667E+03   -0.59565650E-08    0.35527325E-05
    5   -0.19518667E+03   -0.21677238E-09    0.12568529E-05
    6   -0.19518667E+03   -0.12221335E-10    0.42910410E-06
    7   -0.19518667E+03   -0.11368684E-12    0.36011369E-07
    8   -0.19518667E+03   -0.56843419E-13    0.66372396E-08

Total Energy:                     -193.2768718735 H        -5259.3313 eV
Extrapolated to 0K:               -193.2768718735 H        -5259.3313 eV
Total Mermin free energy:         -193.2768718735 H        -5259.3313 eV
Force related energy:             -193.2768718735 H        -5259.3313 eV

Volume:                              0.111645E+05 au^3   0.165440E+04 A^3
Pressure:                           -0.250440E-08 au    -0.736819E+05 Pa
>> Charges saved for restart in charges.bin

total energy  -1.9327687E+02 H       energy change -1.8649015E-06 H
gradient norm  9.3590477E-04 H/a0    max. gradient  1.9027091E-04 H/a0
step length    2.1459597E-02 a0      max. step      6.1307422E-03 a0

--------------------------------------------------------------------------------

***  Geometry step: 182

 iSCC Total electronic   Diff electronic      SCC error    
    1   -0.19518667E+03    0.00000000E+00    0.22764780E-03
    2   -0.19518680E+03   -0.12609003E-03    0.12829491E-03
    3   -0.19518680E+03   -0.54123689E-07    0.40098349E-04
    4   -0.19518680E+03   -0.69549344E-08    0.56269752E-05
    5   -0.19518680E+03   -0.19235813E-09    0.15964669E-05
    6   -0.19518680E+03   -0.13585577E-10    0.50382980E-06
    7   -0.19518680E+03   -0.25579538E-12    0.43079383E-07
    8   -0.19518680E+03   -0.85265128E-13    0.72235720E-08

Total Energy:                     -193.2768736189 H        -5259.3313 eV
Extrapolated to 0K:               -193.2768736189 H        -5259.3313 eV
Total Mermin free energy:         -193.2768736189 H        -5259.3313 eV
Force related energy:             -193.2768736189 H        -5259.3313 eV

Volume:                              0.111641E+05 au^3   0.165435E+04 A^3
Pressure:                            0.239635E-07 au     0.705031E+06 Pa
>> Charges saved for restart in charges.bin

total energy  -1.9327687E+02 H       energy change -1.7453825E-06 H
gradient norm  9.1853602E-04 H/a0    max. gradient  1.8178049E-04 H/a0
step length    1.9607722E-02 a0      max. step      5.2934798E-03 a0

--------------------------------------------------------------------------------

***  Geometry step: 183

 iSCC Total electronic   Diff electronic      SCC error    
    1   -0.19518680E+03    0.00000000E+00    0.25931565E-03
    2   -0.19518688E+03   -0.80938898E-04    0.93273965E-04
    3   -0.19518688E+03   -0.34104545E-07    0.26054177E-04
    4   -0.19518688E+03   -0.49767266E-08    0.27653931E-05
    5   -0.19518688E+03   -0.11897328E-09    0.83797186E-06
    6   -0.19518688E+03   -0.63948846E-11    0.30615033E-06
    7   -0.19518688E+03   -0.22737368E-12    0.52404324E-07
    8   -0.19518688E+03    0.56843419E-13    0.61004086E-08

Total Energy:                     -193.2768750246 H        -5259.3314 eV
Extrapolated to 0K:               -193.2768750246 H        -5259.3314 eV
Total Mermin free energy:         -193.2768750246 H        -5259.3314 eV
Force related energy:             -193.2768750246 H        -5259.3314 eV

Volume:                              0.111639E+05 au^3   0.165432E+04 A^3
Pressure:                            0.607960E-07 au     0.178868E+07 Pa
>> Charges saved for restart in charges.bin

total energy  -1.9327688E+02 H       energy change -1.4056894E-06 H
gradient norm  7.9725211E-04 H/a0    max. gradient  1.6914445E-04 H/a0
step length    5.4178535E-03 a0      max. step      1.5067428E-03 a0

--------------------------------------------------------------------------------

***  Geometry step: 184

 iSCC Total electronic   Diff electronic      SCC error    
    1   -0.19518688E+03    0.00000000E+00    0.29934812E-03
    2   -0.19518687E+03    0.10953895E-04    0.15376005E-03
    3   -0.19518687E+03   -0.51866152E-07    0.44212245E-04
    4   -0.19518687E+03   -0.81622318E-08    0.45894181E-05
    5   -0.19518687E+03   -0.29905323E-09    0.12546599E-05
    6   -0.19518687E+03   -0.12107648E-10    0.43133565E-06
    7   -0.19518687E+03   -0.85265128E-13    0.73421109E-07
    8   -0.19518687E+03   -0.11368684E-12    0.10481145E-07
    9   -0.19518687E+03    0.00000000E+00    0.24401561E-08

Total Energy:                     -193.2768763471 H        -5259.3314 eV
Extrapolated to 0K:               -193.2768763471 H        -5259.3314 eV
Total Mermin free energy:         -193.2768763471 H        -5259.3314 eV
Force related energy:             -193.2768763471 H        -5259.3314 eV

Volume:                              0.111638E+05 au^3   0.165431E+04 A^3
Pressure:                            0.607062E-07 au     0.178604E+07 Pa
>> Charges saved for restart in charges.bin

total energy  -1.9327688E+02 H       energy change -1.3224836E-06 H
gradient norm  6.4701661E-04 H/a0    max. gradient  1.9906720E-04 H/a0
step length    6.8590658E-03 a0      max. step      1.9845500E-03 a0

--------------------------------------------------------------------------------

***  Geometry step: 185

 iSCC Total electronic   Diff electronic      SCC error    
    1   -0.19518687E+03    0.00000000E+00    0.14679907E-03
    2   -0.19518682E+03    0.50566175E-04    0.84612282E-04
    3   -0.19518682E+03   -0.11900909E-07    0.21064680E-04
    4   -0.19518682E+03   -0.20964706E-08    0.22857061E-05
    5   -0.19518682E+03   -0.84526164E-10    0.53797143E-06
    6   -0.19518682E+03   -0.33537617E-11    0.19431930E-06
    7   -0.19518682E+03   -0.56843419E-13    0.40143173E-07
    8   -0.19518682E+03   -0.85265128E-13    0.58689564E-08

Total Energy:                     -193.2768769837 H        -5259.3314 eV
Extrapolated to 0K:               -193.2768769837 H        -5259.3314 eV
Total Mermin free energy:         -193.2768769837 H        -5259.3314 eV
Force related energy:             -193.2768769837 H        -5259.3314 eV

Volume:                              0.111638E+05 au^3   0.165430E+04 A^3
Pressure:                            0.424304E-07 au     0.124834E+07 Pa
>> Charges saved for restart in charges.bin

total energy  -1.9327688E+02 H       energy change -6.3662074E-07 H
gradient norm  5.7972651E-04 H/a0    max. gradient  1.4658035E-04 H/a0
step length    4.5117118E-03 a0      max. step      1.2498426E-03 a0

--------------------------------------------------------------------------------

***  Geometry step: 186

 iSCC Total electronic   Diff electronic      SCC error    
    1   -0.19518682E+03    0.00000000E+00    0.14692164E-03
    2   -0.19518668E+03    0.13868751E-03    0.81262420E-04
    3   -0.19518668E+03   -0.16418738E-07    0.19433496E-04
    4   -0.19518668E+03   -0.30277931E-08    0.28363095E-05
    5   -0.19518668E+03   -0.10984991E-09    0.88893062E-06
    6   -0.19518668E+03   -0.43485215E-11    0.29814514E-06
    7   -0.19518668E+03   -0.17053026E-12    0.47573936E-07
    8   -0.19518668E+03    0.28421709E-13    0.68093016E-08

Total Energy:                     -193.2768776805 H        -5259.3314 eV
Extrapolated to 0K:               -193.2768776805 H        -5259.3314 eV
Total Mermin free energy:         -193.2768776805 H        -5259.3314 eV
Force related energy:             -193.2768776805 H        -5259.3314 eV

Volume:                              0.111639E+05 au^3   0.165432E+04 A^3
Pressure:                           -0.147353E-07 au    -0.433528E+06 Pa
>> Charges saved for restart in charges.bin

total energy  -1.9327688E+02 H       energy change -6.9679749E-07 H
gradient norm  5.4803831E-04 H/a0    max. gradient  9.8131990E-05 H/a0
step length    6.8007150E-03 a0      max. step      1.8927468E-03 a0

Geometry converged

--------------------------------------------------------------------------------
DFTB+ running times                          cpu [s]             wall clock [s]
--------------------------------------------------------------------------------
Pre-SCC initialisation                 +       6.29 (  0.2%)       2.90 (  0.8%)
SCC                                    +    2564.42 ( 92.4%)     335.74 ( 90.6%)
Post-SCC processing                    +     205.21 (  7.4%)      31.83 (  8.6%)
--------------------------------------------------------------------------------
Missing                                +       0.23 (  0.0%)       0.01 (  0.0%)
Total                                  =    2776.16 (100.0%)     370.48 (100.0%)
--------------------------------------------------------------------------------
