|===============================================================================
|
|  DFTB+ release 24.1
|
|  Copyright (C) 2006 - 2024  DFTB+ developers group
|
|===============================================================================
|
|  When publishing results obtained with DFTB+, please cite the following
|  reference:
|
|  * DFTB+, a software package for efficient approximate density functional
|    theory based atomistic simulations, J. Chem. Phys. 152, 124101 (2020).
|    [doi: 10.1063/1.5143190]
|
|  You should also cite additional publications crediting the parametrization
|  data you use. Please consult the documentation of the SK-files for the
|  references.
|
|===============================================================================

Reading input file 'dftb_in.hsd'
Parser version: 14

--------------------------------------------------------------------------------
Reading SK-files:
./SKFiles/Si-Si.skf
./SKFiles/Si-Ge.skf
./SKFiles/Si-O.skf
./SKFiles/Ge-Ge.skf
./SKFiles/Ge-O.skf
./SKFiles/O-O.skf
Done.


Processed input in HSD format written to 'dftb_pin.hsd'

Starting initialization...
--------------------------------------------------------------------------------
WARNING!
-> Dipole printed for extended system : value printed is not well defined
MPI processes:               1
OpenMP threads:              8
BLACS orbital grid size:     1 x 1
BLACS atom grid size:        1 x 1
Chosen random seed:          154839827
Current stacksize:           unlimited
Mode:                        Static calculation
Self consistent charges:     Yes
SCC-tolerance:                 0.100000E-07
Max. scc iterations:                    500
Shell resolved Hubbard:      No
Spin polarisation:           No
Nr. of up electrons:           192.000000
Nr. of down electrons:         192.000000
Periodic boundaries:         Yes
Electronic solver:           Relatively robust
Mixer:                       Broyden mixer
Mixing parameter:                  0.200000
Maximal SCC-cycles:                     500
Nr. of chrg. vec. in memory:            500
Electronic temperature:              0.100000E-07 H      0.272114E-06 eV
Initial charges:             Set automatically (system chrg:   0.000E+00)
Included shells:            Si:  s, p, d
                            Ge:  s, p, d
                             O:  s, p
K-points and weights:           1:  0.500000  0.500000  0.500000     1.000000

K-points in absolute space:     1:  0.025319  0.017606  0.037774

Extra options:
                             Mulliken analysis
Force type                   original

--------------------------------------------------------------------------------

***  Geometry step: 0

 iSCC Total electronic   Diff electronic      SCC error    
    1    0.00000000E+00    0.00000000E+00    0.14259700E+01
    2   -0.19732527E+03   -0.19732527E+03    0.96668041E+00
    3   -0.19766802E+03   -0.34274713E+00    0.40683186E-01
    4   -0.19795676E+03   -0.28874284E+00    0.23158106E-01
    5   -0.19795832E+03   -0.15538324E-02    0.36679699E-02
    6   -0.19795842E+03   -0.10723692E-03    0.12463572E-02
    7   -0.19795843E+03   -0.24107225E-05    0.32864542E-03
    8   -0.19795843E+03   -0.53550548E-06    0.50448914E-04
    9   -0.19795843E+03   -0.32691872E-07    0.18027195E-04
   10   -0.19795843E+03   -0.18255264E-09    0.27227608E-05
   11   -0.19795843E+03   -0.85492502E-10    0.33043981E-06
   12   -0.19795843E+03   -0.31548097E-11    0.11518225E-06
   13   -0.19795843E+03   -0.28421709E-13    0.16809823E-07
   14   -0.19795843E+03    0.56843419E-13    0.49007687E-08

Total Energy:                     -190.4242094888 H        -5181.7064 eV
Extrapolated to 0K:               -190.4242094888 H        -5181.7064 eV
Total Mermin free energy:         -190.4242094888 H        -5181.7064 eV
Force related energy:             -190.4242094888 H        -5181.7064 eV

Volume:                              0.913789E+04 au^3   0.135410E+04 A^3
Pressure:                            0.249585E-02 au     0.734305E+11 Pa
>> Charges saved for restart in charges.bin

total energy  -1.9042421E+02 H       energy change -1.9042421E+02 H
gradient norm  2.3469011E+00 H/a0    max. gradient  1.3920462E+00 H/a0
step length    0.0000000E+00 a0      max. step      0.0000000E+00 a0

--------------------------------------------------------------------------------

***  Geometry step: 1

 iSCC Total electronic   Diff electronic      SCC error    
    1   -0.19795843E+03    0.00000000E+00    0.13897777E+00
    2   -0.19726693E+03    0.69149297E+00    0.62074772E-01
    3   -0.19728344E+03   -0.16503155E-01    0.20432881E-01
    4   -0.19728630E+03   -0.28626470E-02    0.21139689E-02
    5   -0.19728638E+03   -0.78449921E-04    0.85371796E-03
    6   -0.19728638E+03   -0.39410431E-05    0.23825022E-03
    7   -0.19728638E+03   -0.13392497E-06    0.36430538E-04
    8   -0.19728638E+03   -0.20342071E-07    0.10505138E-04
    9   -0.19728638E+03   -0.90489038E-09    0.38557627E-05
   10   -0.19728638E+03   -0.15376145E-10    0.90544183E-06
   11   -0.19728638E+03   -0.79580786E-12    0.17403705E-06
   12   -0.19728638E+03   -0.28421709E-12    0.27823630E-07
   13   -0.19728638E+03    0.85265128E-13    0.25032056E-08

Total Energy:                     -191.1734221169 H        -5202.0935 eV
Extrapolated to 0K:               -191.1734221169 H        -5202.0935 eV
Total Mermin free energy:         -191.1734221169 H        -5202.0935 eV
Force related energy:             -191.1734221169 H        -5202.0935 eV

Volume:                              0.972151E+04 au^3   0.144058E+04 A^3
Pressure:                            0.175758E-02 au     0.517097E+11 Pa
>> Charges saved for restart in charges.bin

total energy  -1.9117342E+02 H       energy change -7.4921263E-01 H
gradient norm  1.4981030E+00 H/a0    max. gradient  2.7291023E-01 H/a0
step length    8.0939576E-01 a0      max. step      4.8008683E-01 a0

--------------------------------------------------------------------------------

***  Geometry step: 2

 iSCC Total electronic   Diff electronic      SCC error    
    1   -0.19728638E+03    0.00000000E+00    0.49842954E-01
    2   -0.19693343E+03    0.35294921E+00    0.25172235E-01
    3   -0.19693680E+03   -0.33626103E-02    0.66839372E-02
    4   -0.19693747E+03   -0.66925683E-03    0.84566524E-03
    5   -0.19693749E+03   -0.19933310E-04    0.38403283E-03
    6   -0.19693749E+03   -0.11457705E-05    0.15803960E-03
    7   -0.19693749E+03   -0.17449651E-07    0.33824314E-04
    8   -0.19693749E+03   -0.28333318E-08    0.64311689E-05
    9   -0.19693749E+03   -0.27060310E-09    0.13114013E-05
   10   -0.19693749E+03   -0.41211479E-11    0.36204365E-06
   11   -0.19693749E+03   -0.14210855E-12    0.71119248E-07
   12   -0.19693749E+03   -0.28421709E-13    0.14218272E-07
   13   -0.19693749E+03   -0.28421709E-13    0.15902746E-08

Total Energy:                     -191.9748092363 H        -5223.9003 eV
Extrapolated to 0K:               -191.9748092363 H        -5223.9003 eV
Total Mermin free energy:         -191.9748092363 H        -5223.9003 eV
Force related energy:             -191.9748092363 H        -5223.9003 eV

Volume:                              0.988399E+04 au^3   0.146466E+04 A^3
Pressure:                            0.128577E-02 au     0.378286E+11 Pa
>> Charges saved for restart in charges.bin

total energy  -1.9197481E+02 H       energy change -8.0138712E-01 H
gradient norm  9.3530977E-01 H/a0    max. gradient  1.6582669E-01 H/a0
step length    7.4896496E-01 a0      max. step      1.5022513E-01 a0

--------------------------------------------------------------------------------

***  Geometry step: 3

 iSCC Total electronic   Diff electronic      SCC error    
    1   -0.19693749E+03    0.00000000E+00    0.70467299E-01
    2   -0.19655435E+03    0.38314186E+00    0.32168914E-01
    3   -0.19655855E+03   -0.42022644E-02    0.11039954E-01
    4   -0.19655927E+03   -0.72145607E-03    0.11214470E-02
    5   -0.19655931E+03   -0.37030634E-04    0.28073757E-03
    6   -0.19655931E+03   -0.15296481E-05    0.11022142E-03
    7   -0.19655931E+03   -0.35834631E-07    0.30145022E-04
    8   -0.19655931E+03   -0.32873118E-08    0.80102783E-05
    9   -0.19655931E+03   -0.45159254E-09    0.19706780E-05
   10   -0.19655931E+03   -0.13272938E-10    0.39423178E-06
   11   -0.19655931E+03   -0.48316906E-12    0.85827870E-07
   12   -0.19655931E+03   -0.56843419E-13    0.17346367E-07
   13   -0.19655931E+03    0.00000000E+00    0.27887479E-08

Total Energy:                     -192.5040660957 H        -5238.3022 eV
Extrapolated to 0K:               -192.5040660957 H        -5238.3022 eV
Total Mermin free energy:         -192.5040660957 H        -5238.3022 eV
Force related energy:             -192.5040660957 H        -5238.3022 eV

Volume:                              0.100226E+05 au^3   0.148520E+04 A^3
Pressure:                            0.920654E-03 au     0.270866E+11 Pa
>> Charges saved for restart in charges.bin

total energy  -1.9250407E+02 H       energy change -5.2925686E-01 H
gradient norm  5.9070243E-01 H/a0    max. gradient  1.5953967E-01 H/a0
step length    7.7701236E-01 a0      max. step      1.8398767E-01 a0

--------------------------------------------------------------------------------

***  Geometry step: 4

 iSCC Total electronic   Diff electronic      SCC error    
    1   -0.19655931E+03    0.00000000E+00    0.65765001E-01
    2   -0.19616369E+03    0.39561391E+00    0.37914771E-01
    3   -0.19616623E+03   -0.25337574E-02    0.69064899E-02
    4   -0.19616681E+03   -0.58025768E-03    0.91930449E-03
    5   -0.19616684E+03   -0.31986865E-04    0.30742883E-03
    6   -0.19616684E+03   -0.12824644E-05    0.10198250E-03
    7   -0.19616684E+03   -0.26868975E-07    0.33666820E-04
    8   -0.19616684E+03   -0.22679103E-08    0.78220676E-05
    9   -0.19616684E+03   -0.32537173E-09    0.17145552E-05
   10   -0.19616684E+03   -0.82422957E-11    0.25389434E-06
   11   -0.19616684E+03   -0.56843419E-12    0.91533973E-07
   12   -0.19616684E+03   -0.85265128E-13    0.23462454E-07
   13   -0.19616684E+03    0.56843419E-13    0.25241378E-08

Total Energy:                     -192.8088362333 H        -5246.5954 eV
Extrapolated to 0K:               -192.8088362333 H        -5246.5954 eV
Total Mermin free energy:         -192.8088362333 H        -5246.5954 eV
Force related energy:             -192.8088362333 H        -5246.5954 eV

Volume:                              0.101650E+05 au^3   0.150630E+04 A^3
Pressure:                            0.640178E-03 au     0.188347E+11 Pa
>> Charges saved for restart in charges.bin

total energy  -1.9280884E+02 H       energy change -3.0477014E-01 H
gradient norm  4.6135167E-01 H/a0    max. gradient  2.6215118E-01 H/a0
step length    7.3190725E-01 a0      max. step      1.4950360E-01 a0

--------------------------------------------------------------------------------

***  Geometry step: 5

 iSCC Total electronic   Diff electronic      SCC error    
    1   -0.19616684E+03    0.00000000E+00    0.61105531E-01
    2   -0.19573082E+03    0.43602012E+00    0.37740365E-01
    3   -0.19573274E+03   -0.19153763E-02    0.69637537E-02
    4   -0.19573317E+03   -0.43762569E-03    0.12922238E-02
    5   -0.19573320E+03   -0.29244599E-04    0.35058367E-03
    6   -0.19573320E+03   -0.72541403E-06    0.12408330E-03
    7   -0.19573320E+03   -0.17845338E-07    0.40362813E-04
    8   -0.19573320E+03   -0.15295143E-08    0.80362623E-05
    9   -0.19573320E+03   -0.20918378E-09    0.16382445E-05
   10   -0.19573320E+03   -0.93791641E-11    0.19155221E-06
   11   -0.19573320E+03   -0.54001248E-12    0.36122009E-07
   12   -0.19573320E+03   -0.28421709E-13    0.85830334E-08

Total Energy:                     -192.9929438510 H        -5251.6052 eV
Extrapolated to 0K:               -192.9929438510 H        -5251.6052 eV
Total Mermin free energy:         -192.9929438510 H        -5251.6052 eV
Force related energy:             -192.9929438510 H        -5251.6052 eV

Volume:                              0.103682E+05 au^3   0.153641E+04 A^3
Pressure:                            0.385100E-03 au     0.113300E+11 Pa
>> Charges saved for restart in charges.bin

total energy  -1.9299294E+02 H       energy change -1.8410762E-01 H
gradient norm  3.0499938E-01 H/a0    max. gradient  1.5870390E-01 H/a0
step length    6.9956113E-01 a0      max. step      2.4248377E-01 a0

--------------------------------------------------------------------------------

***  Geometry step: 6

 iSCC Total electronic   Diff electronic      SCC error    
    1   -0.19573320E+03    0.00000000E+00    0.46220803E-01
    2   -0.19541300E+03    0.32020109E+00    0.26284373E-01
    3   -0.19541430E+03   -0.12952177E-02    0.43845192E-02
    4   -0.19541458E+03   -0.28069078E-03    0.74855020E-03
    5   -0.19541459E+03   -0.12772733E-04    0.28941599E-03
    6   -0.19541459E+03   -0.59762647E-06    0.10918864E-03
    7   -0.19541459E+03   -0.75301330E-08    0.25239665E-04
    8   -0.19541459E+03   -0.67447559E-09    0.54243639E-05
    9   -0.19541459E+03   -0.10408030E-09    0.95708359E-06
   10   -0.19541459E+03   -0.28137492E-11    0.11009783E-06
   11   -0.19541459E+03   -0.28421709E-12    0.28693246E-07
   12   -0.19541459E+03    0.28421709E-13    0.67780750E-08

Total Energy:                     -193.0774053085 H        -5253.9035 eV
Extrapolated to 0K:               -193.0774053085 H        -5253.9035 eV
Total Mermin free energy:         -193.0774053085 H        -5253.9035 eV
Force related energy:             -193.0774053085 H        -5253.9035 eV

Volume:                              0.105161E+05 au^3   0.155832E+04 A^3
Pressure:                            0.224369E-03 au     0.660116E+10 Pa
>> Charges saved for restart in charges.bin

total energy  -1.9307741E+02 H       energy change -8.4461457E-02 H
gradient norm  1.8152514E-01 H/a0    max. gradient  8.3706733E-02 H/a0
step length    5.5559898E-01 a0      max. step      1.1352480E-01 a0

--------------------------------------------------------------------------------

***  Geometry step: 7

 iSCC Total electronic   Diff electronic      SCC error    
    1   -0.19541459E+03    0.00000000E+00    0.40155175E-01
    2   -0.19520821E+03    0.20638131E+00    0.17646075E-01
    3   -0.19520914E+03   -0.92670898E-03    0.30445424E-02
    4   -0.19520931E+03   -0.17407120E-03    0.41263991E-03
    5   -0.19520932E+03   -0.55281260E-05    0.16914435E-03
    6   -0.19520932E+03   -0.20562933E-06    0.67286170E-04
    7   -0.19520932E+03   -0.45819206E-08    0.16953383E-04
    8   -0.19520932E+03   -0.33696779E-09    0.38952237E-05
    9   -0.19520932E+03   -0.36664005E-10    0.10259961E-05
   10   -0.19520932E+03   -0.24442670E-11    0.12606563E-06
   11   -0.19520932E+03   -0.11368684E-12    0.16124763E-07
   12   -0.19520932E+03    0.56843419E-13    0.28328300E-08

Total Energy:                     -193.1148456162 H        -5254.9223 eV
Extrapolated to 0K:               -193.1148456162 H        -5254.9223 eV
Total Mermin free energy:         -193.1148456162 H        -5254.9223 eV
Force related energy:             -193.1148456162 H        -5254.9223 eV

Volume:                              0.106092E+05 au^3   0.157213E+04 A^3
Pressure:                            0.129967E-03 au     0.382377E+10 Pa
>> Charges saved for restart in charges.bin

total energy  -1.9311485E+02 H       energy change -3.7440308E-02 H
gradient norm  1.5515740E-01 H/a0    max. gradient  7.8591636E-02 H/a0
step length    4.6454428E-01 a0      max. step      8.4234386E-02 a0

--------------------------------------------------------------------------------

***  Geometry step: 8

 iSCC Total electronic   Diff electronic      SCC error    
    1   -0.19520932E+03    0.00000000E+00    0.17438469E-01
    2   -0.19510297E+03    0.10634634E+00    0.87862231E-02
    3   -0.19510332E+03   -0.34705428E-03    0.20363896E-02
    4   -0.19510338E+03   -0.61593880E-04    0.34478873E-03
    5   -0.19510338E+03   -0.17182701E-05    0.87589563E-04
    6   -0.19510338E+03   -0.87672419E-07    0.18027437E-04
    7   -0.19510338E+03   -0.42048498E-08    0.73740960E-05
    8   -0.19510338E+03   -0.19372237E-09    0.24559210E-05
    9   -0.19510338E+03   -0.81001872E-11    0.70936197E-06
   10   -0.19510338E+03   -0.68212103E-12    0.10756260E-06
   11   -0.19510338E+03   -0.19895197E-12    0.12523092E-07
   12   -0.19510338E+03    0.11368684E-12    0.28152454E-08

Total Energy:                     -193.1373688050 H        -5255.5352 eV
Extrapolated to 0K:               -193.1373688050 H        -5255.5352 eV
Total Mermin free energy:         -193.1373688050 H        -5255.5352 eV
Force related energy:             -193.1373688050 H        -5255.5352 eV

Volume:                              0.106684E+05 au^3   0.158089E+04 A^3
Pressure:                            0.780583E-04 au     0.229655E+10 Pa
>> Charges saved for restart in charges.bin

total energy  -1.9313737E+02 H       energy change -2.2523189E-02 H
gradient norm  1.1601308E-01 H/a0    max. gradient  3.2715893E-02 H/a0
step length    3.5379962E-01 a0      max. step      6.8868317E-02 a0

--------------------------------------------------------------------------------

***  Geometry step: 9

 iSCC Total electronic   Diff electronic      SCC error    
    1   -0.19510338E+03    0.00000000E+00    0.20177819E-01
    2   -0.19508421E+03    0.19172166E-01    0.11796222E-01
    3   -0.19508455E+03   -0.34065439E-03    0.34157941E-02
    4   -0.19508460E+03   -0.52207351E-04    0.41556014E-03
    5   -0.19508460E+03   -0.19333866E-05    0.11229057E-03
    6   -0.19508460E+03   -0.21937012E-06    0.42358827E-04
    7   -0.19508460E+03   -0.31398599E-08    0.93613159E-05
    8   -0.19508460E+03   -0.13417889E-09    0.19900691E-05
    9   -0.19508460E+03   -0.10516032E-10    0.23349857E-06
   10   -0.19508460E+03   -0.16200374E-11    0.49926103E-07
   11   -0.19508460E+03   -0.14210855E-12    0.13139716E-07
   12   -0.19508460E+03    0.00000000E+00    0.15675834E-08

Total Energy:                     -193.1571192627 H        -5256.0726 eV
Extrapolated to 0K:               -193.1571192627 H        -5256.0726 eV
Total Mermin free energy:         -193.1571192627 H        -5256.0726 eV
Force related energy:             -193.1571192627 H        -5256.0726 eV

Volume:                              0.106932E+05 au^3   0.158457E+04 A^3
Pressure:                            0.583172E-04 au     0.171575E+10 Pa
>> Charges saved for restart in charges.bin

total energy  -1.9315712E+02 H       energy change -1.9750458E-02 H
gradient norm  1.0186522E-01 H/a0    max. gradient  2.6161605E-02 H/a0
step length    3.4799435E-01 a0      max. step      6.9441214E-02 a0

--------------------------------------------------------------------------------

***  Geometry step: 10

 iSCC Total electronic   Diff electronic      SCC error    
    1   -0.19508460E+03    0.00000000E+00    0.30279016E-01
    2   -0.19512266E+03   -0.38056725E-01    0.17555467E-01
    3   -0.19512320E+03   -0.53750866E-03    0.28857555E-02
    4   -0.19512331E+03   -0.11367448E-03    0.61677464E-03
    5   -0.19512332E+03   -0.57710215E-05    0.22532760E-03
    6   -0.19512332E+03   -0.22750393E-06    0.70863149E-04
    7   -0.19512332E+03   -0.61939147E-08    0.87308979E-05
    8   -0.19512332E+03   -0.33503511E-09    0.14942069E-05
    9   -0.19512332E+03   -0.32912340E-10    0.34642399E-06
   10   -0.19512332E+03   -0.32116532E-11    0.69976699E-07
   11   -0.19512332E+03   -0.28421709E-13    0.15509249E-07
   12   -0.19512332E+03   -0.56843419E-13    0.31591703E-08

Total Energy:                     -193.1770417935 H        -5256.6148 eV
Extrapolated to 0K:               -193.1770417935 H        -5256.6148 eV
Total Mermin free energy:         -193.1770417935 H        -5256.6148 eV
Force related energy:             -193.1770417935 H        -5256.6148 eV

Volume:                              0.107059E+05 au^3   0.158645E+04 A^3
Pressure:                            0.593138E-04 au     0.174507E+10 Pa
>> Charges saved for restart in charges.bin

total energy  -1.9317704E+02 H       energy change -1.9922531E-02 H
gradient norm  9.3168152E-02 H/a0    max. gradient  2.3508149E-02 H/a0
step length    4.3434328E-01 a0      max. step      7.4349974E-02 a0

--------------------------------------------------------------------------------

***  Geometry step: 11

 iSCC Total electronic   Diff electronic      SCC error    
    1   -0.19512332E+03    0.00000000E+00    0.21742246E-01
    2   -0.19518321E+03   -0.59896837E-01    0.13350599E-01
    3   -0.19518360E+03   -0.38543131E-03    0.28222306E-02
    4   -0.19518368E+03   -0.83586172E-04    0.63481457E-03
    5   -0.19518369E+03   -0.44479863E-05    0.23727374E-03
    6   -0.19518369E+03   -0.19461783E-06    0.69453017E-04
    7   -0.19518369E+03   -0.60897776E-08    0.86384654E-05
    8   -0.19518369E+03   -0.32360958E-09    0.14389164E-05
    9   -0.19518369E+03   -0.24442670E-10    0.28925216E-06
   10   -0.19518369E+03   -0.32969183E-11    0.53209315E-07
   11   -0.19518369E+03    0.00000000E+00    0.14016101E-07
   12   -0.19518369E+03   -0.85265128E-13    0.20678068E-08

Total Energy:                     -193.1882649075 H        -5256.9202 eV
Extrapolated to 0K:               -193.1882649075 H        -5256.9202 eV
Total Mermin free energy:         -193.1882649075 H        -5256.9202 eV
Force related energy:             -193.1882649075 H        -5256.9202 eV

Volume:                              0.107021E+05 au^3   0.158589E+04 A^3
Pressure:                            0.747858E-04 au     0.220027E+10 Pa
>> Charges saved for restart in charges.bin

total energy  -1.9318826E+02 H       energy change -1.1223114E-02 H
gradient norm  7.9649022E-02 H/a0    max. gradient  2.0555118E-02 H/a0
step length    3.0916447E-01 a0      max. step      4.4046655E-02 a0

--------------------------------------------------------------------------------

***  Geometry step: 12

 iSCC Total electronic   Diff electronic      SCC error    
    1   -0.19518369E+03    0.00000000E+00    0.18953937E-01
    2   -0.19521442E+03   -0.30729709E-01    0.11333069E-01
    3   -0.19521458E+03   -0.15773779E-03    0.23144852E-02
    4   -0.19521462E+03   -0.39858917E-04    0.55447800E-03
    5   -0.19521462E+03   -0.21856176E-05    0.19555828E-03
    6   -0.19521462E+03   -0.52378027E-07    0.42140991E-04
    7   -0.19521462E+03   -0.21221069E-08    0.39918863E-05
    8   -0.19521462E+03   -0.23160851E-09    0.11667811E-05
    9   -0.19521462E+03   -0.10601298E-10    0.24218064E-06
   10   -0.19521462E+03   -0.54001248E-12    0.25916733E-07
   11   -0.19521462E+03   -0.85265128E-13    0.55455907E-08

Total Energy:                     -193.1975774820 H        -5257.1736 eV
Extrapolated to 0K:               -193.1975774820 H        -5257.1736 eV
Total Mermin free energy:         -193.1975774820 H        -5257.1736 eV
Force related energy:             -193.1975774820 H        -5257.1736 eV

Volume:                              0.107182E+05 au^3   0.158828E+04 A^3
Pressure:                            0.789079E-04 au     0.232155E+10 Pa
>> Charges saved for restart in charges.bin

total energy  -1.9319758E+02 H       energy change -9.3125746E-03 H
gradient norm  7.1397707E-02 H/a0    max. gradient  1.8211606E-02 H/a0
step length    2.8237086E-01 a0      max. step      4.7838886E-02 a0

--------------------------------------------------------------------------------

***  Geometry step: 13

 iSCC Total electronic   Diff electronic      SCC error    
    1   -0.19521462E+03    0.00000000E+00    0.20117898E-01
    2   -0.19521785E+03   -0.32274387E-02    0.11400817E-01
    3   -0.19521801E+03   -0.16191125E-03    0.24349442E-02
    4   -0.19521805E+03   -0.42242933E-04    0.54317227E-03
    5   -0.19521805E+03   -0.21473138E-05    0.16931886E-03
    6   -0.19521805E+03   -0.69325239E-07    0.45613790E-04
    7   -0.19521805E+03   -0.17313369E-08    0.45650425E-05
    8   -0.19521805E+03   -0.24522251E-09    0.10351870E-05
    9   -0.19521805E+03   -0.14296120E-10    0.24045503E-06
   10   -0.19521805E+03   -0.54001248E-12    0.40604087E-07
   11   -0.19521805E+03   -0.28421709E-13    0.60393490E-08

Total Energy:                     -193.2072826103 H        -5257.4377 eV
Extrapolated to 0K:               -193.2072826103 H        -5257.4377 eV
Total Mermin free energy:         -193.2072826103 H        -5257.4377 eV
Force related energy:             -193.2072826103 H        -5257.4377 eV

Volume:                              0.107612E+05 au^3   0.159465E+04 A^3
Pressure:                            0.721243E-04 au     0.212197E+10 Pa
>> Charges saved for restart in charges.bin

total energy  -1.9320728E+02 H       energy change -9.7051283E-03 H
gradient norm  6.3950045E-02 H/a0    max. gradient  1.6436878E-02 H/a0
step length    3.2088682E-01 a0      max. step      5.5246867E-02 a0

--------------------------------------------------------------------------------

***  Geometry step: 14

 iSCC Total electronic   Diff electronic      SCC error    
    1   -0.19521805E+03    0.00000000E+00    0.15635884E-01
    2   -0.19519295E+03    0.25103228E-01    0.86858513E-02
    3   -0.19519303E+03   -0.83943032E-04    0.17477292E-02
    4   -0.19519305E+03   -0.21882803E-04    0.42060247E-03
    5   -0.19519306E+03   -0.11064495E-05    0.15191442E-03
    6   -0.19519306E+03   -0.42389701E-07    0.30210735E-04
    7   -0.19519306E+03   -0.17308821E-08    0.39417220E-05
    8   -0.19519306E+03   -0.12158807E-09    0.91925593E-06
    9   -0.19519306E+03   -0.91802121E-11    0.20340289E-06
   10   -0.19519306E+03   -0.68212103E-12    0.30409089E-07
   11   -0.19519306E+03    0.56843419E-13    0.43827511E-08

Total Energy:                     -193.2142732510 H        -5257.6279 eV
Extrapolated to 0K:               -193.2142732510 H        -5257.6279 eV
Total Mermin free energy:         -193.2142732510 H        -5257.6279 eV
Force related energy:             -193.2142732510 H        -5257.6279 eV

Volume:                              0.108181E+05 au^3   0.160308E+04 A^3
Pressure:                            0.563544E-04 au     0.165800E+10 Pa
>> Charges saved for restart in charges.bin

total energy  -1.9321427E+02 H       energy change -6.9906407E-03 H
gradient norm  5.7707925E-02 H/a0    max. gradient  1.0707270E-02 H/a0
step length    2.7930534E-01 a0      max. step      4.8630992E-02 a0

--------------------------------------------------------------------------------

***  Geometry step: 15

 iSCC Total electronic   Diff electronic      SCC error    
    1   -0.19519306E+03    0.00000000E+00    0.11515511E-01
    2   -0.19515777E+03    0.35286069E-01    0.65762880E-02
    3   -0.19515783E+03   -0.55582925E-04    0.15816192E-02
    4   -0.19515784E+03   -0.12200783E-04    0.33755710E-03
    5   -0.19515784E+03   -0.63014369E-06    0.12207470E-03
    6   -0.19515784E+03   -0.32104992E-07    0.27437774E-04
    7   -0.19515784E+03   -0.11059740E-08    0.31286699E-05
    8   -0.19515784E+03   -0.86288310E-10    0.70643007E-06
    9   -0.19515784E+03   -0.46043169E-11    0.16968645E-06
   10   -0.19515784E+03   -0.28421709E-12    0.25054320E-07
   11   -0.19515784E+03    0.56843419E-13    0.41589119E-08

Total Energy:                     -193.2195400121 H        -5257.7712 eV
Extrapolated to 0K:               -193.2195400121 H        -5257.7712 eV
Total Mermin free energy:         -193.2195400121 H        -5257.7712 eV
Force related energy:             -193.2195400121 H        -5257.7712 eV

Volume:                              0.108780E+05 au^3   0.161196E+04 A^3
Pressure:                            0.365412E-04 au     0.107508E+10 Pa
>> Charges saved for restart in charges.bin

total energy  -1.9321954E+02 H       energy change -5.2667611E-03 H
gradient norm  5.2103204E-02 H/a0    max. gradient  9.2312893E-03 H/a0
step length    2.6293421E-01 a0      max. step      4.8350282E-02 a0

--------------------------------------------------------------------------------

***  Geometry step: 16

 iSCC Total electronic   Diff electronic      SCC error    
    1   -0.19515784E+03    0.00000000E+00    0.65932148E-02
    2   -0.19513772E+03    0.20112952E-01    0.37741454E-02
    3   -0.19513776E+03   -0.35039922E-04    0.11608352E-02
    4   -0.19513777E+03   -0.57820328E-05    0.25697314E-03
    5   -0.19513777E+03   -0.32766414E-06    0.94892485E-04
    6   -0.19513777E+03   -0.18793884E-07    0.20678008E-04
    7   -0.19513777E+03   -0.60231287E-09    0.21286466E-05
    8   -0.19513777E+03   -0.51414872E-10    0.35143452E-06
    9   -0.19513777E+03   -0.25579538E-11    0.11802486E-06
   10   -0.19513777E+03   -0.85265128E-13    0.15631517E-07
   11   -0.19513777E+03    0.28421709E-13    0.33606278E-08

Total Energy:                     -193.2239512226 H        -5257.8912 eV
Extrapolated to 0K:               -193.2239512226 H        -5257.8912 eV
Total Mermin free energy:         -193.2239512226 H        -5257.8912 eV
Force related energy:             -193.2239512226 H        -5257.8912 eV

Volume:                              0.109235E+05 au^3   0.161870E+04 A^3
Pressure:                            0.235582E-04 au     0.693105E+09 Pa
>> Charges saved for restart in charges.bin

total energy  -1.9322395E+02 H       energy change -4.4112105E-03 H
gradient norm  5.0116041E-02 H/a0    max. gradient  1.0004375E-02 H/a0
step length    2.3078616E-01 a0      max. step      4.5435418E-02 a0

--------------------------------------------------------------------------------

***  Geometry step: 17

 iSCC Total electronic   Diff electronic      SCC error    
    1   -0.19513777E+03    0.00000000E+00    0.11451784E-01
    2   -0.19513531E+03    0.24574941E-02    0.66948546E-02
    3   -0.19513538E+03   -0.70695668E-04    0.16610407E-02
    4   -0.19513539E+03   -0.11669051E-04    0.23402117E-03
    5   -0.19513539E+03   -0.60792044E-06    0.95502297E-04
    6   -0.19513539E+03   -0.33874727E-07    0.27423060E-04
    7   -0.19513539E+03   -0.88206775E-09    0.37163291E-05
    8   -0.19513539E+03   -0.69775297E-10    0.88319589E-06
    9   -0.19513539E+03   -0.41211479E-11    0.19588777E-06
   10   -0.19513539E+03   -0.31263880E-12    0.31782486E-07
   11   -0.19513539E+03    0.56843419E-13    0.35550700E-08

Total Energy:                     -193.2293404822 H        -5258.0379 eV
Extrapolated to 0K:               -193.2293404822 H        -5258.0379 eV
Total Mermin free energy:         -193.2293404822 H        -5258.0379 eV
Force related energy:             -193.2293404822 H        -5258.0379 eV

Volume:                              0.109671E+05 au^3   0.162516E+04 A^3
Pressure:                            0.167112E-04 au     0.491660E+09 Pa
>> Charges saved for restart in charges.bin

total energy  -1.9322934E+02 H       energy change -5.3892595E-03 H
gradient norm  5.2083171E-02 H/a0    max. gradient  1.0238903E-02 H/a0
step length    2.9320149E-01 a0      max. step      5.8363429E-02 a0

--------------------------------------------------------------------------------

***  Geometry step: 18

 iSCC Total electronic   Diff electronic      SCC error    
    1   -0.19513539E+03    0.00000000E+00    0.14733290E-01
    2   -0.19515337E+03   -0.17978671E-01    0.86434450E-02
    3   -0.19515346E+03   -0.88041811E-04    0.23032176E-02
    4   -0.19515347E+03   -0.13702486E-04    0.22577557E-03
    5   -0.19515347E+03   -0.74940939E-06    0.47611767E-04
    6   -0.19515347E+03   -0.40742435E-07    0.17592648E-04
    7   -0.19515347E+03   -0.93760377E-09    0.41451456E-05
    8   -0.19515347E+03   -0.44565240E-10    0.14150796E-05
    9   -0.19515347E+03   -0.28990144E-11    0.30608869E-06
   10   -0.19515347E+03   -0.22737368E-12    0.33231746E-07
   11   -0.19515347E+03   -0.28421709E-13    0.38348120E-08

Total Energy:                     -193.2343581313 H        -5258.1744 eV
Extrapolated to 0K:               -193.2343581313 H        -5258.1744 eV
Total Mermin free energy:         -193.2343581313 H        -5258.1744 eV
Force related energy:             -193.2343581313 H        -5258.1744 eV

Volume:                              0.109971E+05 au^3   0.162960E+04 A^3
Pressure:                            0.202688E-04 au     0.596329E+09 Pa
>> Charges saved for restart in charges.bin

total energy  -1.9323436E+02 H       energy change -5.0176492E-03 H
gradient norm  5.1376402E-02 H/a0    max. gradient  9.9190370E-03 H/a0
step length    2.9993809E-01 a0      max. step      5.5646477E-02 a0

--------------------------------------------------------------------------------

***  Geometry step: 19

 iSCC Total electronic   Diff electronic      SCC error    
    1   -0.19515347E+03    0.00000000E+00    0.13391687E-01
    2   -0.19517462E+03   -0.21145183E-01    0.78674158E-02
    3   -0.19517473E+03   -0.10724158E-03    0.24985569E-02
    4   -0.19517474E+03   -0.13813152E-04    0.19485316E-03
    5   -0.19517474E+03   -0.70434737E-06    0.39848064E-04
    6   -0.19517474E+03   -0.36961040E-07    0.11289392E-04
    7   -0.19517474E+03   -0.88704155E-09    0.22005117E-05
    8   -0.19517474E+03   -0.29245939E-10    0.83556828E-06
    9   -0.19517474E+03   -0.15916157E-11    0.25316942E-06
   10   -0.19517474E+03   -0.25579538E-12    0.56324909E-07
   11   -0.19517474E+03    0.56843419E-13    0.62402790E-08

Total Energy:                     -193.2389664852 H        -5258.2998 eV
Extrapolated to 0K:               -193.2389664852 H        -5258.2998 eV
Total Mermin free energy:         -193.2389664852 H        -5258.2998 eV
Force related energy:             -193.2389664852 H        -5258.2998 eV

Volume:                              0.110254E+05 au^3   0.163379E+04 A^3
Pressure:                            0.256713E-04 au     0.755275E+09 Pa
>> Charges saved for restart in charges.bin

total energy  -1.9323897E+02 H       energy change -4.6083539E-03 H
gradient norm  4.8759464E-02 H/a0    max. gradient  9.5381753E-03 H/a0
step length    3.1800114E-01 a0      max. step      5.8986614E-02 a0

--------------------------------------------------------------------------------

***  Geometry step: 20

 iSCC Total electronic   Diff electronic      SCC error    
    1   -0.19517474E+03    0.00000000E+00    0.93652408E-02
    2   -0.19519032E+03   -0.15581678E-01    0.53982111E-02
    3   -0.19519044E+03   -0.11437729E-03    0.18226442E-02
    4   -0.19519045E+03   -0.12551287E-04    0.24315253E-03
    5   -0.19519045E+03   -0.58735773E-06    0.68736532E-04
    6   -0.19519045E+03   -0.32738825E-07    0.21284733E-04
    7   -0.19519045E+03   -0.96008534E-09    0.42031239E-05
    8   -0.19519045E+03   -0.47521098E-10    0.10420860E-05
    9   -0.19519045E+03   -0.33253400E-11    0.27029480E-06
   10   -0.19519045E+03   -0.48316906E-12    0.35555171E-07
   11   -0.19519045E+03   -0.85265128E-13    0.54536953E-08

Total Energy:                     -193.2433727345 H        -5258.4197 eV
Extrapolated to 0K:               -193.2433727345 H        -5258.4197 eV
Total Mermin free energy:         -193.2433727345 H        -5258.4197 eV
Force related energy:             -193.2433727345 H        -5258.4197 eV

Volume:                              0.110571E+05 au^3   0.163849E+04 A^3
Pressure:                            0.283818E-04 au     0.835020E+09 Pa
>> Charges saved for restart in charges.bin

total energy  -1.9324337E+02 H       energy change -4.4062493E-03 H
gradient norm  4.4928209E-02 H/a0    max. gradient  8.7923909E-03 H/a0
step length    3.2453445E-01 a0      max. step      6.1160576E-02 a0

--------------------------------------------------------------------------------

***  Geometry step: 21

 iSCC Total electronic   Diff electronic      SCC error    
    1   -0.19519045E+03    0.00000000E+00    0.10102974E-01
    2   -0.19519718E+03   -0.67336769E-02    0.51874761E-02
    3   -0.19519732E+03   -0.13439994E-03    0.19777068E-02
    4   -0.19519733E+03   -0.16184903E-04    0.40435731E-03
    5   -0.19519733E+03   -0.90445704E-06    0.11788459E-03
    6   -0.19519733E+03   -0.40187928E-07    0.26222577E-04
    7   -0.19519733E+03   -0.13150725E-08    0.32388373E-05
    8   -0.19519733E+03   -0.12016699E-09    0.72981998E-06
    9   -0.19519733E+03   -0.68212103E-11    0.22851595E-06
   10   -0.19519733E+03   -0.56843419E-12    0.32661839E-07
   11   -0.19519733E+03   -0.85265128E-13    0.53308273E-08

Total Energy:                     -193.2477065006 H        -5258.5376 eV
Extrapolated to 0K:               -193.2477065006 H        -5258.5376 eV
Total Mermin free energy:         -193.2477065006 H        -5258.5376 eV
Force related energy:             -193.2477065006 H        -5258.5376 eV

Volume:                              0.110950E+05 au^3   0.164411E+04 A^3
Pressure:                            0.275298E-04 au     0.809953E+09 Pa
>> Charges saved for restart in charges.bin

total energy  -1.9324771E+02 H       energy change -4.3337661E-03 H
gradient norm  4.0340614E-02 H/a0    max. gradient  8.3142635E-03 H/a0
step length    3.4366980E-01 a0      max. step      6.3358508E-02 a0

--------------------------------------------------------------------------------

***  Geometry step: 22

 iSCC Total electronic   Diff electronic      SCC error    
    1   -0.19519733E+03    0.00000000E+00    0.89622645E-02
    2   -0.19518880E+03    0.85379667E-02    0.48901812E-02
    3   -0.19518886E+03   -0.62697552E-04    0.14627499E-02
    4   -0.19518887E+03   -0.10667562E-04    0.33176034E-03
    5   -0.19518887E+03   -0.59147001E-06    0.10554290E-03
    6   -0.19518887E+03   -0.26876648E-07    0.19631477E-04
    7   -0.19518887E+03   -0.98006581E-09    0.28153531E-05
    8   -0.19518887E+03   -0.86060936E-10    0.51164512E-06
    9   -0.19518887E+03   -0.47180038E-11    0.13363204E-06
   10   -0.19518887E+03   -0.39790393E-12    0.26255584E-07
   11   -0.19518887E+03   -0.56843419E-13    0.34429188E-08

Total Energy:                     -193.2503112605 H        -5258.6085 eV
Extrapolated to 0K:               -193.2503112605 H        -5258.6085 eV
Total Mermin free energy:         -193.2503112605 H        -5258.6085 eV
Force related energy:             -193.2503112605 H        -5258.6085 eV

Volume:                              0.111317E+05 au^3   0.164954E+04 A^3
Pressure:                            0.219266E-04 au     0.645101E+09 Pa
>> Charges saved for restart in charges.bin

total energy  -1.9325031E+02 H       energy change -2.6047599E-03 H
gradient norm  3.5009839E-02 H/a0    max. gradient  7.8827677E-03 H/a0
step length    2.5058803E-01 a0      max. step      4.4266460E-02 a0

--------------------------------------------------------------------------------

***  Geometry step: 23

 iSCC Total electronic   Diff electronic      SCC error    
    1   -0.19518887E+03    0.00000000E+00    0.62406728E-02
    2   -0.19517520E+03    0.13674031E-01    0.37343405E-02
    3   -0.19517522E+03   -0.24196453E-04    0.73860066E-03
    4   -0.19517523E+03   -0.51262804E-05    0.15760500E-03
    5   -0.19517523E+03   -0.24411355E-06    0.58709937E-04
    6   -0.19517523E+03   -0.57768261E-08    0.12134086E-04
    7   -0.19517523E+03   -0.26747671E-09    0.19608198E-05
    8   -0.19517523E+03   -0.21714186E-10    0.30173167E-06
    9   -0.19517523E+03   -0.14210855E-11    0.74097684E-07
   10   -0.19517523E+03   -0.85265128E-13    0.13081213E-07
   11   -0.19517523E+03    0.00000000E+00    0.16578148E-08

Total Energy:                     -193.2517145415 H        -5258.6467 eV
Extrapolated to 0K:               -193.2517145415 H        -5258.6467 eV
Total Mermin free energy:         -193.2517145415 H        -5258.6467 eV
Force related energy:             -193.2517145415 H        -5258.6467 eV

Volume:                              0.111600E+05 au^3   0.165374E+04 A^3
Pressure:                            0.153700E-04 au     0.452201E+09 Pa
>> Charges saved for restart in charges.bin

total energy  -1.9325171E+02 H       energy change -1.4032809E-03 H
gradient norm  2.6157774E-02 H/a0    max. gradient  7.0180247E-03 H/a0
step length    1.4050725E-01 a0      max. step      2.5184708E-02 a0

--------------------------------------------------------------------------------

***  Geometry step: 24

 iSCC Total electronic   Diff electronic      SCC error    
    1   -0.19517523E+03    0.00000000E+00    0.50505075E-02
    2   -0.19516387E+03    0.11360072E-01    0.29234208E-02
    3   -0.19516389E+03   -0.23220835E-04    0.82586671E-03
    4   -0.19516389E+03   -0.38434185E-05    0.10304631E-03
    5   -0.19516389E+03   -0.11649672E-06    0.34952757E-04
    6   -0.19516389E+03   -0.69214536E-08    0.99294034E-05
    7   -0.19516389E+03   -0.12050805E-09    0.19251976E-05
    8   -0.19516389E+03   -0.66506800E-11    0.32811009E-06
    9   -0.19516389E+03   -0.96633812E-12    0.66945893E-07
   10   -0.19516389E+03   -0.28421709E-13    0.13728277E-07
   11   -0.19516389E+03    0.85265128E-13    0.23616855E-08

Total Energy:                     -193.2526006933 H        -5258.6708 eV
Extrapolated to 0K:               -193.2526006933 H        -5258.6708 eV
Total Mermin free energy:         -193.2526006933 H        -5258.6708 eV
Force related energy:             -193.2526006933 H        -5258.6708 eV

Volume:                              0.111820E+05 au^3   0.165700E+04 A^3
Pressure:                            0.937797E-05 au     0.275909E+09 Pa
>> Charges saved for restart in charges.bin

total energy  -1.9325260E+02 H       energy change -8.8615182E-04 H
gradient norm  2.2004602E-02 H/a0    max. gradient  5.3414805E-03 H/a0
step length    9.0684511E-02 a0      max. step      2.1085003E-02 a0

--------------------------------------------------------------------------------

***  Geometry step: 25

 iSCC Total electronic   Diff electronic      SCC error    
    1   -0.19516389E+03    0.00000000E+00    0.33238566E-02
    2   -0.19516122E+03    0.26761957E-02    0.17447394E-02
    3   -0.19516123E+03   -0.12307818E-04    0.52741487E-03
    4   -0.19516123E+03   -0.16644817E-05    0.66017414E-04
    5   -0.19516123E+03   -0.49627175E-07    0.10196838E-04
    6   -0.19516123E+03   -0.30557317E-08    0.41225333E-05
    7   -0.19516123E+03   -0.51130655E-10    0.10383260E-05
    8   -0.19516123E+03   -0.16484591E-11    0.25973489E-06
    9   -0.19516123E+03   -0.11368684E-12    0.68720368E-07
   10   -0.19516123E+03    0.00000000E+00    0.13578560E-07
   11   -0.19516123E+03   -0.28421709E-13    0.10860135E-08

Total Energy:                     -193.2532738979 H        -5258.6891 eV
Extrapolated to 0K:               -193.2532738979 H        -5258.6891 eV
Total Mermin free energy:         -193.2532738979 H        -5258.6891 eV
Force related energy:             -193.2532738979 H        -5258.6891 eV

Volume:                              0.111962E+05 au^3   0.165910E+04 A^3
Pressure:                            0.731973E-05 au     0.215354E+09 Pa
>> Charges saved for restart in charges.bin

total energy  -1.9325327E+02 H       energy change -6.7320465E-04 H
gradient norm  2.2463831E-02 H/a0    max. gradient  5.2310773E-03 H/a0
step length    6.4793734E-02 a0      max. step      1.7206083E-02 a0

--------------------------------------------------------------------------------

***  Geometry step: 26

 iSCC Total electronic   Diff electronic      SCC error    
    1   -0.19516123E+03    0.00000000E+00    0.64721253E-02
    2   -0.19516365E+03   -0.24187846E-02    0.31853388E-02
    3   -0.19516369E+03   -0.37673816E-04    0.87078289E-03
    4   -0.19516369E+03   -0.53657362E-05    0.13312796E-03
    5   -0.19516369E+03   -0.21618428E-06    0.44357800E-04
    6   -0.19516369E+03   -0.96027861E-08    0.15549203E-04
    7   -0.19516369E+03   -0.14128432E-09    0.25718595E-05
    8   -0.19516369E+03   -0.11254997E-10    0.48287282E-06
    9   -0.19516369E+03   -0.99475983E-12    0.11863499E-06
   10   -0.19516369E+03   -0.28421709E-13    0.16200707E-07
   11   -0.19516369E+03   -0.28421709E-13    0.18182469E-08

Total Energy:                     -193.2543855029 H        -5258.7194 eV
Extrapolated to 0K:               -193.2543855029 H        -5258.7194 eV
Total Mermin free energy:         -193.2543855029 H        -5258.7194 eV
Force related energy:             -193.2543855029 H        -5258.7194 eV

Volume:                              0.112231E+05 au^3   0.166309E+04 A^3
Pressure:                            0.662802E-05 au     0.195003E+09 Pa
>> Charges saved for restart in charges.bin

total energy  -1.9325439E+02 H       energy change -1.1116049E-03 H
gradient norm  2.4250032E-02 H/a0    max. gradient  5.4757491E-03 H/a0
step length    1.3837783E-01 a0      max. step      3.6872299E-02 a0

--------------------------------------------------------------------------------

***  Geometry step: 27

 iSCC Total electronic   Diff electronic      SCC error    
    1   -0.19516369E+03    0.00000000E+00    0.53869365E-02
    2   -0.19516987E+03   -0.61740650E-02    0.23294683E-02
    3   -0.19516989E+03   -0.24260378E-04    0.77261056E-03
    4   -0.19516989E+03   -0.37722280E-05    0.14924113E-03
    5   -0.19516990E+03   -0.18147583E-06    0.49764766E-04
    6   -0.19516990E+03   -0.63506320E-08    0.12647309E-04
    7   -0.19516990E+03   -0.15492674E-09    0.16828494E-05
    8   -0.19516990E+03   -0.12590817E-10    0.31951361E-06
    9   -0.19516990E+03   -0.93791641E-12    0.95336241E-07
   10   -0.19516990E+03   -0.85265128E-13    0.13020073E-07
   11   -0.19516990E+03   -0.28421709E-13    0.22994384E-08

Total Energy:                     -193.2552361048 H        -5258.7425 eV
Extrapolated to 0K:               -193.2552361048 H        -5258.7425 eV
Total Mermin free energy:         -193.2552361048 H        -5258.7425 eV
Force related energy:             -193.2552361048 H        -5258.7425 eV

Volume:                              0.112478E+05 au^3   0.166676E+04 A^3
Pressure:                            0.740749E-05 au     0.217936E+09 Pa
>> Charges saved for restart in charges.bin

total energy  -1.9325524E+02 H       energy change -8.5060197E-04 H
gradient norm  2.2775906E-02 H/a0    max. gradient  5.5366148E-03 H/a0
step length    1.3847373E-01 a0      max. step      3.4123881E-02 a0

--------------------------------------------------------------------------------

***  Geometry step: 28

 iSCC Total electronic   Diff electronic      SCC error    
    1   -0.19516990E+03    0.00000000E+00    0.55470336E-02
    2   -0.19517731E+03   -0.74128520E-02    0.27157397E-02
    3   -0.19517733E+03   -0.22603524E-04    0.80926926E-03
    4   -0.19517733E+03   -0.36240673E-05    0.14875763E-03
    5   -0.19517733E+03   -0.18396688E-06    0.48189950E-04
    6   -0.19517733E+03   -0.56810734E-08    0.92403088E-05
    7   -0.19517733E+03   -0.16589752E-09    0.12090022E-05
    8   -0.19517733E+03   -0.10743406E-10    0.29901424E-06
    9   -0.19517733E+03   -0.13358203E-11    0.66139153E-07
   10   -0.19517733E+03   -0.28421709E-13    0.10424411E-07
   11   -0.19517733E+03    0.85265128E-13    0.25142630E-08

Total Energy:                     -193.2560211927 H        -5258.7639 eV
Extrapolated to 0K:               -193.2560211927 H        -5258.7639 eV
Total Mermin free energy:         -193.2560211927 H        -5258.7639 eV
Force related energy:             -193.2560211927 H        -5258.7639 eV

Volume:                              0.112731E+05 au^3   0.167051E+04 A^3
Pressure:                            0.870493E-05 au     0.256108E+09 Pa
>> Charges saved for restart in charges.bin

total energy  -1.9325602E+02 H       energy change -7.8508787E-04 H
gradient norm  1.8215983E-02 H/a0    max. gradient  3.8080378E-03 H/a0
step length    1.4984327E-01 a0      max. step      3.5741585E-02 a0

--------------------------------------------------------------------------------

***  Geometry step: 29

 iSCC Total electronic   Diff electronic      SCC error    
    1   -0.19517733E+03    0.00000000E+00    0.38522399E-02
    2   -0.19518068E+03   -0.33420723E-02    0.21325472E-02
    3   -0.19518069E+03   -0.10512010E-04    0.57837713E-03
    4   -0.19518069E+03   -0.17509735E-05    0.10118784E-03
    5   -0.19518069E+03   -0.82104521E-07    0.31662925E-04
    6   -0.19518069E+03   -0.25187319E-08    0.45755603E-05
    7   -0.19518069E+03   -0.76710194E-10    0.57616859E-06
    8   -0.19518069E+03   -0.51443294E-11    0.19860885E-06
    9   -0.19518069E+03   -0.42632564E-12    0.33314990E-07
   10   -0.19518069E+03    0.00000000E+00    0.37302503E-08

Total Energy:                     -193.2565120211 H        -5258.7773 eV
Extrapolated to 0K:               -193.2565120211 H        -5258.7773 eV
Total Mermin free energy:         -193.2565120211 H        -5258.7773 eV
Force related energy:             -193.2565120211 H        -5258.7773 eV

Volume:                              0.112907E+05 au^3   0.167310E+04 A^3
Pressure:                            0.898586E-05 au     0.264373E+09 Pa
>> Charges saved for restart in charges.bin

total energy  -1.9325651E+02 H       energy change -4.9082840E-04 H
gradient norm  1.5339306E-02 H/a0    max. gradient  5.0806954E-03 H/a0
step length    1.0624894E-01 a0      max. step      2.3174132E-02 a0

--------------------------------------------------------------------------------

***  Geometry step: 30

 iSCC Total electronic   Diff electronic      SCC error    
    1   -0.19518069E+03    0.00000000E+00    0.32249595E-02
    2   -0.19517991E+03    0.77833913E-03    0.18367776E-02
    3   -0.19517992E+03   -0.55210154E-05    0.38985513E-03
    4   -0.19517992E+03   -0.98560469E-06    0.84570572E-04
    5   -0.19517992E+03   -0.40920696E-07    0.28561565E-04
    6   -0.19517992E+03   -0.13903616E-08    0.58834472E-05
    7   -0.19517992E+03   -0.41382009E-10    0.40412773E-06
    8   -0.19517992E+03   -0.38369308E-11    0.13822634E-06
    9   -0.19517992E+03   -0.22737368E-12    0.41937043E-07
   10   -0.19517992E+03    0.56843419E-13    0.48257176E-08

Total Energy:                     -193.2568592015 H        -5258.7867 eV
Extrapolated to 0K:               -193.2568592015 H        -5258.7867 eV
Total Mermin free energy:         -193.2568592015 H        -5258.7867 eV
Force related energy:             -193.2568592015 H        -5258.7867 eV

Volume:                              0.113021E+05 au^3   0.167480E+04 A^3
Pressure:                            0.803728E-05 au     0.236465E+09 Pa
>> Charges saved for restart in charges.bin

total energy  -1.9325686E+02 H       energy change -3.4718043E-04 H
gradient norm  1.4146603E-02 H/a0    max. gradient  4.8219720E-03 H/a0
step length    6.9954974E-02 a0      max. step      1.5173738E-02 a0

--------------------------------------------------------------------------------

***  Geometry step: 31

 iSCC Total electronic   Diff electronic      SCC error    
    1   -0.19517992E+03    0.00000000E+00    0.34009866E-02
    2   -0.19517692E+03    0.29920719E-02    0.19427654E-02
    3   -0.19517693E+03   -0.55213746E-05    0.39596638E-03
    4   -0.19517693E+03   -0.10320596E-05    0.67562677E-04
    5   -0.19517693E+03   -0.41066841E-07    0.23902608E-04
    6   -0.19517693E+03   -0.11130510E-08    0.49219745E-05
    7   -0.19517693E+03   -0.32201797E-10    0.78484360E-06
    8   -0.19517693E+03   -0.19042545E-11    0.15727262E-06
    9   -0.19517693E+03   -0.14210855E-12    0.39013944E-07
   10   -0.19517693E+03   -0.56843419E-13    0.56907901E-08

Total Energy:                     -193.2571980062 H        -5258.7959 eV
Extrapolated to 0K:               -193.2571980062 H        -5258.7959 eV
Total Mermin free energy:         -193.2571980062 H        -5258.7959 eV
Force related energy:             -193.2571980062 H        -5258.7959 eV

Volume:                              0.113118E+05 au^3   0.167624E+04 A^3
Pressure:                            0.614618E-05 au     0.180827E+09 Pa
>> Charges saved for restart in charges.bin

total energy  -1.9325720E+02 H       energy change -3.3880470E-04 H
gradient norm  1.4227876E-02 H/a0    max. gradient  3.6448735E-03 H/a0
step length    6.8624724E-02 a0      max. step      1.3246016E-02 a0

--------------------------------------------------------------------------------

***  Geometry step: 32

 iSCC Total electronic   Diff electronic      SCC error    
    1   -0.19517693E+03    0.00000000E+00    0.22803367E-02
    2   -0.19517376E+03    0.31720011E-02    0.13077448E-02
    3   -0.19517376E+03   -0.33435511E-05    0.27517629E-03
    4   -0.19517376E+03   -0.60931666E-06    0.50232214E-04
    5   -0.19517376E+03   -0.27402052E-07    0.16148322E-04
    6   -0.19517376E+03   -0.10278711E-08    0.30896551E-05
    7   -0.19517376E+03   -0.25920599E-10    0.71134391E-06
    8   -0.19517376E+03   -0.11652901E-11    0.14037038E-06
    9   -0.19517376E+03   -0.19895197E-12    0.28022817E-07
   10   -0.19517376E+03    0.85265128E-13    0.51559326E-08

Total Energy:                     -193.2575527083 H        -5258.8056 eV
Extrapolated to 0K:               -193.2575527083 H        -5258.8056 eV
Total Mermin free energy:         -193.2575527083 H        -5258.8056 eV
Force related energy:             -193.2575527083 H        -5258.8056 eV

Volume:                              0.113201E+05 au^3   0.167747E+04 A^3
Pressure:                            0.426274E-05 au     0.125414E+09 Pa
>> Charges saved for restart in charges.bin

total energy  -1.9325755E+02 H       energy change -3.5470204E-04 H
gradient norm  1.5982483E-02 H/a0    max. gradient  3.3652146E-03 H/a0
step length    7.3693879E-02 a0      max. step      1.6044296E-02 a0

--------------------------------------------------------------------------------

***  Geometry step: 33

 iSCC Total electronic   Diff electronic      SCC error    
    1   -0.19517376E+03    0.00000000E+00    0.32307281E-02
    2   -0.19517095E+03    0.28176019E-02    0.18612245E-02
    3   -0.19517095E+03   -0.66708442E-05    0.49027844E-03
    4   -0.19517095E+03   -0.11214136E-05    0.65266321E-04
    5   -0.19517095E+03   -0.44479293E-07    0.21391798E-04
    6   -0.19517095E+03   -0.20214088E-08    0.48490459E-05
    7   -0.19517095E+03   -0.58349769E-10    0.11238618E-05
    8   -0.19517095E+03   -0.20179414E-11    0.20070190E-06
    9   -0.19517095E+03   -0.25579538E-12    0.34342231E-07
   10   -0.19517095E+03    0.28421709E-13    0.81715230E-08

Total Energy:                     -193.2581128180 H        -5258.8208 eV
Extrapolated to 0K:               -193.2581128180 H        -5258.8208 eV
Total Mermin free energy:         -193.2581128180 H        -5258.8208 eV
Force related energy:             -193.2581128180 H        -5258.8208 eV

Volume:                              0.113321E+05 au^3   0.167924E+04 A^3
Pressure:                            0.219746E-05 au     0.646516E+08 Pa
>> Charges saved for restart in charges.bin

total energy  -1.9325811E+02 H       energy change -5.6010978E-04 H
gradient norm  1.9113558E-02 H/a0    max. gradient  3.5011823E-03 H/a0
step length    1.2496542E-01 a0      max. step      2.7989211E-02 a0

--------------------------------------------------------------------------------

***  Geometry step: 34

 iSCC Total electronic   Diff electronic      SCC error    
    1   -0.19517095E+03    0.00000000E+00    0.39080439E-02
    2   -0.19517135E+03   -0.39478035E-03    0.21844140E-02
    3   -0.19517136E+03   -0.91365658E-05    0.58089630E-03
    4   -0.19517136E+03   -0.14453735E-05    0.96449740E-04
    5   -0.19517136E+03   -0.49277361E-07    0.28942087E-04
    6   -0.19517136E+03   -0.24119515E-08    0.58418146E-05
    7   -0.19517136E+03   -0.58065552E-10    0.10814642E-05
    8   -0.19517136E+03   -0.21316282E-11    0.15685258E-06
    9   -0.19517136E+03   -0.34106051E-12    0.28251621E-07
   10   -0.19517136E+03    0.28421709E-13    0.62166294E-08

Total Energy:                     -193.2587777442 H        -5258.8389 eV
Extrapolated to 0K:               -193.2587777442 H        -5258.8389 eV
Total Mermin free energy:         -193.2587777442 H        -5258.8389 eV
Force related energy:             -193.2587777442 H        -5258.8389 eV

Volume:                              0.113464E+05 au^3   0.168137E+04 A^3
Pressure:                            0.112178E-05 au     0.330038E+08 Pa
>> Charges saved for restart in charges.bin

total energy  -1.9325878E+02 H       energy change -6.6492616E-04 H
gradient norm  2.0056777E-02 H/a0    max. gradient  4.1584901E-03 H/a0
step length    1.6443362E-01 a0      max. step      3.6365111E-02 a0

--------------------------------------------------------------------------------

***  Geometry step: 35

 iSCC Total electronic   Diff electronic      SCC error    
    1   -0.19517136E+03    0.00000000E+00    0.41537863E-02
    2   -0.19517711E+03   -0.57511746E-02    0.22958449E-02
    3   -0.19517712E+03   -0.13138408E-04    0.59108089E-03
    4   -0.19517713E+03   -0.21349236E-05    0.10612614E-03
    5   -0.19517713E+03   -0.64082684E-07    0.31347986E-04
    6   -0.19517713E+03   -0.28072975E-08    0.61931598E-05
    7   -0.19517713E+03   -0.44906301E-10    0.82488031E-06
    8   -0.19517713E+03   -0.23021585E-11    0.12793123E-06
    9   -0.19517713E+03   -0.36948222E-12    0.42640431E-07
   10   -0.19517713E+03   -0.28421709E-13    0.45376871E-08

Total Energy:                     -193.2594426272 H        -5258.8570 eV
Extrapolated to 0K:               -193.2594426272 H        -5258.8570 eV
Total Mermin free energy:         -193.2594426272 H        -5258.8570 eV
Force related energy:             -193.2594426272 H        -5258.8570 eV

Volume:                              0.113612E+05 au^3   0.168356E+04 A^3
Pressure:                            0.243471E-05 au     0.716315E+08 Pa
>> Charges saved for restart in charges.bin

total energy  -1.9325944E+02 H       energy change -6.6488296E-04 H
gradient norm  1.8690869E-02 H/a0    max. gradient  6.1925820E-03 H/a0
step length    1.8939705E-01 a0      max. step      4.0087347E-02 a0

--------------------------------------------------------------------------------

***  Geometry step: 36

 iSCC Total electronic   Diff electronic      SCC error    
    1   -0.19517713E+03    0.00000000E+00    0.42614026E-02
    2   -0.19518381E+03   -0.66879345E-02    0.23856434E-02
    3   -0.19518383E+03   -0.13075242E-04    0.63863465E-03
    4   -0.19518383E+03   -0.20853205E-05    0.57807130E-04
    5   -0.19518383E+03   -0.53655668E-07    0.19637483E-04
    6   -0.19518383E+03   -0.23330244E-08    0.61324653E-05
    7   -0.19518383E+03   -0.45616844E-10    0.96956655E-06
    8   -0.19518383E+03   -0.29274361E-11    0.16451477E-06
    9   -0.19518383E+03   -0.36948222E-12    0.47196972E-07
   10   -0.19518383E+03   -0.28421709E-13    0.53353499E-08

Total Energy:                     -193.2599408164 H        -5258.8706 eV
Extrapolated to 0K:               -193.2599408164 H        -5258.8706 eV
Total Mermin free energy:         -193.2599408164 H        -5258.8706 eV
Force related energy:             -193.2599408164 H        -5258.8706 eV

Volume:                              0.113745E+05 au^3   0.168553E+04 A^3
Pressure:                            0.422745E-05 au     0.124376E+09 Pa
>> Charges saved for restart in charges.bin

total energy  -1.9325994E+02 H       energy change -4.9818926E-04 H
gradient norm  1.5097429E-02 H/a0    max. gradient  6.4298142E-03 H/a0
step length    1.5800173E-01 a0      max. step      3.0891927E-02 a0

--------------------------------------------------------------------------------

***  Geometry step: 37

 iSCC Total electronic   Diff electronic      SCC error    
    1   -0.19518383E+03    0.00000000E+00    0.29894236E-02
    2   -0.19518944E+03   -0.56104368E-02    0.17252981E-02
    3   -0.19518945E+03   -0.87722388E-05    0.48475507E-03
    4   -0.19518945E+03   -0.14493916E-05    0.76147630E-04
    5   -0.19518945E+03   -0.41004228E-07    0.25474521E-04
    6   -0.19518945E+03   -0.21000517E-08    0.74995244E-05
    7   -0.19518945E+03   -0.64630967E-10    0.12509004E-05
    8   -0.19518945E+03   -0.29274361E-11    0.22736908E-06
    9   -0.19518945E+03   -0.19895197E-12    0.42842188E-07
   10   -0.19518945E+03   -0.56843419E-13    0.74514581E-08

Total Energy:                     -193.2603241332 H        -5258.8810 eV
Extrapolated to 0K:               -193.2603241332 H        -5258.8810 eV
Total Mermin free energy:         -193.2603241332 H        -5258.8810 eV
Force related energy:             -193.2603241332 H        -5258.8810 eV

Volume:                              0.113851E+05 au^3   0.168709E+04 A^3
Pressure:                            0.587817E-05 au     0.172942E+09 Pa
>> Charges saved for restart in charges.bin

total energy  -1.9326032E+02 H       energy change -3.8331678E-04 H
gradient norm  1.4579906E-02 H/a0    max. gradient  5.4173624E-03 H/a0
step length    1.2580973E-01 a0      max. step      2.3478057E-02 a0

--------------------------------------------------------------------------------

***  Geometry step: 38

 iSCC Total electronic   Diff electronic      SCC error    
    1   -0.19518945E+03    0.00000000E+00    0.25322090E-02
    2   -0.19519213E+03   -0.26760945E-02    0.13441355E-02
    3   -0.19519213E+03   -0.87525839E-05    0.46938035E-03
    4   -0.19519214E+03   -0.13444976E-05    0.91208347E-04
    5   -0.19519214E+03   -0.43148873E-07    0.30401352E-04
    6   -0.19519214E+03   -0.25398776E-08    0.85043682E-05
    7   -0.19519214E+03   -0.81968210E-10    0.10179763E-05
    8   -0.19519214E+03   -0.41211479E-11    0.18888117E-06
    9   -0.19519214E+03   -0.34106051E-12    0.41202580E-07
   10   -0.19519214E+03   -0.56843419E-13    0.71410926E-08

Total Energy:                     -193.2607388606 H        -5258.8923 eV
Extrapolated to 0K:               -193.2607388606 H        -5258.8923 eV
Total Mermin free energy:         -193.2607388606 H        -5258.8923 eV
Force related energy:             -193.2607388606 H        -5258.8923 eV

Volume:                              0.113959E+05 au^3   0.168870E+04 A^3
Pressure:                            0.628518E-05 au     0.184916E+09 Pa
>> Charges saved for restart in charges.bin

total energy  -1.9326074E+02 H       energy change -4.1472741E-04 H
gradient norm  1.6293308E-02 H/a0    max. gradient  4.0467524E-03 H/a0
step length    1.2491482E-01 a0      max. step      2.6917043E-02 a0

--------------------------------------------------------------------------------

***  Geometry step: 39

 iSCC Total electronic   Diff electronic      SCC error    
    1   -0.19519214E+03    0.00000000E+00    0.39253494E-02
    2   -0.19519207E+03    0.65524297E-04    0.23115359E-02
    3   -0.19519208E+03   -0.14445041E-04    0.69555648E-03
    4   -0.19519209E+03   -0.20659734E-05    0.12243032E-03
    5   -0.19519209E+03   -0.86761077E-07    0.43040782E-04
    6   -0.19519209E+03   -0.43039847E-08    0.11773646E-04
    7   -0.19519209E+03   -0.96207486E-10    0.12234577E-05
    8   -0.19519209E+03   -0.84980911E-11    0.27588026E-06
    9   -0.19519209E+03   -0.56843419E-12    0.69717100E-07
   10   -0.19519209E+03    0.00000000E+00    0.81626865E-08

Total Energy:                     -193.2612915493 H        -5258.9073 eV
Extrapolated to 0K:               -193.2612915493 H        -5258.9073 eV
Total Mermin free energy:         -193.2612915493 H        -5258.9073 eV
Force related energy:             -193.2612915493 H        -5258.9073 eV

Volume:                              0.114081E+05 au^3   0.169050E+04 A^3
Pressure:                            0.534366E-05 au     0.157216E+09 Pa
>> Charges saved for restart in charges.bin

total energy  -1.9326129E+02 H       energy change -5.5268866E-04 H
gradient norm  1.7854132E-02 H/a0    max. gradient  3.4775682E-03 H/a0
step length    1.6243929E-01 a0      max. step      3.5961145E-02 a0

--------------------------------------------------------------------------------

***  Geometry step: 40

 iSCC Total electronic   Diff electronic      SCC error    
    1   -0.19519209E+03    0.00000000E+00    0.42332316E-02
    2   -0.19518975E+03    0.23340505E-02    0.24055685E-02
    3   -0.19518977E+03   -0.17022084E-04    0.72320956E-03
    4   -0.19518977E+03   -0.22391058E-05    0.10543118E-03
    5   -0.19518977E+03   -0.98768766E-07    0.37789148E-04
    6   -0.19518977E+03   -0.42016381E-08    0.10537656E-04
    7   -0.19518977E+03   -0.69348971E-10    0.16267195E-05
    8   -0.19518977E+03   -0.66222583E-11    0.20164258E-06
    9   -0.19518977E+03   -0.54001248E-12    0.50718120E-07
   10   -0.19518977E+03   -0.85265128E-13    0.95475299E-08

Total Energy:                     -193.2618123841 H        -5258.9215 eV
Extrapolated to 0K:               -193.2618123841 H        -5258.9215 eV
Total Mermin free energy:         -193.2618123841 H        -5258.9215 eV
Force related energy:             -193.2618123841 H        -5258.9215 eV

Volume:                              0.114173E+05 au^3   0.169187E+04 A^3
Pressure:                            0.369621E-05 au     0.108746E+09 Pa
>> Charges saved for restart in charges.bin

total energy  -1.9326181E+02 H       energy change -5.2083482E-04 H
gradient norm  1.6452921E-02 H/a0    max. gradient  3.0157415E-03 H/a0
step length    1.6220332E-01 a0      max. step      3.5363591E-02 a0

--------------------------------------------------------------------------------

***  Geometry step: 41

 iSCC Total electronic   Diff electronic      SCC error    
    1   -0.19518977E+03    0.00000000E+00    0.38210521E-02
    2   -0.19518725E+03    0.25218602E-02    0.15136179E-02
    3   -0.19518726E+03   -0.12956709E-04    0.45755980E-03
    4   -0.19518726E+03   -0.16948638E-05    0.59034862E-04
    5   -0.19518727E+03   -0.74621909E-07    0.19662529E-04
    6   -0.19518727E+03   -0.28006184E-08    0.60546739E-05
    7   -0.19518727E+03   -0.45787374E-10    0.14073102E-05
    8   -0.19518727E+03   -0.24442670E-11    0.23388524E-06
    9   -0.19518727E+03   -0.36948222E-12    0.48264048E-07
   10   -0.19518727E+03   -0.28421709E-13    0.76244815E-08

Total Energy:                     -193.2622336073 H        -5258.9329 eV
Extrapolated to 0K:               -193.2622336073 H        -5258.9329 eV
Total Mermin free energy:         -193.2622336073 H        -5258.9329 eV
Force related energy:             -193.2622336073 H        -5258.9329 eV

Volume:                              0.114233E+05 au^3   0.169277E+04 A^3
Pressure:                            0.233174E-05 au     0.686022E+08 Pa
>> Charges saved for restart in charges.bin

total energy  -1.9326223E+02 H       energy change -4.2122320E-04 H
gradient norm  1.4018146E-02 H/a0    max. gradient  3.1488376E-03 H/a0
step length    1.4083637E-01 a0      max. step      3.2733706E-02 a0

--------------------------------------------------------------------------------

***  Geometry step: 42

 iSCC Total electronic   Diff electronic      SCC error    
    1   -0.19518727E+03    0.00000000E+00    0.32883570E-02
    2   -0.19518621E+03    0.10552871E-02    0.17494959E-02
    3   -0.19518622E+03   -0.92665438E-05    0.46057041E-03
    4   -0.19518622E+03   -0.12331524E-05    0.45521806E-04
    5   -0.19518622E+03   -0.46741604E-07    0.11427008E-04
    6   -0.19518622E+03   -0.21190090E-08    0.44008401E-05
    7   -0.19518622E+03   -0.52324367E-10    0.11080220E-05
    8   -0.19518622E+03   -0.18189894E-11    0.29548020E-06
    9   -0.19518622E+03   -0.28421709E-13    0.68072513E-07
   10   -0.19518622E+03   -0.56843419E-13    0.10306554E-07
   11   -0.19518622E+03   -0.11368684E-12    0.14128059E-08

Total Energy:                     -193.2625654762 H        -5258.9420 eV
Extrapolated to 0K:               -193.2625654762 H        -5258.9420 eV
Total Mermin free energy:         -193.2625654762 H        -5258.9420 eV
Force related energy:             -193.2625654762 H        -5258.9420 eV

Volume:                              0.114271E+05 au^3   0.169332E+04 A^3
Pressure:                            0.166184E-05 au     0.488930E+08 Pa
>> Charges saved for restart in charges.bin

total energy  -1.9326257E+02 H       energy change -3.3186889E-04 H
gradient norm  1.3554459E-02 H/a0    max. gradient  2.8064741E-03 H/a0
step length    1.0994648E-01 a0      max. step      2.5840435E-02 a0

--------------------------------------------------------------------------------

***  Geometry step: 43

 iSCC Total electronic   Diff electronic      SCC error    
    1   -0.19518622E+03    0.00000000E+00    0.36270876E-02
    2   -0.19518763E+03   -0.14100601E-02    0.19503928E-02
    3   -0.19518764E+03   -0.84844344E-05    0.57006320E-03
    4   -0.19518764E+03   -0.12524125E-05    0.82530809E-04
    5   -0.19518764E+03   -0.46481489E-07    0.25197894E-04
    6   -0.19518764E+03   -0.29803573E-08    0.80303304E-05
    7   -0.19518764E+03   -0.73242745E-10    0.10556616E-05
    8   -0.19518764E+03   -0.32116532E-11    0.21785059E-06
    9   -0.19518764E+03   -0.11368684E-12    0.58809015E-07
   10   -0.19518764E+03   -0.11368684E-12    0.83006593E-08

Total Energy:                     -193.2628997272 H        -5258.9511 eV
Extrapolated to 0K:               -193.2628997272 H        -5258.9511 eV
Total Mermin free energy:         -193.2628997272 H        -5258.9511 eV
Force related energy:             -193.2628997272 H        -5258.9511 eV

Volume:                              0.114308E+05 au^3   0.169387E+04 A^3
Pressure:                            0.176675E-05 au     0.519797E+08 Pa
>> Charges saved for restart in charges.bin

total energy  -1.9326290E+02 H       energy change -3.3425105E-04 H
gradient norm  1.3932826E-02 H/a0    max. gradient  2.9793283E-03 H/a0
step length    1.1037535E-01 a0      max. step      2.4109636E-02 a0

--------------------------------------------------------------------------------

***  Geometry step: 44

 iSCC Total electronic   Diff electronic      SCC error    
    1   -0.19518764E+03    0.00000000E+00    0.31866401E-02
    2   -0.19519134E+03   -0.37015725E-02    0.18354150E-02
    3   -0.19519135E+03   -0.88129208E-05    0.52015436E-03
    4   -0.19519135E+03   -0.13304268E-05    0.10164037E-03
    5   -0.19519135E+03   -0.52328858E-07    0.32043367E-04
    6   -0.19519135E+03   -0.36472159E-08    0.98714647E-05
    7   -0.19519135E+03   -0.80291329E-10    0.10689010E-05
    8   -0.19519135E+03   -0.43769433E-11    0.20105692E-06
    9   -0.19519135E+03   -0.31263880E-12    0.37653943E-07
   10   -0.19519135E+03    0.56843419E-13    0.58784209E-08

Total Energy:                     -193.2632164135 H        -5258.9597 eV
Extrapolated to 0K:               -193.2632164135 H        -5258.9597 eV
Total Mermin free energy:         -193.2632164135 H        -5258.9597 eV
Force related energy:             -193.2632164135 H        -5258.9597 eV

Volume:                              0.114344E+05 au^3   0.169441E+04 A^3
Pressure:                            0.295780E-05 au     0.870213E+08 Pa
>> Charges saved for restart in charges.bin

total energy  -1.9326322E+02 H       energy change -3.1668630E-04 H
gradient norm  1.3430145E-02 H/a0    max. gradient  3.0426189E-03 H/a0
step length    1.1576716E-01 a0      max. step      2.3345246E-02 a0

--------------------------------------------------------------------------------

***  Geometry step: 45

 iSCC Total electronic   Diff electronic      SCC error    
    1   -0.19519135E+03    0.00000000E+00    0.27535163E-02
    2   -0.19519508E+03   -0.37326839E-02    0.16453492E-02
    3   -0.19519509E+03   -0.85106716E-05    0.50376676E-03
    4   -0.19519509E+03   -0.11587101E-05    0.82385495E-04
    5   -0.19519509E+03   -0.47718629E-07    0.27278915E-04
    6   -0.19519509E+03   -0.29782541E-08    0.93034679E-05
    7   -0.19519509E+03   -0.63977268E-10    0.10329998E-05
    8   -0.19519509E+03   -0.32400749E-11    0.19465347E-06
    9   -0.19519509E+03   -0.31263880E-12    0.35004255E-07
   10   -0.19519509E+03   -0.56843419E-13    0.57637761E-08

Total Energy:                     -193.2635046718 H        -5258.9675 eV
Extrapolated to 0K:               -193.2635046718 H        -5258.9675 eV
Total Mermin free energy:         -193.2635046718 H        -5258.9675 eV
Force related energy:             -193.2635046718 H        -5258.9675 eV

Volume:                              0.114402E+05 au^3   0.169527E+04 A^3
Pressure:                            0.385224E-05 au     0.113337E+09 Pa
>> Charges saved for restart in charges.bin

total energy  -1.9326350E+02 H       energy change -2.8825823E-04 H
gradient norm  1.1850480E-02 H/a0    max. gradient  2.7672198E-03 H/a0
step length    1.2581836E-01 a0      max. step      2.3058694E-02 a0

--------------------------------------------------------------------------------

***  Geometry step: 46

 iSCC Total electronic   Diff electronic      SCC error    
    1   -0.19519509E+03    0.00000000E+00    0.26805832E-02
    2   -0.19519812E+03   -0.30226165E-02    0.13884795E-02
    3   -0.19519812E+03   -0.66498939E-05    0.45073799E-03
    4   -0.19519812E+03   -0.88553963E-06    0.47980292E-04
    5   -0.19519812E+03   -0.34700093E-07    0.10607749E-04
    6   -0.19519812E+03   -0.21320261E-08    0.43312764E-05
    7   -0.19519812E+03   -0.46043169E-10    0.79236571E-06
    8   -0.19519812E+03   -0.13642421E-11    0.18617619E-06
    9   -0.19519812E+03   -0.56843419E-13    0.32698964E-07
   10   -0.19519812E+03   -0.28421709E-13    0.55986407E-08

Total Energy:                     -193.2637401079 H        -5258.9739 eV
Extrapolated to 0K:               -193.2637401079 H        -5258.9739 eV
Total Mermin free energy:         -193.2637401079 H        -5258.9739 eV
Force related energy:             -193.2637401079 H        -5258.9739 eV

Volume:                              0.114448E+05 au^3   0.169594E+04 A^3
Pressure:                            0.488523E-05 au     0.143728E+09 Pa
>> Charges saved for restart in charges.bin

total energy  -1.9326374E+02 H       energy change -2.3543616E-04 H
gradient norm  1.1274859E-02 H/a0    max. gradient  3.0224873E-03 H/a0
step length    1.1306656E-01 a0      max. step      2.2244126E-02 a0

--------------------------------------------------------------------------------

***  Geometry step: 47

 iSCC Total electronic   Diff electronic      SCC error    
    1   -0.19519812E+03    0.00000000E+00    0.27486570E-02
    2   -0.19519828E+03   -0.15304861E-03    0.16313100E-02
    3   -0.19519828E+03   -0.52255147E-05    0.46956735E-03
    4   -0.19519828E+03   -0.70442064E-06    0.40714623E-04
    5   -0.19519828E+03   -0.35658388E-07    0.13833805E-04
    6   -0.19519828E+03   -0.19581421E-08    0.51884779E-05
    7   -0.19519828E+03   -0.34532377E-10    0.85621098E-06
    8   -0.19519828E+03   -0.79580786E-12    0.18888479E-06
    9   -0.19519828E+03   -0.14210855E-12    0.31913471E-07
   10   -0.19519828E+03   -0.28421709E-13    0.47057576E-08

Total Energy:                     -193.2639586056 H        -5258.9799 eV
Extrapolated to 0K:               -193.2639586056 H        -5258.9799 eV
Total Mermin free energy:         -193.2639586056 H        -5258.9799 eV
Force related energy:             -193.2639586056 H        -5258.9799 eV

Volume:                              0.114500E+05 au^3   0.169671E+04 A^3
Pressure:                            0.474051E-05 au     0.139470E+09 Pa
>> Charges saved for restart in charges.bin

total energy  -1.9326396E+02 H       energy change -2.1849770E-04 H
gradient norm  1.1642331E-02 H/a0    max. gradient  2.8666093E-03 H/a0
step length    1.0378355E-01 a0      max. step      2.1930251E-02 a0

--------------------------------------------------------------------------------

***  Geometry step: 48

 iSCC Total electronic   Diff electronic      SCC error    
    1   -0.19519828E+03    0.00000000E+00    0.38549004E-02
    2   -0.19519694E+03    0.13481550E-02    0.22199054E-02
    3   -0.19519694E+03   -0.81988542E-05    0.54054524E-03
    4   -0.19519694E+03   -0.12034192E-05    0.60913784E-04
    5   -0.19519694E+03   -0.66035739E-07    0.20364794E-04
    6   -0.19519694E+03   -0.36591814E-08    0.64396926E-05
    7   -0.19519694E+03   -0.52295945E-10    0.98530013E-06
    8   -0.19519694E+03   -0.25863756E-11    0.19803317E-06
    9   -0.19519694E+03   -0.17053026E-12    0.41914294E-07
   10   -0.19519694E+03   -0.85265128E-13    0.52182711E-08

Total Energy:                     -193.2642204595 H        -5258.9870 eV
Extrapolated to 0K:               -193.2642204595 H        -5258.9870 eV
Total Mermin free energy:         -193.2642204595 H        -5258.9870 eV
Force related energy:             -193.2642204595 H        -5258.9870 eV

Volume:                              0.114542E+05 au^3   0.169733E+04 A^3
Pressure:                            0.425813E-05 au     0.125278E+09 Pa
>> Charges saved for restart in charges.bin

total energy  -1.9326422E+02 H       energy change -2.6185394E-04 H
gradient norm  1.1984696E-02 H/a0    max. gradient  2.2603392E-03 H/a0
step length    1.1669717E-01 a0      max. step      2.7456739E-02 a0

--------------------------------------------------------------------------------

***  Geometry step: 49

 iSCC Total electronic   Diff electronic      SCC error    
    1   -0.19519694E+03    0.00000000E+00    0.33671892E-02
    2   -0.19519390E+03    0.30407419E-02    0.18974356E-02
    3   -0.19519391E+03   -0.77604524E-05    0.43258787E-03
    4   -0.19519391E+03   -0.12637201E-05    0.50468606E-04
    5   -0.19519391E+03   -0.59113006E-07    0.16697094E-04
    6   -0.19519391E+03   -0.36525876E-08    0.52234012E-05
    7   -0.19519391E+03   -0.64403594E-10    0.10115309E-05
    8   -0.19519391E+03   -0.25011104E-11    0.20562729E-06
    9   -0.19519391E+03   -0.14210855E-12    0.41687503E-07
   10   -0.19519391E+03   -0.28421709E-13    0.50973568E-08

Total Energy:                     -193.2644525076 H        -5258.9933 eV
Extrapolated to 0K:               -193.2644525076 H        -5258.9933 eV
Total Mermin free energy:         -193.2644525076 H        -5258.9933 eV
Force related energy:             -193.2644525076 H        -5258.9933 eV

Volume:                              0.114583E+05 au^3   0.169795E+04 A^3
Pressure:                            0.289221E-05 au     0.850918E+08 Pa
>> Charges saved for restart in charges.bin

total energy  -1.9326445E+02 H       energy change -2.3204810E-04 H
gradient norm  1.1618462E-02 H/a0    max. gradient  2.5055755E-03 H/a0
step length    9.9181963E-02 a0      max. step      2.4586791E-02 a0

--------------------------------------------------------------------------------

***  Geometry step: 50

 iSCC Total electronic   Diff electronic      SCC error    
    1   -0.19519391E+03    0.00000000E+00    0.28998894E-02
    2   -0.19519194E+03    0.19695866E-02    0.15440979E-02
    3   -0.19519195E+03   -0.58998157E-05    0.37488084E-03
    4   -0.19519195E+03   -0.98431647E-06    0.41585431E-04
    5   -0.19519195E+03   -0.34375034E-07    0.12414961E-04
    6   -0.19519195E+03   -0.19489335E-08    0.41675125E-05
    7   -0.19519195E+03   -0.44821036E-10    0.77441914E-06
    8   -0.19519195E+03   -0.15063506E-11    0.15966947E-06
    9   -0.19519195E+03   -0.85265128E-13    0.42184993E-07
   10   -0.19519195E+03   -0.85265128E-13    0.65070558E-08

Total Energy:                     -193.2646689435 H        -5258.9992 eV
Extrapolated to 0K:               -193.2646689435 H        -5258.9992 eV
Total Mermin free energy:         -193.2646689435 H        -5258.9992 eV
Force related energy:             -193.2646689435 H        -5258.9992 eV

Volume:                              0.114604E+05 au^3   0.169826E+04 A^3
Pressure:                            0.207456E-05 au     0.610355E+08 Pa
>> Charges saved for restart in charges.bin

total energy  -1.9326467E+02 H       energy change -2.1643590E-04 H
gradient norm  1.0885277E-02 H/a0    max. gradient  2.7900166E-03 H/a0
step length    7.5896033E-02 a0      max. step      1.8912821E-02 a0

[...]
Pressure:                            0.145868E-06 au     0.429157E+07 Pa
>> Charges saved for restart in charges.bin

total energy  -1.9327490E+02 H       energy change -1.2659341E-06 H
gradient norm  8.3714918E-04 H/a0    max. gradient  1.8461942E-04 H/a0
step length    1.0406160E-02 a0      max. step      2.7530254E-03 a0

--------------------------------------------------------------------------------

***  Geometry step: 160

 iSCC Total electronic   Diff electronic      SCC error    
    1   -0.19518224E+03    0.00000000E+00    0.27639535E-03
    2   -0.19518216E+03    0.84397568E-04    0.90770790E-04
    3   -0.19518216E+03   -0.41633029E-07    0.29998955E-04
    4   -0.19518216E+03   -0.44357762E-08    0.63090096E-05
    5   -0.19518216E+03   -0.12028067E-09    0.17394645E-05
    6   -0.19518216E+03   -0.83559826E-11    0.48720856E-06
    7   -0.19518216E+03   -0.22737368E-12    0.36334012E-07
    8   -0.19518216E+03   -0.28421709E-13    0.50465276E-08

Total Energy:                     -193.2749058285 H        -5259.2778 eV
Extrapolated to 0K:               -193.2749058285 H        -5259.2778 eV
Total Mermin free energy:         -193.2749058285 H        -5259.2778 eV
Force related energy:             -193.2749058285 H        -5259.2778 eV

Volume:                              0.112252E+05 au^3   0.166340E+04 A^3
Pressure:                            0.129695E-06 au     0.381574E+07 Pa
>> Charges saved for restart in charges.bin

total energy  -1.9327491E+02 H       energy change -1.0832215E-06 H
gradient norm  8.0191540E-04 H/a0    max. gradient  2.4554457E-04 H/a0
step length    8.2297270E-03 a0      max. step      1.8284207E-03 a0

--------------------------------------------------------------------------------

***  Geometry step: 161

 iSCC Total electronic   Diff electronic      SCC error    
    1   -0.19518216E+03    0.00000000E+00    0.17011357E-03
    2   -0.19518194E+03    0.21928916E-03    0.76283738E-04
    3   -0.19518194E+03   -0.23491395E-07    0.22228353E-04
    4   -0.19518194E+03   -0.38461678E-08    0.25467719E-05
    5   -0.19518194E+03   -0.88022034E-10    0.82906481E-06
    6   -0.19518194E+03   -0.34674486E-11    0.22444173E-06
    7   -0.19518194E+03   -0.85265128E-13    0.30995857E-07
    8   -0.19518194E+03    0.28421709E-13    0.43308388E-08

Total Energy:                     -193.2749066834 H        -5259.2778 eV
Extrapolated to 0K:               -193.2749066834 H        -5259.2778 eV
Total Mermin free energy:         -193.2749066834 H        -5259.2778 eV
Force related energy:             -193.2749066834 H        -5259.2778 eV

Volume:                              0.112254E+05 au^3   0.166343E+04 A^3
Pressure:                           -0.170541E-08 au    -0.501748E+05 Pa
>> Charges saved for restart in charges.bin

total energy  -1.9327491E+02 H       energy change -8.5485641E-07 H
gradient norm  6.7546912E-04 H/a0    max. gradient  2.0517667E-04 H/a0
step length    3.6054938E-03 a0      max. step      8.1980501E-04 a0

--------------------------------------------------------------------------------

***  Geometry step: 162

 iSCC Total electronic   Diff electronic      SCC error    
    1   -0.19518194E+03    0.00000000E+00    0.16478934E-03
    2   -0.19518181E+03    0.13242764E-03    0.96627079E-04
    3   -0.19518181E+03   -0.25844855E-07    0.28867863E-04
    4   -0.19518181E+03   -0.41061128E-08    0.28160681E-05
    5   -0.19518181E+03   -0.11073098E-09    0.82588767E-06
    6   -0.19518181E+03   -0.49169557E-11    0.19660411E-06
    7   -0.19518181E+03   -0.17053026E-12    0.28486317E-07
    8   -0.19518181E+03    0.56843419E-13    0.50847708E-08

Total Energy:                     -193.2749072762 H        -5259.2778 eV
Extrapolated to 0K:               -193.2749072762 H        -5259.2778 eV
Total Mermin free energy:         -193.2749072762 H        -5259.2778 eV
Force related energy:             -193.2749072762 H        -5259.2778 eV

Volume:                              0.112255E+05 au^3   0.166345E+04 A^3
Pressure:                           -0.322847E-07 au    -0.949850E+06 Pa
>> Charges saved for restart in charges.bin

total energy  -1.9327491E+02 H       energy change -5.9281857E-07 H
gradient norm  5.3142754E-04 H/a0    max. gradient  1.5669030E-04 H/a0
step length    3.6881310E-03 a0      max. step      7.7422631E-04 a0

--------------------------------------------------------------------------------

***  Geometry step: 163

 iSCC Total electronic   Diff electronic      SCC error    
    1   -0.19518181E+03    0.00000000E+00    0.86655098E-04
    2   -0.19518175E+03    0.58634300E-04    0.46932029E-04
    3   -0.19518175E+03   -0.47371600E-08    0.12117026E-04
    4   -0.19518175E+03   -0.91574748E-09    0.83766317E-06
    5   -0.19518175E+03   -0.29757530E-10    0.11527487E-06
    6   -0.19518175E+03   -0.85265128E-12    0.44969453E-07
    7   -0.19518175E+03   -0.56843419E-13    0.11481711E-07
    8   -0.19518175E+03    0.19895197E-12    0.26505598E-08

Total Energy:                     -193.2749075638 H        -5259.2778 eV
Extrapolated to 0K:               -193.2749075638 H        -5259.2778 eV
Total Mermin free energy:         -193.2749075638 H        -5259.2778 eV
Force related energy:             -193.2749075638 H        -5259.2778 eV

Volume:                              0.112255E+05 au^3   0.166345E+04 A^3
Pressure:                           -0.727571E-07 au    -0.214059E+07 Pa
>> Charges saved for restart in charges.bin

total energy  -1.9327491E+02 H       energy change -2.8761383E-07 H
gradient norm  4.7534702E-04 H/a0    max. gradient  1.1376795E-04 H/a0
step length    1.0095257E-03 a0      max. step      1.8861699E-04 a0

--------------------------------------------------------------------------------

***  Geometry step: 164

 iSCC Total electronic   Diff electronic      SCC error    
    1   -0.19518175E+03    0.00000000E+00    0.18742988E-03
    2   -0.19518177E+03   -0.20902968E-04    0.76864473E-04
    3   -0.19518177E+03   -0.27493513E-07    0.24265890E-04
    4   -0.19518177E+03   -0.39475481E-08    0.25624934E-05
    5   -0.19518177E+03   -0.11198154E-09    0.71677146E-06
    6   -0.19518177E+03   -0.76170181E-11    0.25171017E-06
    7   -0.19518177E+03   -0.19895197E-12    0.48808740E-07
    8   -0.19518177E+03    0.00000000E+00    0.90579531E-08

Total Energy:                     -193.2749083210 H        -5259.2778 eV
Extrapolated to 0K:               -193.2749083210 H        -5259.2778 eV
Total Mermin free energy:         -193.2749083210 H        -5259.2778 eV
Force related energy:             -193.2749083210 H        -5259.2778 eV

Volume:                              0.112261E+05 au^3   0.166353E+04 A^3
Pressure:                           -0.944651E-07 au    -0.277926E+07 Pa
>> Charges saved for restart in charges.bin

total energy  -1.9327491E+02 H       energy change -7.5714993E-07 H
gradient norm  6.8378160E-04 H/a0    max. gradient  2.3382991E-04 H/a0
step length    1.8659784E-02 a0      max. step      4.1818685E-03 a0

--------------------------------------------------------------------------------

***  Geometry step: 165

 iSCC Total electronic   Diff electronic      SCC error    
    1   -0.19518177E+03    0.00000000E+00    0.76817730E-04
    2   -0.19518178E+03   -0.76588852E-05    0.45306878E-04
    3   -0.19518178E+03   -0.25998190E-08    0.12812592E-04
    4   -0.19518178E+03   -0.41296744E-09    0.69070358E-06
    5   -0.19518178E+03   -0.15859314E-10    0.14601653E-06
    6   -0.19518178E+03   -0.65369932E-12    0.49833982E-07
    7   -0.19518178E+03   -0.11368684E-12    0.10369629E-07
    8   -0.19518178E+03    0.00000000E+00    0.21541191E-08

Total Energy:                     -193.2749086671 H        -5259.2779 eV
Extrapolated to 0K:               -193.2749086671 H        -5259.2779 eV
Total Mermin free energy:         -193.2749086671 H        -5259.2779 eV
Force related energy:             -193.2749086671 H        -5259.2779 eV

Volume:                              0.112261E+05 au^3   0.166353E+04 A^3
Pressure:                           -0.764452E-07 au    -0.224910E+07 Pa
>> Charges saved for restart in charges.bin

total energy  -1.9327491E+02 H       energy change -3.4617301E-07 H
gradient norm  5.3480614E-04 H/a0    max. gradient  1.2437122E-04 H/a0
step length    1.2183873E-03 a0      max. step      2.2925113E-04 a0

--------------------------------------------------------------------------------

***  Geometry step: 166

 iSCC Total electronic   Diff electronic      SCC error    
    1   -0.19518178E+03    0.00000000E+00    0.14733707E-03
    2   -0.19518171E+03    0.66263755E-04    0.64585037E-04
    3   -0.19518171E+03   -0.18251370E-07    0.21387635E-04
    4   -0.19518171E+03   -0.25600571E-08    0.21999631E-05
    5   -0.19518171E+03   -0.54967586E-10    0.26638872E-06
    6   -0.19518171E+03   -0.38369308E-11    0.68301691E-07
    7   -0.19518171E+03   -0.85265128E-13    0.13390137E-07
    8   -0.19518171E+03    0.00000000E+00    0.15484876E-08

Total Energy:                     -193.2749095837 H        -5259.2779 eV
Extrapolated to 0K:               -193.2749095837 H        -5259.2779 eV
Total Mermin free energy:         -193.2749095837 H        -5259.2779 eV
Force related energy:             -193.2749095837 H        -5259.2779 eV

Volume:                              0.112261E+05 au^3   0.166353E+04 A^3
Pressure:                           -0.126922E-06 au    -0.373418E+07 Pa
>> Charges saved for restart in charges.bin

total energy  -1.9327491E+02 H       energy change -9.1655690E-07 H
gradient norm  7.6659404E-04 H/a0    max. gradient  2.5479679E-04 H/a0
step length    4.4232369E-03 a0      max. step      1.1126194E-03 a0

--------------------------------------------------------------------------------

***  Geometry step: 167

 iSCC Total electronic   Diff electronic      SCC error    
    1   -0.19518171E+03    0.00000000E+00    0.24385668E-03
    2   -0.19518180E+03   -0.87076118E-04    0.10623194E-03
    3   -0.19518180E+03   -0.44972921E-07    0.33658902E-04
    4   -0.19518180E+03   -0.60886407E-08    0.36770665E-05
    5   -0.19518180E+03   -0.11164047E-09    0.70828548E-06
    6   -0.19518180E+03   -0.70485839E-11    0.25608319E-06
    7   -0.19518180E+03   -0.19895197E-12    0.59318556E-07
    8   -0.19518180E+03   -0.28421709E-13    0.56880176E-08

Total Energy:                     -193.2749107141 H        -5259.2779 eV
Extrapolated to 0K:               -193.2749107141 H        -5259.2779 eV
Total Mermin free energy:         -193.2749107141 H        -5259.2779 eV
Force related energy:             -193.2749107141 H        -5259.2779 eV

Volume:                              0.112261E+05 au^3   0.166353E+04 A^3
Pressure:                           -0.783944E-07 au    -0.230644E+07 Pa
>> Charges saved for restart in charges.bin

total energy  -1.9327491E+02 H       energy change -1.1303725E-06 H
gradient norm  8.8209758E-04 H/a0    max. gradient  2.7068616E-04 H/a0
step length    9.8088612E-03 a0      max. step      2.2053603E-03 a0

--------------------------------------------------------------------------------

***  Geometry step: 168

 iSCC Total electronic   Diff electronic      SCC error    
    1   -0.19518180E+03    0.00000000E+00    0.12554842E-03
    2   -0.19518202E+03   -0.22210323E-03    0.59005191E-04
    3   -0.19518202E+03   -0.14199173E-07    0.16286623E-04
    4   -0.19518202E+03   -0.22898803E-08    0.17549005E-05
    5   -0.19518202E+03   -0.36351366E-10    0.40427741E-06
    6   -0.19518202E+03   -0.25011104E-11    0.15203102E-06
    7   -0.19518202E+03   -0.28421709E-13    0.35557826E-07
    8   -0.19518202E+03    0.00000000E+00    0.47220965E-08

Total Energy:                     -193.2749110632 H        -5259.2779 eV
Extrapolated to 0K:               -193.2749110632 H        -5259.2779 eV
Total Mermin free energy:         -193.2749110632 H        -5259.2779 eV
Force related energy:             -193.2749110632 H        -5259.2779 eV

Volume:                              0.112258E+05 au^3   0.166349E+04 A^3
Pressure:                            0.155395E-07 au     0.457188E+06 Pa
>> Charges saved for restart in charges.bin

total energy  -1.9327491E+02 H       energy change -3.4916559E-07 H
gradient norm  1.1265357E-03 H/a0    max. gradient  6.8986882E-04 H/a0
step length    9.3542861E-04 a0      max. step      2.8413262E-04 a0

--------------------------------------------------------------------------------

***  Geometry step: 169

 iSCC Total electronic   Diff electronic      SCC error    
    1   -0.19518202E+03    0.00000000E+00    0.20078285E-03
    2   -0.19518196E+03    0.57848941E-04    0.85973569E-04
    3   -0.19518196E+03   -0.32114031E-07    0.28345464E-04
    4   -0.19518196E+03   -0.45094737E-08    0.30104575E-05
    5   -0.19518196E+03   -0.97685415E-10    0.96056109E-06
    6   -0.19518196E+03   -0.48885340E-11    0.31134096E-06
    7   -0.19518196E+03    0.00000000E+00    0.47430276E-07
    8   -0.19518196E+03   -0.85265128E-13    0.51929048E-08

Total Energy:                     -193.2749121721 H        -5259.2779 eV
Extrapolated to 0K:               -193.2749121721 H        -5259.2779 eV
Total Mermin free energy:         -193.2749121721 H        -5259.2779 eV
Force related energy:             -193.2749121721 H        -5259.2779 eV

Volume:                              0.112262E+05 au^3   0.166356E+04 A^3
Pressure:                           -0.357952E-07 au    -0.105313E+07 Pa
>> Charges saved for restart in charges.bin

total energy  -1.9327491E+02 H       energy change -1.1088236E-06 H
gradient norm  6.7428481E-04 H/a0    max. gradient  2.5758658E-04 H/a0
step length    1.0656652E-02 a0      max. step      2.6167864E-03 a0

--------------------------------------------------------------------------------

***  Geometry step: 170

 iSCC Total electronic   Diff electronic      SCC error    
    1   -0.19518196E+03    0.00000000E+00    0.27634539E-03
    2   -0.19518187E+03    0.94029367E-04    0.15894751E-03
    3   -0.19518187E+03   -0.41907754E-07    0.49001388E-04
    4   -0.19518187E+03   -0.57159184E-08    0.40607330E-05
    5   -0.19518187E+03   -0.17445245E-09    0.13385324E-05
    6   -0.19518187E+03   -0.97486463E-11    0.41758778E-06
    7   -0.19518187E+03   -0.19895197E-12    0.46017953E-07
    8   -0.19518187E+03   -0.14210855E-12    0.75471536E-08

Total Energy:                     -193.2749127996 H        -5259.2780 eV
Extrapolated to 0K:               -193.2749127996 H        -5259.2780 eV
Total Mermin free energy:         -193.2749127996 H        -5259.2780 eV
Force related energy:             -193.2749127996 H        -5259.2780 eV

Volume:                              0.112266E+05 au^3   0.166362E+04 A^3
Pressure:                           -0.691897E-07 au    -0.203563E+07 Pa
>> Charges saved for restart in charges.bin

total energy  -1.9327491E+02 H       energy change -6.2754435E-07 H
gradient norm  5.4597030E-04 H/a0    max. gradient  1.2987741E-04 H/a0
step length    1.0923600E-02 a0      max. step      2.5309210E-03 a0

--------------------------------------------------------------------------------

***  Geometry step: 171

 iSCC Total electronic   Diff electronic      SCC error    
    1   -0.19518187E+03    0.00000000E+00    0.66983142E-04
    2   -0.19518183E+03    0.39713543E-04    0.37786421E-04
    3   -0.19518183E+03   -0.23165114E-08    0.84985577E-05
    4   -0.19518183E+03   -0.41529802E-09    0.72882486E-06
    5   -0.19518183E+03   -0.14722445E-10    0.16826140E-06
    6   -0.19518183E+03   -0.42632564E-12    0.59696437E-07
    7   -0.19518183E+03   -0.11368684E-12    0.11700975E-07
    8   -0.19518183E+03    0.85265128E-13    0.16213626E-08

Total Energy:                     -193.2749130332 H        -5259.2780 eV
Extrapolated to 0K:               -193.2749130332 H        -5259.2780 eV
Total Mermin free energy:         -193.2749130332 H        -5259.2780 eV
Force related energy:             -193.2749130332 H        -5259.2780 eV

Volume:                              0.112267E+05 au^3   0.166362E+04 A^3
Pressure:                           -0.121123E-06 au    -0.356357E+07 Pa
>> Charges saved for restart in charges.bin

total energy  -1.9327491E+02 H       energy change -2.3358689E-07 H
gradient norm  4.1521872E-04 H/a0    max. gradient  1.5718911E-04 H/a0
step length    7.1746467E-04 a0      max. step      1.2857545E-04 a0

--------------------------------------------------------------------------------

***  Geometry step: 172

 iSCC Total electronic   Diff electronic      SCC error    
    1   -0.19518183E+03    0.00000000E+00    0.13165700E-03
    2   -0.19518186E+03   -0.30898913E-04    0.75315803E-04
    3   -0.19518186E+03   -0.18541158E-07    0.24052811E-04
    4   -0.19518186E+03   -0.25436293E-08    0.22493079E-05
    5   -0.19518186E+03   -0.84583007E-10    0.64031960E-06
    6   -0.19518186E+03   -0.55422333E-11    0.23727547E-06
    7   -0.19518186E+03   -0.22737368E-12    0.40802310E-07
    8   -0.19518186E+03    0.00000000E+00    0.49559032E-08

Total Energy:                     -193.2749133771 H        -5259.2780 eV
Extrapolated to 0K:               -193.2749133771 H        -5259.2780 eV
Total Mermin free energy:         -193.2749133771 H        -5259.2780 eV
Force related energy:             -193.2749133771 H        -5259.2780 eV

Volume:                              0.112267E+05 au^3   0.166363E+04 A^3
Pressure:                           -0.115859E-06 au    -0.340870E+07 Pa
>> Charges saved for restart in charges.bin

total energy  -1.9327491E+02 H       energy change -3.4394603E-07 H
gradient norm  5.6964199E-04 H/a0    max. gradient  2.8193621E-04 H/a0
step length    2.2340362E-03 a0      max. step      4.1128373E-04 a0

--------------------------------------------------------------------------------

***  Geometry step: 173

 iSCC Total electronic   Diff electronic      SCC error    
    1   -0.19518186E+03    0.00000000E+00    0.67567942E-04
    2   -0.19518194E+03   -0.81516076E-04    0.31989179E-04
    3   -0.19518194E+03   -0.30692320E-08    0.93527990E-05
    4   -0.19518194E+03   -0.48180482E-09    0.68757785E-06
    5   -0.19518194E+03   -0.14352963E-10    0.12121984E-06
    6   -0.19518194E+03   -0.68212103E-12    0.44997897E-07
    7   -0.19518194E+03   -0.56843419E-13    0.11578848E-07
    8   -0.19518194E+03    0.56843419E-13    0.19294459E-08

Total Energy:                     -193.2749136358 H        -5259.2780 eV
Extrapolated to 0K:               -193.2749136358 H        -5259.2780 eV
Total Mermin free energy:         -193.2749136358 H        -5259.2780 eV
Force related energy:             -193.2749136358 H        -5259.2780 eV

Volume:                              0.112266E+05 au^3   0.166360E+04 A^3
Pressure:                           -0.609577E-07 au    -0.179344E+07 Pa
>> Charges saved for restart in charges.bin

total energy  -1.9327491E+02 H       energy change -2.5862050E-07 H
gradient norm  4.2711464E-04 H/a0    max. gradient  8.5662415E-05 H/a0
step length    1.2539468E-03 a0      max. step      3.2698588E-04 a0

Geometry converged

--------------------------------------------------------------------------------
DFTB+ running times                          cpu [s]             wall clock [s]
--------------------------------------------------------------------------------
Pre-SCC initialisation                 +       6.19 (  0.2%)       2.97 (  0.7%)
SCC                                    +    2820.51 ( 93.1%)     381.11 ( 91.3%)
Post-SCC processing                    +     202.25 (  6.7%)      33.45 (  8.0%)
--------------------------------------------------------------------------------
Missing                                +       0.20 (  0.0%)       0.01 (  0.0%)
Total                                  =    3029.14 (100.0%)     417.54 (100.0%)
--------------------------------------------------------------------------------
