|===============================================================================
|
|  DFTB+ release 24.1
|
|  Copyright (C) 2006 - 2024  DFTB+ developers group
|
|===============================================================================
|
|  When publishing results obtained with DFTB+, please cite the following
|  reference:
|
|  * DFTB+, a software package for efficient approximate density functional
|    theory based atomistic simulations, J. Chem. Phys. 152, 124101 (2020).
|    [doi: 10.1063/1.5143190]
|
|  You should also cite additional publications crediting the parametrization
|  data you use. Please consult the documentation of the SK-files for the
|  references.
|
|===============================================================================

Reading input file 'dftb_in.hsd'
Parser version: 14

--------------------------------------------------------------------------------
Reading SK-files:
./SKFiles/Si-Si.skf
./SKFiles/Si-Ge.skf
./SKFiles/Si-O.skf
./SKFiles/Ge-Ge.skf
./SKFiles/Ge-O.skf
./SKFiles/O-O.skf
Done.


Processed input in HSD format written to 'dftb_pin.hsd'

Starting initialization...
--------------------------------------------------------------------------------
WARNING!
-> Dipole printed for extended system : value printed is not well defined
MPI processes:               1
OpenMP threads:              8
BLACS orbital grid size:     1 x 1
BLACS atom grid size:        1 x 1
Chosen random seed:          154092112
Current stacksize:           unlimited
Mode:                        Static calculation
Self consistent charges:     Yes
SCC-tolerance:                 0.100000E-07
Max. scc iterations:                    500
Shell resolved Hubbard:      No
Spin polarisation:           No
Nr. of up electrons:           192.000000
Nr. of down electrons:         192.000000
Periodic boundaries:         Yes
Electronic solver:           Relatively robust
Mixer:                       Broyden mixer
Mixing parameter:                  0.200000
Maximal SCC-cycles:                     500
Nr. of chrg. vec. in memory:            500
Electronic temperature:              0.100000E-07 H      0.272114E-06 eV
Initial charges:             Set automatically (system chrg:   0.000E+00)
Included shells:            Si:  s, p, d
                            Ge:  s, p, d
                             O:  s, p
K-points and weights:           1:  0.500000  0.500000  0.500000     1.000000

K-points in absolute space:     1:  0.025319  0.017606  0.037774

Extra options:
                             Mulliken analysis
Force type                   original

--------------------------------------------------------------------------------

***  Geometry step: 0

 iSCC Total electronic   Diff electronic      SCC error    
    1    0.00000000E+00    0.00000000E+00    0.14260164E+01
    2   -0.19732398E+03   -0.19732398E+03    0.97876035E+00
    3   -0.19766687E+03   -0.34288983E+00    0.38676265E-01
    4   -0.19795556E+03   -0.28868525E+00    0.32524315E-01
    5   -0.19795718E+03   -0.16203611E-02    0.52838832E-02
    6   -0.19795729E+03   -0.11259059E-03    0.14540041E-02
    7   -0.19795729E+03   -0.35176191E-05    0.34829202E-03
    8   -0.19795730E+03   -0.62572471E-06    0.63839833E-04
    9   -0.19795730E+03   -0.45347264E-07    0.20026562E-04
   10   -0.19795730E+03   -0.31690206E-09    0.49393260E-05
   11   -0.19795730E+03   -0.10734880E-09    0.58374132E-06
   12   -0.19795730E+03   -0.59401373E-11    0.15244130E-06
   13   -0.19795730E+03   -0.85265128E-13    0.22130549E-07
   14   -0.19795730E+03    0.28421709E-13    0.57186802E-08

Total Energy:                     -190.4251778337 H        -5181.7327 eV
Extrapolated to 0K:               -190.4251778337 H        -5181.7327 eV
Total Mermin free energy:         -190.4251778337 H        -5181.7327 eV
Force related energy:             -190.4251778337 H        -5181.7327 eV

Volume:                              0.913789E+04 au^3   0.135410E+04 A^3
Pressure:                            0.249381E-02 au     0.733705E+11 Pa
>> Charges saved for restart in charges.bin

total energy  -1.9042518E+02 H       energy change -1.9042518E+02 H
gradient norm  2.1215756E+00 H/a0    max. gradient  1.1962193E+00 H/a0
step length    0.0000000E+00 a0      max. step      0.0000000E+00 a0

--------------------------------------------------------------------------------

***  Geometry step: 1

 iSCC Total electronic   Diff electronic      SCC error    
    1   -0.19795730E+03    0.00000000E+00    0.13037593E+00
    2   -0.19729248E+03    0.66481524E+00    0.68499998E-01
    3   -0.19730776E+03   -0.15279083E-01    0.21091513E-01
    4   -0.19731059E+03   -0.28280713E-02    0.22627570E-02
    5   -0.19731065E+03   -0.63167625E-04    0.74927897E-03
    6   -0.19731065E+03   -0.41279373E-05    0.32351819E-03
    7   -0.19731065E+03   -0.14248775E-06    0.25327417E-04
    8   -0.19731065E+03   -0.17332383E-07    0.66775125E-05
    9   -0.19731065E+03   -0.79646156E-09    0.25777095E-05
   10   -0.19731065E+03   -0.13443469E-10    0.51983970E-06
   11   -0.19731065E+03   -0.73896445E-12    0.11715156E-06
   12   -0.19731065E+03   -0.17053026E-12    0.24581706E-07
   13   -0.19731065E+03   -0.56843419E-13    0.23650530E-08

Total Energy:                     -191.1309051666 H        -5200.9366 eV
Extrapolated to 0K:               -191.1309051666 H        -5200.9366 eV
Total Mermin free energy:         -191.1309051666 H        -5200.9366 eV
Force related energy:             -191.1309051666 H        -5200.9366 eV

Volume:                              0.968127E+04 au^3   0.143462E+04 A^3
Pressure:                            0.179547E-02 au     0.528246E+11 Pa
>> Charges saved for restart in charges.bin

total energy  -1.9113091E+02 H       energy change -7.0572733E-01 H
gradient norm  1.4326610E+00 H/a0    max. gradient  2.5615765E-01 H/a0
step length    7.9172193E-01 a0      max. step      4.4640079E-01 a0

--------------------------------------------------------------------------------

***  Geometry step: 2

 iSCC Total electronic   Diff electronic      SCC error    
    1   -0.19731065E+03    0.00000000E+00    0.47720988E-01
    2   -0.19695461E+03    0.35604050E+00    0.26118454E-01
    3   -0.19695805E+03   -0.34331658E-02    0.59727978E-02
    4   -0.19695875E+03   -0.69795957E-03    0.11269454E-02
    5   -0.19695877E+03   -0.21147985E-04    0.24286844E-03
    6   -0.19695877E+03   -0.13646823E-05    0.10624467E-03
    7   -0.19695877E+03   -0.22165239E-07    0.16484205E-04
    8   -0.19695877E+03   -0.25659972E-08    0.27339267E-05
    9   -0.19695877E+03   -0.24004976E-09    0.81901695E-06
   10   -0.19695877E+03   -0.27284841E-11    0.15754524E-06
   11   -0.19695877E+03   -0.11368684E-12    0.28539702E-07
   12   -0.19695877E+03    0.56843419E-13    0.78896498E-08

Total Energy:                     -191.9123740550 H        -5222.2014 eV
Extrapolated to 0K:               -191.9123740550 H        -5222.2014 eV
Total Mermin free energy:         -191.9123740550 H        -5222.2014 eV
Force related energy:             -191.9123740550 H        -5222.2014 eV

Volume:                              0.983291E+04 au^3   0.145709E+04 A^3
Pressure:                            0.133006E-02 au     0.391316E+11 Pa
>> Charges saved for restart in charges.bin

total energy  -1.9191237E+02 H       energy change -7.8146889E-01 H
gradient norm  9.1311358E-01 H/a0    max. gradient  1.5436535E-01 H/a0
step length    7.5344481E-01 a0      max. step      1.3836106E-01 a0

--------------------------------------------------------------------------------

***  Geometry step: 3

 iSCC Total electronic   Diff electronic      SCC error    
    1   -0.19695877E+03    0.00000000E+00    0.71589185E-01
    2   -0.19657534E+03    0.38342895E+00    0.29361654E-01
    3   -0.19657881E+03   -0.34756169E-02    0.92301021E-02
    4   -0.19657946E+03   -0.64560015E-03    0.10618693E-02
    5   -0.19657950E+03   -0.36251252E-04    0.24965416E-03
    6   -0.19657950E+03   -0.15089623E-05    0.10533963E-03
    7   -0.19657950E+03   -0.22116524E-07    0.16969633E-04
    8   -0.19657950E+03   -0.26645068E-08    0.30240361E-05
    9   -0.19657950E+03   -0.30041747E-09    0.11272127E-05
   10   -0.19657950E+03   -0.49169557E-11    0.38266478E-06
   11   -0.19657950E+03   -0.11368684E-12    0.86305168E-07
   12   -0.19657950E+03    0.56843419E-13    0.17428059E-07
   13   -0.19657950E+03   -0.28421709E-13    0.27224836E-08

Total Energy:                     -192.4609554899 H        -5237.1291 eV
Extrapolated to 0K:               -192.4609554899 H        -5237.1291 eV
Total Mermin free energy:         -192.4609554899 H        -5237.1291 eV
Force related energy:             -192.4609554899 H        -5237.1291 eV

Volume:                              0.995543E+04 au^3   0.147524E+04 A^3
Pressure:                            0.956230E-03 au     0.281332E+11 Pa
>> Charges saved for restart in charges.bin

total energy  -1.9246096E+02 H       energy change -5.4858143E-01 H
gradient norm  5.9320434E-01 H/a0    max. gradient  1.1623606E-01 H/a0
step length    7.8790302E-01 a0      max. step      1.6598153E-01 a0

--------------------------------------------------------------------------------

***  Geometry step: 4

 iSCC Total electronic   Diff electronic      SCC error    
    1   -0.19657950E+03    0.00000000E+00    0.58012827E-01
    2   -0.19616479E+03    0.41471106E+00    0.34892697E-01
    3   -0.19616725E+03   -0.24655449E-02    0.65098490E-02
    4   -0.19616786E+03   -0.61174401E-03    0.11602556E-02
    5   -0.19616790E+03   -0.36138552E-04    0.30334245E-03
    6   -0.19616790E+03   -0.14054240E-05    0.86919391E-04
    7   -0.19616790E+03   -0.23145958E-07    0.15811353E-04
    8   -0.19616790E+03   -0.18248727E-08    0.45182094E-05
    9   -0.19616790E+03   -0.25025315E-09    0.14812989E-05
   10   -0.19616790E+03   -0.49169557E-11    0.35283507E-06
   11   -0.19616790E+03   -0.17053026E-12    0.93169072E-07
   12   -0.19616790E+03   -0.28421709E-13    0.23509892E-07
   13   -0.19616790E+03    0.85265128E-13    0.26912259E-08

Total Energy:                     -192.7948153252 H        -5246.2138 eV
Extrapolated to 0K:               -192.7948153252 H        -5246.2138 eV
Total Mermin free energy:         -192.7948153252 H        -5246.2138 eV
Force related energy:             -192.7948153252 H        -5246.2138 eV

Volume:                              0.100958E+05 au^3   0.149605E+04 A^3
Pressure:                            0.656659E-03 au     0.193196E+11 Pa
>> Charges saved for restart in charges.bin

total energy  -1.9279482E+02 H       energy change -3.3385984E-01 H
gradient norm  4.5609915E-01 H/a0    max. gradient  2.2885327E-01 H/a0
step length    7.6423580E-01 a0      max. step      1.3188150E-01 a0

--------------------------------------------------------------------------------

***  Geometry step: 5

 iSCC Total electronic   Diff electronic      SCC error    
    1   -0.19616790E+03    0.00000000E+00    0.66500049E-01
    2   -0.19571619E+03    0.45170986E+00    0.40543500E-01
    3   -0.19571827E+03   -0.20805219E-02    0.77801485E-02
    4   -0.19571880E+03   -0.52826677E-03    0.14436701E-02
    5   -0.19571883E+03   -0.31340165E-04    0.31391200E-03
    6   -0.19571883E+03   -0.87641394E-06    0.77745407E-04
    7   -0.19571883E+03   -0.16810276E-07    0.23147078E-04
    8   -0.19571883E+03   -0.14913155E-08    0.53574368E-05
    9   -0.19571883E+03   -0.13716317E-09    0.16002292E-05
   10   -0.19571883E+03   -0.62811978E-11    0.23062574E-06
   11   -0.19571883E+03   -0.34106051E-12    0.30027184E-07
   12   -0.19571883E+03    0.28421709E-13    0.91936023E-08

Total Energy:                     -192.9887625501 H        -5251.4914 eV
Extrapolated to 0K:               -192.9887625501 H        -5251.4914 eV
Total Mermin free energy:         -192.9887625501 H        -5251.4914 eV
Force related energy:             -192.9887625501 H        -5251.4914 eV

Volume:                              0.102945E+05 au^3   0.152549E+04 A^3
Pressure:                            0.393349E-03 au     0.115727E+11 Pa
>> Charges saved for restart in charges.bin

total energy  -1.9298876E+02 H       energy change -1.9394722E-01 H
gradient norm  3.1506874E-01 H/a0    max. gradient  1.4227444E-01 H/a0
step length    7.2206303E-01 a0      max. step      2.3934685E-01 a0

--------------------------------------------------------------------------------

***  Geometry step: 6

 iSCC Total electronic   Diff electronic      SCC error    
    1   -0.19571883E+03    0.00000000E+00    0.52267083E-01
    2   -0.19539128E+03    0.32755684E+00    0.28581813E-01
    3   -0.19539273E+03   -0.14545763E-02    0.33019110E-02
    4   -0.19539308E+03   -0.34818220E-03    0.60669377E-03
    5   -0.19539309E+03   -0.14662392E-04    0.21099213E-03
    6   -0.19539309E+03   -0.48897022E-06    0.95062238E-04
    7   -0.19539309E+03   -0.64802634E-08    0.20758399E-04
    8   -0.19539309E+03   -0.66430061E-09    0.51390596E-05
    9   -0.19539309E+03   -0.80888185E-10    0.15887335E-05
   10   -0.19539309E+03   -0.23590019E-11    0.12794258E-06
   11   -0.19539309E+03   -0.25579538E-12    0.27549321E-07
   12   -0.19539309E+03    0.56843419E-13    0.66233885E-08

Total Energy:                     -193.0774208508 H        -5253.9039 eV
Extrapolated to 0K:               -193.0774208508 H        -5253.9039 eV
Total Mermin free energy:         -193.0774208508 H        -5253.9039 eV
Force related energy:             -193.0774208508 H        -5253.9039 eV

Volume:                              0.104325E+05 au^3   0.154594E+04 A^3
Pressure:                            0.222355E-03 au     0.654192E+10 Pa
>> Charges saved for restart in charges.bin

total energy  -1.9307742E+02 H       energy change -8.8658301E-02 H
gradient norm  1.8066047E-01 H/a0    max. gradient  8.2103509E-02 H/a0
step length    5.7880985E-01 a0      max. step      1.0633068E-01 a0

--------------------------------------------------------------------------------

***  Geometry step: 7

 iSCC Total electronic   Diff electronic      SCC error    
    1   -0.19539309E+03    0.00000000E+00    0.38261781E-01
    2   -0.19521158E+03    0.18151607E+00    0.19196669E-01
    3   -0.19521247E+03   -0.89410306E-03    0.32923984E-02
    4   -0.19521264E+03   -0.16984666E-03    0.49335694E-03
    5   -0.19521265E+03   -0.48890731E-05    0.17701482E-03
    6   -0.19521265E+03   -0.37082523E-06    0.64526004E-04
    7   -0.19521265E+03   -0.76379365E-08    0.18967837E-04
    8   -0.19521265E+03   -0.26435032E-09    0.39001851E-05
    9   -0.19521265E+03   -0.38852477E-10    0.11167723E-05
   10   -0.19521265E+03   -0.26716407E-11    0.13685774E-06
   11   -0.19521265E+03   -0.85265128E-13    0.17578328E-07
   12   -0.19521265E+03    0.00000000E+00    0.47876911E-08

Total Energy:                     -193.1121262440 H        -5254.8483 eV
Extrapolated to 0K:               -193.1121262440 H        -5254.8483 eV
Total Mermin free energy:         -193.1121262440 H        -5254.8483 eV
Force related energy:             -193.1121262440 H        -5254.8483 eV

Volume:                              0.105066E+05 au^3   0.155692E+04 A^3
Pressure:                            0.140287E-03 au     0.412738E+10 Pa
>> Charges saved for restart in charges.bin

total energy  -1.9311213E+02 H       energy change -3.4705393E-02 H
gradient norm  1.4147122E-01 H/a0    max. gradient  4.6702352E-02 H/a0
step length    4.2893736E-01 a0      max. step      7.5306578E-02 a0

--------------------------------------------------------------------------------

***  Geometry step: 8

 iSCC Total electronic   Diff electronic      SCC error    
    1   -0.19521265E+03    0.00000000E+00    0.19040543E-01
    2   -0.19509429E+03    0.11835682E+00    0.88229440E-02
    3   -0.19509470E+03   -0.41014183E-03    0.24458383E-02
    4   -0.19509476E+03   -0.63909893E-04    0.46543392E-03
    5   -0.19509477E+03   -0.23238601E-05    0.10589216E-03
    6   -0.19509477E+03   -0.10214694E-06    0.25589774E-04
    7   -0.19509477E+03   -0.48545132E-08    0.95776584E-05
    8   -0.19509477E+03   -0.15668888E-09    0.31455763E-05
    9   -0.19509477E+03   -0.11738166E-10    0.71748095E-06
   10   -0.19509477E+03   -0.96633812E-12    0.12252863E-06
   11   -0.19509477E+03   -0.85265128E-13    0.17850149E-07
   12   -0.19509477E+03   -0.56843419E-13    0.37875929E-08

Total Energy:                     -193.1329860210 H        -5255.4159 eV
Extrapolated to 0K:               -193.1329860210 H        -5255.4159 eV
Total Mermin free energy:         -193.1329860210 H        -5255.4159 eV
Force related energy:             -193.1329860210 H        -5255.4159 eV

Volume:                              0.105738E+05 au^3   0.156688E+04 A^3
Pressure:                            0.787943E-04 au     0.231821E+10 Pa
>> Charges saved for restart in charges.bin

total energy  -1.9313299E+02 H       energy change -2.0859777E-02 H
gradient norm  1.1710585E-01 H/a0    max. gradient  2.7830250E-02 H/a0
step length    3.6388098E-01 a0      max. step      8.1979984E-02 a0

--------------------------------------------------------------------------------

***  Geometry step: 9

 iSCC Total electronic   Diff electronic      SCC error    
    1   -0.19509477E+03    0.00000000E+00    0.18115722E-01
    2   -0.19508081E+03    0.13961328E-01    0.10483314E-01
    3   -0.19508113E+03   -0.32630457E-03    0.31402087E-02
    4   -0.19508118E+03   -0.52095613E-04    0.45038642E-03
    5   -0.19508119E+03   -0.18118545E-05    0.11891751E-03
    6   -0.19508119E+03   -0.21016737E-06    0.45348733E-04
    7   -0.19508119E+03   -0.37635459E-08    0.10737410E-04
    8   -0.19508119E+03   -0.12616397E-09    0.19493158E-05
    9   -0.19508119E+03   -0.12278178E-10    0.30702634E-06
   10   -0.19508119E+03   -0.13073986E-11    0.73361971E-07
   11   -0.19508119E+03   -0.56843419E-13    0.12453015E-07
   12   -0.19508119E+03   -0.85265128E-13    0.25550584E-08

Total Energy:                     -193.1516578823 H        -5255.9240 eV
Extrapolated to 0K:               -193.1516578823 H        -5255.9240 eV
Total Mermin free energy:         -193.1516578823 H        -5255.9240 eV
Force related energy:             -193.1516578823 H        -5255.9240 eV

Volume:                              0.105970E+05 au^3   0.157032E+04 A^3
Pressure:                            0.601985E-04 au     0.177110E+10 Pa
>> Charges saved for restart in charges.bin

total energy  -1.9315166E+02 H       energy change -1.8671861E-02 H
gradient norm  1.0052756E-01 H/a0    max. gradient  2.0456965E-02 H/a0
step length    3.3082110E-01 a0      max. step      5.8567781E-02 a0

--------------------------------------------------------------------------------

***  Geometry step: 10

 iSCC Total electronic   Diff electronic      SCC error    
    1   -0.19508119E+03    0.00000000E+00    0.29323219E-01
    2   -0.19512625E+03   -0.45066967E-01    0.17336892E-01
    3   -0.19512686E+03   -0.60274913E-03    0.29845501E-02
    4   -0.19512699E+03   -0.13056377E-03    0.51177082E-03
    5   -0.19512699E+03   -0.69746595E-05    0.21907069E-03
    6   -0.19512699E+03   -0.18464567E-06    0.68439286E-04
    7   -0.19512699E+03   -0.45622812E-08    0.12483594E-04
    8   -0.19512699E+03   -0.29774583E-09    0.34617098E-05
    9   -0.19512699E+03   -0.23902658E-10    0.70360486E-06
   10   -0.19512699E+03   -0.13642421E-11    0.12004411E-06
   11   -0.19512699E+03   -0.14210855E-12    0.13811630E-07
   12   -0.19512699E+03    0.56843419E-13    0.35957211E-08

Total Energy:                     -193.1742989224 H        -5256.5401 eV
Extrapolated to 0K:               -193.1742989224 H        -5256.5401 eV
Total Mermin free energy:         -193.1742989224 H        -5256.5401 eV
Force related energy:             -193.1742989224 H        -5256.5401 eV

Volume:                              0.106147E+05 au^3   0.157294E+04 A^3
Pressure:                            0.658000E-04 au     0.193590E+10 Pa
>> Charges saved for restart in charges.bin

total energy  -1.9317430E+02 H       energy change -2.2641040E-02 H
gradient norm  9.1732728E-02 H/a0    max. gradient  2.8092795E-02 H/a0
step length    4.5289288E-01 a0      max. step      6.9345785E-02 a0

--------------------------------------------------------------------------------

***  Geometry step: 11

 iSCC Total electronic   Diff electronic      SCC error    
    1   -0.19512699E+03    0.00000000E+00    0.27032261E-01
    2   -0.19517673E+03   -0.49731815E-01    0.15544310E-01
    3   -0.19517722E+03   -0.49228639E-03    0.26320245E-02
    4   -0.19517733E+03   -0.11653831E-03    0.49047315E-03
    5   -0.19517734E+03   -0.55444966E-05    0.20400410E-03
    6   -0.19517734E+03   -0.20898068E-06    0.67341890E-04
    7   -0.19517734E+03   -0.65180075E-08    0.15218986E-04
    8   -0.19517734E+03   -0.23999291E-09    0.31692840E-05
    9   -0.19517734E+03   -0.25409008E-10    0.53120668E-06
   10   -0.19517734E+03   -0.27284841E-11    0.98950916E-07
   11   -0.19517734E+03   -0.28421709E-13    0.13360692E-07
   12   -0.19517734E+03   -0.56843419E-13    0.24889615E-08

Total Energy:                     -193.1888759358 H        -5256.9368 eV
Extrapolated to 0K:               -193.1888759358 H        -5256.9368 eV
Total Mermin free energy:         -193.1888759358 H        -5256.9368 eV
Force related energy:             -193.1888759358 H        -5256.9368 eV

Volume:                              0.106283E+05 au^3   0.157495E+04 A^3
Pressure:                            0.743984E-04 au     0.218888E+10 Pa
>> Charges saved for restart in charges.bin

total energy  -1.9318888E+02 H       energy change -1.4577013E-02 H
gradient norm  8.2447644E-02 H/a0    max. gradient  1.8539507E-02 H/a0
step length    3.8589592E-01 a0      max. step      5.4417536E-02 a0

--------------------------------------------------------------------------------

***  Geometry step: 12

 iSCC Total electronic   Diff electronic      SCC error    
    1   -0.19517734E+03    0.00000000E+00    0.23669197E-01
    2   -0.19520456E+03   -0.27223676E-01    0.13996094E-01
    3   -0.19520476E+03   -0.20053885E-03    0.15655632E-02
    4   -0.19520482E+03   -0.55500586E-04    0.29005447E-03
    5   -0.19520482E+03   -0.26355885E-05    0.12325951E-03
    6   -0.19520482E+03   -0.41012555E-07    0.42438772E-04
    7   -0.19520482E+03   -0.15692194E-08    0.92239466E-05
    8   -0.19520482E+03   -0.68922645E-10    0.14700692E-05
    9   -0.19520482E+03   -0.86686214E-11    0.23282870E-06
   10   -0.19520482E+03   -0.56843419E-12    0.47084511E-07
   11   -0.19520482E+03   -0.85265128E-13    0.46142565E-08

Total Energy:                     -193.1999007038 H        -5257.2368 eV
Extrapolated to 0K:               -193.1999007038 H        -5257.2368 eV
Total Mermin free energy:         -193.1999007038 H        -5257.2368 eV
Force related energy:             -193.1999007038 H        -5257.2368 eV

Volume:                              0.106531E+05 au^3   0.157863E+04 A^3
Pressure:                            0.752753E-04 au     0.221468E+10 Pa
>> Charges saved for restart in charges.bin

total energy  -1.9319990E+02 H       energy change -1.1024768E-02 H
gradient norm  7.1561610E-02 H/a0    max. gradient  1.5182144E-02 H/a0
step length    3.3555878E-01 a0      max. step      5.2900086E-02 a0

--------------------------------------------------------------------------------

***  Geometry step: 13

 iSCC Total electronic   Diff electronic      SCC error    
    1   -0.19520482E+03    0.00000000E+00    0.23150088E-01
    2   -0.19521400E+03   -0.91809728E-02    0.13462977E-01
    3   -0.19521416E+03   -0.15393747E-03    0.18008969E-02
    4   -0.19521420E+03   -0.45978985E-04    0.28527699E-03
    5   -0.19521421E+03   -0.19502824E-05    0.62842374E-04
    6   -0.19521421E+03   -0.39780645E-07    0.29449774E-04
    7   -0.19521421E+03   -0.49175242E-09    0.84041318E-05
    8   -0.19521421E+03   -0.32855496E-10    0.80330381E-06
    9   -0.19521421E+03   -0.59401373E-11    0.11254884E-06
   10   -0.19521421E+03   -0.14210855E-12    0.27964184E-07
   11   -0.19521421E+03    0.56843419E-13    0.45725912E-08

Total Energy:                     -193.2093408070 H        -5257.4937 eV
Extrapolated to 0K:               -193.2093408070 H        -5257.4937 eV
Total Mermin free energy:         -193.2093408070 H        -5257.4937 eV
Force related energy:             -193.2093408070 H        -5257.4937 eV

Volume:                              0.106926E+05 au^3   0.158449E+04 A^3
Pressure:                            0.695080E-04 au     0.204500E+10 Pa
>> Charges saved for restart in charges.bin

total energy  -1.9320934E+02 H       energy change -9.4401032E-03 H
gradient norm  6.2801561E-02 H/a0    max. gradient  1.3762122E-02 H/a0
step length    3.2569909E-01 a0      max. step      5.8655518E-02 a0

--------------------------------------------------------------------------------

***  Geometry step: 14

 iSCC Total electronic   Diff electronic      SCC error    
    1   -0.19521421E+03    0.00000000E+00    0.16048209E-01
    2   -0.19520078E+03    0.13421909E-01    0.91348428E-02
    3   -0.19520087E+03   -0.86951781E-04    0.12411557E-02
    4   -0.19520089E+03   -0.24748396E-04    0.27591730E-03
    5   -0.19520090E+03   -0.10596243E-05    0.29900041E-04
    6   -0.19520090E+03   -0.39034262E-07    0.13258767E-04
    7   -0.19520090E+03   -0.66916073E-09    0.46350163E-05
    8   -0.19520090E+03   -0.16456170E-10    0.10278709E-05
    9   -0.19520090E+03   -0.15063506E-11    0.21459784E-06
   10   -0.19520090E+03   -0.85265128E-13    0.33583502E-07
   11   -0.19520090E+03   -0.56843419E-13    0.29549438E-08

Total Energy:                     -193.2157282300 H        -5257.6675 eV
Extrapolated to 0K:               -193.2157282300 H        -5257.6675 eV
Total Mermin free energy:         -193.2157282300 H        -5257.6675 eV
Force related energy:             -193.2157282300 H        -5257.6675 eV

Volume:                              0.107401E+05 au^3   0.159152E+04 A^3
Pressure:                            0.593467E-04 au     0.174604E+10 Pa
>> Charges saved for restart in charges.bin

total energy  -1.9321573E+02 H       energy change -6.3874230E-03 H
gradient norm  5.2528167E-02 H/a0    max. gradient  1.0071099E-02 H/a0
step length    2.6671717E-01 a0      max. step      4.7419976E-02 a0

--------------------------------------------------------------------------------

***  Geometry step: 15

 iSCC Total electronic   Diff electronic      SCC error    
    1   -0.19520090E+03    0.00000000E+00    0.82136969E-02
    2   -0.19517093E+03    0.29968880E-01    0.47735090E-02
    3   -0.19517096E+03   -0.35567107E-04    0.72109508E-03
    4   -0.19517097E+03   -0.88125380E-05    0.15897223E-03
    5   -0.19517097E+03   -0.41772680E-06    0.18625662E-04
    6   -0.19517097E+03   -0.18576088E-07    0.71115124E-05
    7   -0.19517097E+03   -0.33733727E-09    0.17990418E-05
    8   -0.19517097E+03   -0.71054274E-11    0.44913586E-06
    9   -0.19517097E+03   -0.73896445E-12    0.12732977E-06
   10   -0.19517097E+03   -0.56843419E-13    0.23091983E-07
   11   -0.19517097E+03    0.56843419E-13    0.27925724E-08

Total Energy:                     -193.2200369375 H        -5257.7847 eV
Extrapolated to 0K:               -193.2200369375 H        -5257.7847 eV
Total Mermin free energy:         -193.2200369375 H        -5257.7847 eV
Force related energy:             -193.2200369375 H        -5257.7847 eV

Volume:                              0.107892E+05 au^3   0.159879E+04 A^3
Pressure:                            0.432007E-04 au     0.127101E+10 Pa
>> Charges saved for restart in charges.bin

total energy  -1.9322004E+02 H       energy change -4.3087075E-03 H
gradient norm  4.8320774E-02 H/a0    max. gradient  9.1291362E-03 H/a0
step length    2.1620318E-01 a0      max. step      4.1472357E-02 a0

--------------------------------------------------------------------------------

***  Geometry step: 16

 iSCC Total electronic   Diff electronic      SCC error    
    1   -0.19517097E+03    0.00000000E+00    0.92178586E-02
    2   -0.19514029E+03    0.30684633E-01    0.52059641E-02
    3   -0.19514033E+03   -0.37984470E-04    0.96460878E-03
    4   -0.19514033E+03   -0.74147979E-05    0.16996415E-03
    5   -0.19514033E+03   -0.33229688E-06    0.44853100E-04
    6   -0.19514033E+03   -0.24333303E-07    0.16629113E-04
    7   -0.19514033E+03   -0.44514081E-09    0.42899365E-05
    8   -0.19514033E+03   -0.12789769E-10    0.89392066E-06
    9   -0.19514033E+03   -0.15063506E-11    0.19109454E-06
   10   -0.19514033E+03   -0.85265128E-13    0.28557180E-07
   11   -0.19514033E+03   -0.85265128E-13    0.33260426E-08

Total Energy:                     -193.2245039557 H        -5257.9063 eV
Extrapolated to 0K:               -193.2245039557 H        -5257.9063 eV
Total Mermin free energy:         -193.2245039557 H        -5257.9063 eV
Force related energy:             -193.2245039557 H        -5257.9063 eV

Volume:                              0.108420E+05 au^3   0.160662E+04 A^3
Pressure:                            0.261265E-04 au     0.768666E+09 Pa
>> Charges saved for restart in charges.bin

total energy  -1.9322450E+02 H       energy change -4.4670183E-03 H
gradient norm  4.9313151E-02 H/a0    max. gradient  9.2614233E-03 H/a0
step length    2.3662476E-01 a0      max. step      4.3515280E-02 a0

--------------------------------------------------------------------------------

***  Geometry step: 17

 iSCC Total electronic   Diff electronic      SCC error    
    1   -0.19514033E+03    0.00000000E+00    0.10233772E-01
    2   -0.19512780E+03    0.12532395E-01    0.59875005E-02
    3   -0.19512785E+03   -0.46642023E-04    0.14812542E-02
    4   -0.19512786E+03   -0.78636560E-05    0.16468575E-03
    5   -0.19512786E+03   -0.40496371E-06    0.68339801E-04
    6   -0.19512786E+03   -0.27069603E-07    0.21563642E-04
    7   -0.19512786E+03   -0.76360607E-09    0.48221135E-05
    8   -0.19512786E+03   -0.26119551E-10    0.11362587E-05
    9   -0.19512786E+03   -0.22168933E-11    0.17474752E-06
   10   -0.19512786E+03   -0.11368684E-12    0.27995259E-07
   11   -0.19512786E+03   -0.17053026E-12    0.33343874E-08

Total Energy:                     -193.2292314724 H        -5258.0349 eV
Extrapolated to 0K:               -193.2292314724 H        -5258.0349 eV
Total Mermin free energy:         -193.2292314724 H        -5258.0349 eV
Force related energy:             -193.2292314724 H        -5258.0349 eV

Volume:                              0.108883E+05 au^3   0.161348E+04 A^3
Pressure:                            0.164482E-04 au     0.483921E+09 Pa
>> Charges saved for restart in charges.bin

total energy  -1.9322923E+02 H       energy change -4.7275167E-03 H
gradient norm  5.6073500E-02 H/a0    max. gradient  1.3116983E-02 H/a0
step length    2.5938554E-01 a0      max. step      4.5150356E-02 a0

--------------------------------------------------------------------------------

***  Geometry step: 18

 iSCC Total electronic   Diff electronic      SCC error    
    1   -0.19512786E+03    0.00000000E+00    0.15740479E-01
    2   -0.19513382E+03   -0.59643421E-02    0.92733379E-02
    3   -0.19513391E+03   -0.90742567E-04    0.26238070E-02
    4   -0.19513392E+03   -0.13269571E-04    0.25582911E-03
    5   -0.19513392E+03   -0.80328249E-06    0.98115370E-04
    6   -0.19513392E+03   -0.43876241E-07    0.31574961E-04
    7   -0.19513392E+03   -0.14186980E-08    0.67252092E-05
    8   -0.19513392E+03   -0.52978066E-10    0.17570691E-05
    9   -0.19513392E+03   -0.37516656E-11    0.29202111E-06
   10   -0.19513392E+03   -0.59685590E-12    0.39660284E-07
   11   -0.19513392E+03    0.56843419E-13    0.56916738E-08

Total Energy:                     -193.2349483737 H        -5258.1905 eV
Extrapolated to 0K:               -193.2349483737 H        -5258.1905 eV
Total Mermin free energy:         -193.2349483737 H        -5258.1905 eV
Force related energy:             -193.2349483737 H        -5258.1905 eV

Volume:                              0.109323E+05 au^3   0.162001E+04 A^3
Pressure:                            0.144962E-04 au     0.426493E+09 Pa
>> Charges saved for restart in charges.bin

total energy  -1.9323495E+02 H       energy change -5.7169013E-03 H
gradient norm  5.7136519E-02 H/a0    max. gradient  1.3257358E-02 H/a0
step length    3.2023729E-01 a0      max. step      5.3620754E-02 a0

--------------------------------------------------------------------------------

***  Geometry step: 19

 iSCC Total electronic   Diff electronic      SCC error    
    1   -0.19513392E+03    0.00000000E+00    0.14588134E-01
    2   -0.19515399E+03   -0.20065407E-01    0.85831786E-02
    3   -0.19515414E+03   -0.15304981E-03    0.27310641E-02
    4   -0.19515416E+03   -0.19879529E-04    0.37261261E-03
    5   -0.19515416E+03   -0.10685946E-05    0.91205785E-04
    6   -0.19515416E+03   -0.59161891E-07    0.32435971E-04
    7   -0.19515416E+03   -0.18177388E-08    0.80879884E-05
    8   -0.19515416E+03   -0.60168759E-10    0.22702176E-05
    9   -0.19515416E+03   -0.44906301E-11    0.37987740E-06
   10   -0.19515416E+03   -0.59685590E-12    0.54939887E-07
   11   -0.19515416E+03   -0.11368684E-12    0.61673679E-08

Total Energy:                     -193.2404554810 H        -5258.3403 eV
Extrapolated to 0K:               -193.2404554810 H        -5258.3403 eV
Total Mermin free energy:         -193.2404554810 H        -5258.3403 eV
Force related energy:             -193.2404554810 H        -5258.3403 eV

Volume:                              0.109709E+05 au^3   0.162571E+04 A^3
Pressure:                            0.179851E-04 au     0.529139E+09 Pa
>> Charges saved for restart in charges.bin

total energy  -1.9324046E+02 H       energy change -5.5071074E-03 H
gradient norm  4.9700152E-02 H/a0    max. gradient  9.9135154E-03 H/a0
step length    3.5379443E-01 a0      max. step      6.4722479E-02 a0

--------------------------------------------------------------------------------

***  Geometry step: 20

 iSCC Total electronic   Diff electronic      SCC error    
    1   -0.19515416E+03    0.00000000E+00    0.10488180E-01
    2   -0.19517495E+03   -0.20781483E-01    0.55744207E-02
    3   -0.19517509E+03   -0.14377483E-03    0.17977309E-02
    4   -0.19517511E+03   -0.16829780E-04    0.23698465E-03
    5   -0.19517511E+03   -0.77416908E-06    0.59149115E-04
    6   -0.19517511E+03   -0.47567596E-07    0.22646146E-04
    7   -0.19517511E+03   -0.12308305E-08    0.62337167E-05
    8   -0.19517511E+03   -0.32827074E-10    0.17175480E-05
    9   -0.19517511E+03   -0.28137492E-11    0.34253385E-06
   10   -0.19517511E+03   -0.34106051E-12    0.42700453E-07
   11   -0.19517511E+03   -0.28421709E-13    0.55822995E-08

Total Energy:                     -193.2447335970 H        -5258.4567 eV
Extrapolated to 0K:               -193.2447335970 H        -5258.4567 eV
Total Mermin free energy:         -193.2447335970 H        -5258.4567 eV
Force related energy:             -193.2447335970 H        -5258.4567 eV

Volume:                              0.110051E+05 au^3   0.163079E+04 A^3
Pressure:                            0.223345E-04 au     0.657103E+09 Pa
>> Charges saved for restart in charges.bin

total energy  -1.9324473E+02 H       energy change -4.2781160E-03 H
gradient norm  4.0842102E-02 H/a0    max. gradient  1.0326939E-02 H/a0
step length    3.3079971E-01 a0      max. step      6.1637219E-02 a0

--------------------------------------------------------------------------------

***  Geometry step: 21

 iSCC Total electronic   Diff electronic      SCC error    
    1   -0.19517511E+03    0.00000000E+00    0.10138533E-01
    2   -0.19518763E+03   -0.12519857E-01    0.57154029E-02
    3   -0.19518773E+03   -0.10649341E-03    0.16641790E-02
    4   -0.19518775E+03   -0.13337321E-04    0.17883579E-03
    5   -0.19518775E+03   -0.59194045E-06    0.29900119E-04
    6   -0.19518775E+03   -0.33279662E-07    0.10903409E-04
    7   -0.19518775E+03   -0.84673957E-09    0.34661594E-05
    8   -0.19518775E+03   -0.18786750E-10    0.97793065E-06
    9   -0.19518775E+03   -0.13358203E-11    0.18975035E-06
   10   -0.19518775E+03   -0.17053026E-12    0.38118730E-07
   11   -0.19518775E+03   -0.11368684E-12    0.55844995E-08

Total Energy:                     -193.2479153905 H        -5258.5433 eV
Extrapolated to 0K:               -193.2479153905 H        -5258.5433 eV
Total Mermin free energy:         -193.2479153905 H        -5258.5433 eV
Force related energy:             -193.2479153905 H        -5258.5433 eV

Volume:                              0.110400E+05 au^3   0.163596E+04 A^3
Pressure:                            0.234985E-04 au     0.691350E+09 Pa
>> Charges saved for restart in charges.bin

total energy  -1.9324792E+02 H       energy change -3.1817935E-03 H
gradient norm  3.4954616E-02 H/a0    max. gradient  7.5407018E-03 H/a0
step length    2.9203238E-01 a0      max. step      5.6648562E-02 a0

--------------------------------------------------------------------------------

***  Geometry step: 22

 iSCC Total electronic   Diff electronic      SCC error    
    1   -0.19518775E+03    0.00000000E+00    0.90381299E-02
    2   -0.19518851E+03   -0.76201695E-03    0.49782698E-02
    3   -0.19518856E+03   -0.49048290E-04    0.10793692E-02
    4   -0.19518857E+03   -0.84391840E-05    0.17619737E-03
    5   -0.19518857E+03   -0.40502607E-06    0.26974121E-04
    6   -0.19518857E+03   -0.21182359E-07    0.52924613E-05
    7   -0.19518857E+03   -0.61484684E-09    0.20157429E-05
    8   -0.19518857E+03   -0.15120349E-10    0.76490632E-06
    9   -0.19518857E+03   -0.76738615E-12    0.17407736E-06
   10   -0.19518857E+03   -0.14210855E-12    0.32359889E-07
   11   -0.19518857E+03    0.00000000E+00    0.55510561E-08

Total Energy:                     -193.2499515686 H        -5258.5987 eV
Extrapolated to 0K:               -193.2499515686 H        -5258.5987 eV
Total Mermin free energy:         -193.2499515686 H        -5258.5987 eV
Force related energy:             -193.2499515686 H        -5258.5987 eV

Volume:                              0.110739E+05 au^3   0.164098E+04 A^3
Pressure:                            0.217551E-04 au     0.640056E+09 Pa
>> Charges saved for restart in charges.bin

total energy  -1.9324995E+02 H       energy change -2.0361781E-03 H
gradient norm  3.2412989E-02 H/a0    max. gradient  8.7069866E-03 H/a0
step length    2.2059254E-01 a0      max. step      4.2891545E-02 a0

--------------------------------------------------------------------------------

***  Geometry step: 23

 iSCC Total electronic   Diff electronic      SCC error    
    1   -0.19518857E+03    0.00000000E+00    0.67824474E-02
    2   -0.19517899E+03    0.95793897E-02    0.37944446E-02
    3   -0.19517901E+03   -0.18363844E-04    0.65313086E-03
    4   -0.19517901E+03   -0.40558672E-05    0.10327151E-03
    5   -0.19517901E+03   -0.17761991E-06    0.18350747E-04
    6   -0.19517901E+03   -0.65186896E-08    0.51937987E-05
    7   -0.19517901E+03   -0.22939162E-09    0.17229438E-05
    8   -0.19517901E+03   -0.54569682E-11    0.56065607E-06
    9   -0.19517901E+03   -0.19895197E-12    0.98441294E-07
   10   -0.19517901E+03   -0.19895197E-12    0.13091863E-07
   11   -0.19517901E+03    0.25579538E-12    0.26023037E-08

Total Energy:                     -193.2511667170 H        -5258.6318 eV
Extrapolated to 0K:               -193.2511667170 H        -5258.6318 eV
Total Mermin free energy:         -193.2511667170 H        -5258.6318 eV
Force related energy:             -193.2511667170 H        -5258.6318 eV

Volume:                              0.111009E+05 au^3   0.164498E+04 A^3
Pressure:                            0.167588E-04 au     0.493060E+09 Pa
>> Charges saved for restart in charges.bin

total energy  -1.9325117E+02 H       energy change -1.2151484E-03 H
gradient norm  2.6000898E-02 H/a0    max. gradient  6.7960531E-03 H/a0
step length    1.2334080E-01 a0      max. step      2.2423797E-02 a0

--------------------------------------------------------------------------------

***  Geometry step: 24

 iSCC Total electronic   Diff electronic      SCC error    
    1   -0.19517901E+03    0.00000000E+00    0.48075098E-02
    2   -0.19516808E+03    0.10934125E-01    0.27775814E-02
    3   -0.19516810E+03   -0.27528395E-04    0.78298203E-03
    4   -0.19516811E+03   -0.46069880E-05    0.95123597E-04
    5   -0.19516811E+03   -0.16049523E-06    0.19078493E-04
    6   -0.19516811E+03   -0.83283282E-08    0.74404378E-05
    7   -0.19516811E+03   -0.13375256E-09    0.24728611E-05
    8   -0.19516811E+03   -0.49169557E-11    0.55135351E-06
    9   -0.19516811E+03   -0.62527761E-12    0.68419135E-07
   10   -0.19516811E+03    0.00000000E+00    0.12643353E-07
   11   -0.19516811E+03   -0.28421709E-13    0.44884074E-08

Total Energy:                     -193.2521233818 H        -5258.6578 eV
Extrapolated to 0K:               -193.2521233818 H        -5258.6578 eV
Total Mermin free energy:         -193.2521233818 H        -5258.6578 eV
Force related energy:             -193.2521233818 H        -5258.6578 eV

Volume:                              0.111232E+05 au^3   0.164829E+04 A^3
Pressure:                            0.112047E-04 au     0.329654E+09 Pa
>> Charges saved for restart in charges.bin

total energy  -1.9325212E+02 H       energy change -9.5666476E-04 H
gradient norm  2.1461468E-02 H/a0    max. gradient  5.6973498E-03 H/a0
step length    9.1268448E-02 a0      max. step      2.3293705E-02 a0

--------------------------------------------------------------------------------

***  Geometry step: 25

 iSCC Total electronic   Diff electronic      SCC error    
    1   -0.19516811E+03    0.00000000E+00    0.37877401E-02
    2   -0.19516426E+03    0.38509992E-02    0.14132767E-02
    3   -0.19516428E+03   -0.19332066E-04    0.50529936E-03
    4   -0.19516428E+03   -0.25461559E-05    0.80465067E-04
    5   -0.19516428E+03   -0.67160016E-07    0.16341822E-04
    6   -0.19516428E+03   -0.42287525E-08    0.53808591E-05
    7   -0.19516428E+03   -0.67387873E-10    0.14069756E-05
    8   -0.19516428E+03   -0.27284841E-11    0.22837014E-06
    9   -0.19516428E+03   -0.42632564E-12    0.50012500E-07
   10   -0.19516428E+03   -0.85265128E-13    0.85140339E-08

Total Energy:                     -193.2528445475 H        -5258.6775 eV
Extrapolated to 0K:               -193.2528445475 H        -5258.6775 eV
Total Mermin free energy:         -193.2528445475 H        -5258.6775 eV
Force related energy:             -193.2528445475 H        -5258.6775 eV

Volume:                              0.111389E+05 au^3   0.165062E+04 A^3
Pressure:                            0.835916E-05 au     0.245935E+09 Pa
>> Charges saved for restart in charges.bin

total energy  -1.9325284E+02 H       energy change -7.2116568E-04 H
gradient norm  2.3253002E-02 H/a0    max. gradient  5.1544072E-03 H/a0
step length    7.6534881E-02 a0      max. step      2.2033707E-02 a0

--------------------------------------------------------------------------------

***  Geometry step: 26

 iSCC Total electronic   Diff electronic      SCC error    
    1   -0.19516428E+03    0.00000000E+00    0.59536080E-02
    2   -0.19516448E+03   -0.19683385E-03    0.20751347E-02
    3   -0.19516451E+03   -0.33006959E-04    0.84651212E-03
    4   -0.19516451E+03   -0.42009220E-05    0.13136115E-03
    5   -0.19516451E+03   -0.12919014E-06    0.32919147E-04
    6   -0.19516451E+03   -0.75839068E-08    0.11360280E-04
    7   -0.19516451E+03   -0.11701218E-09    0.16868392E-05
    8   -0.19516451E+03   -0.10032863E-10    0.33704677E-06
    9   -0.19516451E+03   -0.93791641E-12    0.79078663E-07
   10   -0.19516451E+03   -0.17053026E-12    0.18122654E-07
   11   -0.19516451E+03   -0.56843419E-13    0.33978895E-08

Total Energy:                     -193.2539272740 H        -5258.7069 eV
Extrapolated to 0K:               -193.2539272740 H        -5258.7069 eV
Total Mermin free energy:         -193.2539272740 H        -5258.7069 eV
Force related energy:             -193.2539272740 H        -5258.7069 eV

Volume:                              0.111643E+05 au^3   0.165438E+04 A^3
Pressure:                            0.649203E-05 au     0.191002E+09 Pa
>> Charges saved for restart in charges.bin

total energy  -1.9325393E+02 H       energy change -1.0827266E-03 H
gradient norm  2.4836316E-02 H/a0    max. gradient  6.1411103E-03 H/a0
step length    1.3333214E-01 a0      max. step      3.8191500E-02 a0

--------------------------------------------------------------------------------

***  Geometry step: 27

 iSCC Total electronic   Diff electronic      SCC error    
    1   -0.19516451E+03    0.00000000E+00    0.61749370E-02
    2   -0.19516952E+03   -0.50034622E-02    0.26024209E-02
    3   -0.19516955E+03   -0.27860166E-04    0.74056865E-03
    4   -0.19516955E+03   -0.41232159E-05    0.11490495E-03
    5   -0.19516955E+03   -0.19826217E-06    0.37055314E-04
    6   -0.19516955E+03   -0.64704011E-08    0.11562709E-04
    7   -0.19516955E+03   -0.96378017E-10    0.15150994E-05
    8   -0.19516955E+03   -0.76454398E-11    0.28963329E-06
    9   -0.19516955E+03   -0.12789769E-11    0.79051239E-07
   10   -0.19516955E+03   -0.14210855E-12    0.14352369E-07
   11   -0.19516955E+03    0.28421709E-13    0.30122584E-08

Total Energy:                     -193.2549167678 H        -5258.7338 eV
Extrapolated to 0K:               -193.2549167678 H        -5258.7338 eV
Total Mermin free energy:         -193.2549167678 H        -5258.7338 eV
Force related energy:             -193.2549167678 H        -5258.7338 eV

Volume:                              0.111928E+05 au^3   0.165860E+04 A^3
Pressure:                            0.644413E-05 au     0.189593E+09 Pa
>> Charges saved for restart in charges.bin

total energy  -1.9325492E+02 H       energy change -9.8949381E-04 H
gradient norm  2.2612933E-02 H/a0    max. gradient  6.2560851E-03 H/a0
step length    1.5692762E-01 a0      max. step      4.2550533E-02 a0

--------------------------------------------------------------------------------

***  Geometry step: 28

 iSCC Total electronic   Diff electronic      SCC error    
    1   -0.19516955E+03    0.00000000E+00    0.46396451E-02
    2   -0.19517614E+03   -0.65873132E-02    0.26570222E-02
    3   -0.19517615E+03   -0.15575622E-04    0.48597714E-03
    4   -0.19517616E+03   -0.33078786E-05    0.66343282E-04
    5   -0.19517616E+03   -0.16881344E-06    0.24915600E-04
    6   -0.19517616E+03   -0.43163766E-08    0.89085310E-05
    7   -0.19517616E+03   -0.82565066E-10    0.19184827E-05
    8   -0.19517616E+03   -0.38369308E-11    0.36122386E-06
    9   -0.19517616E+03   -0.88107299E-12    0.70309916E-07
   10   -0.19517616E+03   -0.28421709E-13    0.10865672E-07
   11   -0.19517616E+03   -0.85265128E-13    0.26052529E-08

Total Energy:                     -193.2556361198 H        -5258.7534 eV
Extrapolated to 0K:               -193.2556361198 H        -5258.7534 eV
Total Mermin free energy:         -193.2556361198 H        -5258.7534 eV
Force related energy:             -193.2556361198 H        -5258.7534 eV

Volume:                              0.112172E+05 au^3   0.166221E+04 A^3
Pressure:                            0.760301E-05 au     0.223688E+09 Pa
>> Charges saved for restart in charges.bin

total energy  -1.9325564E+02 H       energy change -7.1935191E-04 H
gradient norm  1.7817916E-02 H/a0    max. gradient  5.5205458E-03 H/a0
step length    1.4300234E-01 a0      max. step      3.2825469E-02 a0

--------------------------------------------------------------------------------

***  Geometry step: 29

 iSCC Total electronic   Diff electronic      SCC error    
    1   -0.19517616E+03    0.00000000E+00    0.44449169E-02
    2   -0.19518061E+03   -0.44580960E-02    0.25271977E-02
    3   -0.19518062E+03   -0.99504681E-05    0.42338247E-03
    4   -0.19518063E+03   -0.21956543E-05    0.57502270E-04
    5   -0.19518063E+03   -0.10599038E-06    0.88424120E-05
    6   -0.19518063E+03   -0.20390019E-08    0.28282596E-05
    7   -0.19518063E+03   -0.28251179E-10    0.66303273E-06
    8   -0.19518063E+03   -0.11368684E-11    0.10292676E-06
    9   -0.19518063E+03   -0.17053026E-12    0.37818280E-07
   10   -0.19518063E+03    0.56843419E-13    0.95891921E-08

Total Energy:                     -193.2561364030 H        -5258.7670 eV
Extrapolated to 0K:               -193.2561364030 H        -5258.7670 eV
Total Mermin free energy:         -193.2561364030 H        -5258.7670 eV
Force related energy:             -193.2561364030 H        -5258.7670 eV

Volume:                              0.112352E+05 au^3   0.166488E+04 A^3
Pressure:                            0.852680E-05 au     0.250867E+09 Pa
>> Charges saved for restart in charges.bin

total energy  -1.9325614E+02 H       energy change -5.0028323E-04 H
gradient norm  1.5864672E-02 H/a0    max. gradient  5.9262267E-03 H/a0
step length    1.1266170E-01 a0      max. step      2.2847442E-02 a0

--------------------------------------------------------------------------------

***  Geometry step: 30

 iSCC Total electronic   Diff electronic      SCC error    
    1   -0.19518063E+03    0.00000000E+00    0.37482229E-02
    2   -0.19518205E+03   -0.14283617E-02    0.21113914E-02
    3   -0.19518206E+03   -0.79083029E-05    0.40854014E-03
    4   -0.19518206E+03   -0.16411250E-05    0.55716323E-04
    5   -0.19518206E+03   -0.68980086E-07    0.11020024E-04
    6   -0.19518206E+03   -0.17199682E-08    0.42573142E-05
    7   -0.19518206E+03   -0.20520474E-10    0.12131758E-05
    8   -0.19518206E+03   -0.79580786E-12    0.16341613E-06
    9   -0.19518206E+03   -0.85265128E-13    0.28146430E-07
   10   -0.19518206E+03   -0.11368684E-12    0.45950341E-08

Total Energy:                     -193.2565573004 H        -5258.7785 eV
Extrapolated to 0K:               -193.2565573004 H        -5258.7785 eV
Total Mermin free energy:         -193.2565573004 H        -5258.7785 eV
Force related energy:             -193.2565573004 H        -5258.7785 eV

Volume:                              0.112485E+05 au^3   0.166686E+04 A^3
Pressure:                            0.874897E-05 au     0.257403E+09 Pa
>> Charges saved for restart in charges.bin

total energy  -1.9325656E+02 H       energy change -4.2089741E-04 H
gradient norm  1.5918746E-02 H/a0    max. gradient  5.4370327E-03 H/a0
step length    9.0729075E-02 a0      max. step      1.6781562E-02 a0

--------------------------------------------------------------------------------

***  Geometry step: 31

 iSCC Total electronic   Diff electronic      SCC error    
    1   -0.19518206E+03    0.00000000E+00    0.29455883E-02
    2   -0.19517950E+03    0.25642349E-02    0.17558900E-02
    3   -0.19517951E+03   -0.60927373E-05    0.38440398E-03
    4   -0.19517951E+03   -0.12414985E-05    0.50535334E-04
    5   -0.19517951E+03   -0.52409519E-07    0.17640285E-04
    6   -0.19517951E+03   -0.15309070E-08    0.49487810E-05
    7   -0.19517951E+03   -0.30553338E-10    0.10512344E-05
    8   -0.19517951E+03   -0.13926638E-11    0.12618291E-06
    9   -0.19517951E+03   -0.28421709E-12    0.26374817E-07
   10   -0.19517951E+03    0.56843419E-13    0.56586589E-08

Total Energy:                     -193.2570004460 H        -5258.7905 eV
Extrapolated to 0K:               -193.2570004460 H        -5258.7905 eV
Total Mermin free energy:         -193.2570004460 H        -5258.7905 eV
Force related energy:             -193.2570004460 H        -5258.7905 eV

Volume:                              0.112604E+05 au^3   0.166862E+04 A^3
Pressure:                            0.717067E-05 au     0.210968E+09 Pa
>> Charges saved for restart in charges.bin

total energy  -1.9325700E+02 H       energy change -4.4314561E-04 H
gradient norm  1.6018042E-02 H/a0    max. gradient  4.0638249E-03 H/a0
step length    8.8750621E-02 a0      max. step      1.6905743E-02 a0

--------------------------------------------------------------------------------

***  Geometry step: 32

 iSCC Total electronic   Diff electronic      SCC error    
    1   -0.19517951E+03    0.00000000E+00    0.29892414E-02
    2   -0.19517620E+03    0.33100198E-02    0.18041196E-02
    3   -0.19517620E+03   -0.65389534E-05    0.43651964E-03
    4   -0.19517621E+03   -0.11899399E-05    0.69840893E-04
    5   -0.19517621E+03   -0.60465425E-07    0.24851888E-04
    6   -0.19517621E+03   -0.19101947E-08    0.60185444E-05
    7   -0.19517621E+03   -0.53546501E-10    0.10130952E-05
    8   -0.19517621E+03   -0.28137492E-11    0.20183757E-06
    9   -0.19517621E+03   -0.19895197E-12    0.47362684E-07
   10   -0.19517621E+03   -0.11368684E-12    0.79776243E-08

Total Energy:                     -193.2574624275 H        -5258.8031 eV
Extrapolated to 0K:               -193.2574624275 H        -5258.8031 eV
Total Mermin free energy:         -193.2574624275 H        -5258.8031 eV
Force related energy:             -193.2574624275 H        -5258.8031 eV

Volume:                              0.112689E+05 au^3   0.166988E+04 A^3
Pressure:                            0.550396E-05 au     0.161932E+09 Pa
>> Charges saved for restart in charges.bin

total energy  -1.9325746E+02 H       energy change -4.6198151E-04 H
gradient norm  1.6758996E-02 H/a0    max. gradient  5.2825828E-03 H/a0
step length    9.8155245E-02 a0      max. step      2.2231276E-02 a0

--------------------------------------------------------------------------------

***  Geometry step: 33

 iSCC Total electronic   Diff electronic      SCC error    
    1   -0.19517621E+03    0.00000000E+00    0.30279404E-02
    2   -0.19517224E+03    0.39646459E-02    0.17730222E-02
    3   -0.19517225E+03   -0.71561073E-05    0.38798575E-03
    4   -0.19517225E+03   -0.13230593E-05    0.73207062E-04
    5   -0.19517225E+03   -0.69257652E-07    0.25810827E-04
    6   -0.19517225E+03   -0.22169786E-08    0.68287784E-05
    7   -0.19517225E+03   -0.54910743E-10    0.12895973E-05
    8   -0.19517225E+03   -0.30979663E-11    0.23839113E-06
    9   -0.19517225E+03   -0.25579538E-12    0.50285242E-07
   10   -0.19517225E+03    0.00000000E+00    0.86826284E-08

Total Energy:                     -193.2579554823 H        -5258.8165 eV
Extrapolated to 0K:               -193.2579554823 H        -5258.8165 eV
Total Mermin free energy:         -193.2579554823 H        -5258.8165 eV
Force related energy:             -193.2579554823 H        -5258.8165 eV

Volume:                              0.112764E+05 au^3   0.167099E+04 A^3
Pressure:                            0.355063E-05 au     0.104463E+09 Pa
>> Charges saved for restart in charges.bin

total energy  -1.9325796E+02 H       energy change -4.9305484E-04 H
gradient norm  1.7201607E-02 H/a0    max. gradient  3.5767996E-03 H/a0
step length    1.1115578E-01 a0      max. step      2.6885166E-02 a0

--------------------------------------------------------------------------------

***  Geometry step: 34

 iSCC Total electronic   Diff electronic      SCC error    
    1   -0.19517225E+03    0.00000000E+00    0.35130578E-02
    2   -0.19517087E+03    0.13812220E-02    0.20255505E-02
    3   -0.19517088E+03   -0.82407292E-05    0.44982292E-03
    4   -0.19517088E+03   -0.15079559E-05    0.54456971E-04
    5   -0.19517088E+03   -0.72078421E-07    0.16577675E-04
    6   -0.19517088E+03   -0.19618369E-08    0.51087143E-05
    7   -0.19517088E+03   -0.32201797E-10    0.12361687E-05
    8   -0.19517088E+03   -0.11084467E-11    0.26571056E-06
    9   -0.19517088E+03   -0.28421709E-12    0.28326890E-07
   10   -0.19517088E+03    0.28421709E-13    0.41516444E-08

Total Energy:                     -193.2585046591 H        -5258.8315 eV
Extrapolated to 0K:               -193.2585046591 H        -5258.8315 eV
Total Mermin free energy:         -193.2585046591 H        -5258.8315 eV
Force related energy:             -193.2585046591 H        -5258.8315 eV

Volume:                              0.112841E+05 au^3   0.167213E+04 A^3
Pressure:                            0.253094E-05 au     0.744628E+08 Pa
>> Charges saved for restart in charges.bin

total energy  -1.9325850E+02 H       energy change -5.4917680E-04 H
gradient norm  1.7720042E-02 H/a0    max. gradient  3.3776429E-03 H/a0
step length    1.3184461E-01 a0      max. step      3.2227740E-02 a0

--------------------------------------------------------------------------------

***  Geometry step: 35

 iSCC Total electronic   Diff electronic      SCC error    
    1   -0.19517088E+03    0.00000000E+00    0.43650093E-02
    2   -0.19517321E+03   -0.23318459E-02    0.25137405E-02
    3   -0.19517322E+03   -0.10517154E-04    0.62029901E-03
    4   -0.19517322E+03   -0.17899494E-05    0.63141266E-04
    5   -0.19517322E+03   -0.73400201E-07    0.56000172E-05
    6   -0.19517322E+03   -0.23790392E-08    0.26149862E-05
    7   -0.19517322E+03   -0.31207037E-10    0.84930443E-06
    8   -0.19517322E+03   -0.14210855E-11    0.28085815E-06
    9   -0.19517322E+03   -0.28421709E-13    0.57806659E-07
   10   -0.19517322E+03    0.00000000E+00    0.77805455E-08

Total Energy:                     -193.2590963752 H        -5258.8476 eV
Extrapolated to 0K:               -193.2590963752 H        -5258.8476 eV
Total Mermin free energy:         -193.2590963752 H        -5258.8476 eV
Force related energy:             -193.2590963752 H        -5258.8476 eV

Volume:                              0.112927E+05 au^3   0.167341E+04 A^3
Pressure:                            0.218828E-05 au     0.643814E+08 Pa
>> Charges saved for restart in charges.bin

total energy  -1.9325910E+02 H       energy change -5.9171603E-04 H
gradient norm  1.7519347E-02 H/a0    max. gradient  5.1702650E-03 H/a0
step length    1.5410130E-01 a0      max. step      3.6037139E-02 a0

--------------------------------------------------------------------------------

***  Geometry step: 36

 iSCC Total electronic   Diff electronic      SCC error    
    1   -0.19517322E+03    0.00000000E+00    0.39240215E-02
    2   -0.19518046E+03   -0.72333009E-02    0.22647567E-02
    3   -0.19518047E+03   -0.11624480E-04    0.60584392E-03
    4   -0.19518047E+03   -0.18513686E-05    0.75106823E-04
    5   -0.19518047E+03   -0.74896832E-07    0.24848958E-04
    6   -0.19518047E+03   -0.33083722E-08    0.90965170E-05
    7   -0.19518047E+03   -0.62385652E-10    0.15129480E-05
    8   -0.19518047E+03   -0.35527137E-11    0.35714438E-06
    9   -0.19518047E+03   -0.25579538E-12    0.50084938E-07
   10   -0.19518047E+03   -0.28421709E-13    0.75507689E-08

Total Energy:                     -193.2596519813 H        -5258.8627 eV
Extrapolated to 0K:               -193.2596519813 H        -5258.8627 eV
Total Mermin free energy:         -193.2596519813 H        -5258.8627 eV
Force related energy:             -193.2596519813 H        -5258.8627 eV

Volume:                              0.113009E+05 au^3   0.167462E+04 A^3
Pressure:                            0.413569E-05 au     0.121676E+09 Pa
>> Charges saved for restart in charges.bin

total energy  -1.9325965E+02 H       energy change -5.5560613E-04 H
gradient norm  1.7058308E-02 H/a0    max. gradient  5.5589737E-03 H/a0
step length    1.5803651E-01 a0      max. step      3.4101049E-02 a0

--------------------------------------------------------------------------------

***  Geometry step: 37

 iSCC Total electronic   Diff electronic      SCC error    
    1   -0.19518047E+03    0.00000000E+00    0.36504591E-02
    2   -0.19518682E+03   -0.63472721E-02    0.17665825E-02
    3   -0.19518683E+03   -0.12414884E-04    0.59755839E-03
    4   -0.19518683E+03   -0.18887773E-05    0.12320145E-03
    5   -0.19518683E+03   -0.69223347E-07    0.38269360E-04
    6   -0.19518683E+03   -0.44400394E-08    0.11521585E-04
    7   -0.19518683E+03   -0.83844043E-10    0.11311413E-05
    8   -0.19518683E+03   -0.63380412E-11    0.22781084E-06
    9   -0.19518683E+03   -0.28421709E-12    0.67434365E-07
   10   -0.19518683E+03   -0.28421709E-13    0.67804860E-08

Total Energy:                     -193.2601553239 H        -5258.8764 eV
Extrapolated to 0K:               -193.2601553239 H        -5258.8764 eV
Total Mermin free energy:         -193.2601553239 H        -5258.8764 eV
Force related energy:             -193.2601553239 H        -5258.8764 eV

Volume:                              0.113104E+05 au^3   0.167602E+04 A^3
Pressure:                            0.569313E-05 au     0.167498E+09 Pa
>> Charges saved for restart in charges.bin

total energy  -1.9326016E+02 H       energy change -5.0334264E-04 H
gradient norm  1.6918345E-02 H/a0    max. gradient  5.6023410E-03 H/a0
step length    1.4869478E-01 a0      max. step      2.9334641E-02 a0

--------------------------------------------------------------------------------

***  Geometry step: 38

 iSCC Total electronic   Diff electronic      SCC error    
    1   -0.19518683E+03    0.00000000E+00    0.35404964E-02
    2   -0.19519194E+03   -0.51076776E-02    0.20184197E-02
    3   -0.19519195E+03   -0.14790116E-04    0.68865134E-03
    4   -0.19519196E+03   -0.22404498E-05    0.15417197E-03
    5   -0.19519196E+03   -0.89621324E-07    0.48640748E-04
    6   -0.19519196E+03   -0.54828035E-08    0.13023826E-04
    7   -0.19519196E+03   -0.12531132E-09    0.12778025E-05
    8   -0.19519196E+03   -0.91233687E-11    0.29333358E-06
    9   -0.19519196E+03   -0.48316906E-12    0.84109726E-07
   10   -0.19519196E+03   -0.56843419E-13    0.96965120E-08

Total Energy:                     -193.2607160241 H        -5258.8917 eV
Extrapolated to 0K:               -193.2607160241 H        -5258.8917 eV
Total Mermin free energy:         -193.2607160241 H        -5258.8917 eV
Force related energy:             -193.2607160241 H        -5258.8917 eV

Volume:                              0.113216E+05 au^3   0.167769E+04 A^3
Pressure:                            0.694043E-05 au     0.204194E+09 Pa
>> Charges saved for restart in charges.bin

total energy  -1.9326072E+02 H       energy change -5.6070011E-04 H
gradient norm  1.7397504E-02 H/a0    max. gradient  4.8705177E-03 H/a0
step length    1.6522809E-01 a0      max. step      3.1376955E-02 a0

--------------------------------------------------------------------------------

***  Geometry step: 39

 iSCC Total electronic   Diff electronic      SCC error    
    1   -0.19519196E+03    0.00000000E+00    0.41059997E-02
    2   -0.19519307E+03   -0.11112539E-02    0.23200174E-02
    3   -0.19519308E+03   -0.17481424E-04    0.63434876E-03
    4   -0.19519309E+03   -0.24746396E-05    0.14240106E-03
    5   -0.19519309E+03   -0.98836921E-07    0.43990753E-04
    6   -0.19519309E+03   -0.60975367E-08    0.12546637E-04
    7   -0.19519309E+03   -0.11220891E-09    0.15053752E-05
    8   -0.19519309E+03   -0.77591267E-11    0.28172491E-06
    9   -0.19519309E+03   -0.59685590E-12    0.84945221E-07
   10   -0.19519309E+03   -0.56843419E-13    0.14949817E-07
   11   -0.19519309E+03   -0.28421709E-13    0.20541471E-08

Total Energy:                     -193.2613140583 H        -5258.9079 eV
Extrapolated to 0K:               -193.2613140583 H        -5258.9079 eV
Total Mermin free energy:         -193.2613140583 H        -5258.9079 eV
Force related energy:             -193.2613140583 H        -5258.9079 eV

Volume:                              0.113338E+05 au^3   0.167949E+04 A^3
Pressure:                            0.657604E-05 au     0.193474E+09 Pa
>> Charges saved for restart in charges.bin

total energy  -1.9326131E+02 H       energy change -5.9803426E-04 H
gradient norm  1.7798948E-02 H/a0    max. gradient  3.4164820E-03 H/a0
step length    1.7632636E-01 a0      max. step      3.4423992E-02 a0

--------------------------------------------------------------------------------

***  Geometry step: 40

 iSCC Total electronic   Diff electronic      SCC error    
    1   -0.19519309E+03    0.00000000E+00    0.36841302E-02
    2   -0.19519164E+03    0.14484025E-02    0.20886477E-02
    3   -0.19519166E+03   -0.17657167E-04    0.57949207E-03
    4   -0.19519166E+03   -0.23963430E-05    0.83845041E-04
    5   -0.19519166E+03   -0.11632932E-06    0.25856246E-04
    6   -0.19519166E+03   -0.57446528E-08    0.81156901E-05
    7   -0.19519166E+03   -0.89471541E-10    0.17869850E-05
    8   -0.19519166E+03   -0.45190518E-11    0.25636488E-06
    9   -0.19519166E+03   -0.68212103E-12    0.57397171E-07
   10   -0.19519166E+03    0.85265128E-13    0.12191957E-07
   11   -0.19519166E+03   -0.11368684E-12    0.14177801E-08

Total Energy:                     -193.2619251226 H        -5258.9246 eV
Extrapolated to 0K:               -193.2619251226 H        -5258.9246 eV
Total Mermin free energy:         -193.2619251226 H        -5258.9246 eV
Force related energy:             -193.2619251226 H        -5258.9246 eV

Volume:                              0.113439E+05 au^3   0.168099E+04 A^3
Pressure:                            0.561748E-05 au     0.165272E+09 Pa
>> Charges saved for restart in charges.bin

total energy  -1.9326193E+02 H       energy change -6.1106432E-04 H
gradient norm  1.7198584E-02 H/a0    max. gradient  4.6046437E-03 H/a0
step length    1.8414935E-01 a0      max. step      3.8874507E-02 a0

--------------------------------------------------------------------------------

***  Geometry step: 41

 iSCC Total electronic   Diff electronic      SCC error    
    1   -0.19519166E+03    0.00000000E+00    0.36706862E-02
    2   -0.19518782E+03    0.38426584E-02    0.16928708E-02
    3   -0.19518783E+03   -0.14262497E-04    0.54752513E-03
    4   -0.19518783E+03   -0.16098362E-05    0.72431370E-04
    5   -0.19518783E+03   -0.85060748E-07    0.25582778E-04
    6   -0.19518783E+03   -0.34034713E-08    0.77102118E-05
    7   -0.19518783E+03   -0.48203219E-10    0.15795738E-05
    8   -0.19518783E+03   -0.26147973E-11    0.24605164E-06
    9   -0.19518783E+03   -0.36948222E-12    0.57723658E-07
   10   -0.19518783E+03   -0.11368684E-12    0.87561385E-08

Total Energy:                     -193.2624156067 H        -5258.9379 eV
Extrapolated to 0K:               -193.2624156067 H        -5258.9379 eV
Total Mermin free energy:         -193.2624156067 H        -5258.9379 eV
Force related energy:             -193.2624156067 H        -5258.9379 eV

Volume:                              0.113517E+05 au^3   0.168215E+04 A^3
Pressure:                            0.382303E-05 au     0.112478E+09 Pa
>> Charges saved for restart in charges.bin

total energy  -1.9326242E+02 H       energy change -4.9048402E-04 H
gradient norm  1.5880331E-02 H/a0    max. gradient  4.9631979E-03 H/a0
step length    1.5870664E-01 a0      max. step      3.5840857E-02 a0

--------------------------------------------------------------------------------

***  Geometry step: 42

 iSCC Total electronic   Diff electronic      SCC error    
    1   -0.19518783E+03    0.00000000E+00    0.32426025E-02
    2   -0.19518491E+03    0.29233586E-02    0.17750862E-02
    3   -0.19518492E+03   -0.11581565E-04    0.51776087E-03
    4   -0.19518492E+03   -0.13851102E-05    0.91654087E-04
    5   -0.19518492E+03   -0.66686511E-07    0.30156496E-04
    6   -0.19518492E+03   -0.34623611E-08    0.87580877E-05
    7   -0.19518492E+03   -0.56814997E-10    0.99720286E-06
    8   -0.19518492E+03   -0.50590643E-11    0.18739608E-06
    9   -0.19518492E+03   -0.25579538E-12    0.73834413E-07
   10   -0.19518492E+03   -0.85265128E-13    0.90109973E-08

Total Energy:                     -193.2628424197 H        -5258.9495 eV
Extrapolated to 0K:               -193.2628424197 H        -5258.9495 eV
Total Mermin free energy:         -193.2628424197 H        -5258.9495 eV
Force related energy:             -193.2628424197 H        -5258.9495 eV

Volume:                              0.113583E+05 au^3   0.168312E+04 A^3
Pressure:                            0.264935E-05 au     0.779466E+08 Pa
>> Charges saved for restart in charges.bin

total energy  -1.9326284E+02 H       energy change -4.2681303E-04 H
gradient norm  1.4310700E-02 H/a0    max. gradient  2.6252581E-03 H/a0
step length    1.3815164E-01 a0      max. step      3.1960289E-02 a0

--------------------------------------------------------------------------------

***  Geometry step: 43

 iSCC Total electronic   Diff electronic      SCC error    
    1   -0.19518492E+03    0.00000000E+00    0.36203497E-02
    2   -0.19518358E+03    0.13376218E-02    0.20975505E-02
    3   -0.19518359E+03   -0.83842715E-05    0.57073558E-03
    4   -0.19518359E+03   -0.12485492E-05    0.13054750E-03
    5   -0.19518359E+03   -0.62084382E-07    0.41970429E-04
    6   -0.19518359E+03   -0.36420715E-08    0.10387724E-04
    7   -0.19518359E+03   -0.76767037E-10    0.95926954E-06
    8   -0.19518359E+03   -0.67927886E-11    0.24381296E-06
    9   -0.19518359E+03   -0.28421709E-12    0.84891387E-07
   10   -0.19518359E+03   -0.85265128E-13    0.98528607E-08

Total Energy:                     -193.2632108532 H        -5258.9595 eV
Extrapolated to 0K:               -193.2632108532 H        -5258.9595 eV
Total Mermin free energy:         -193.2632108532 H        -5258.9595 eV
Force related energy:             -193.2632108532 H        -5258.9595 eV

Volume:                              0.113661E+05 au^3   0.168428E+04 A^3
Pressure:                            0.171573E-05 au     0.504786E+08 Pa
>> Charges saved for restart in charges.bin

total energy  -1.9326321E+02 H       energy change -3.6843349E-04 H
gradient norm  1.4018936E-02 H/a0    max. gradient  3.4450608E-03 H/a0
step length    1.2388181E-01 a0      max. step      2.7749600E-02 a0

--------------------------------------------------------------------------------

***  Geometry step: 44

 iSCC Total electronic   Diff electronic      SCC error    
    1   -0.19518359E+03    0.00000000E+00    0.43997182E-02
    2   -0.19518534E+03   -0.17425782E-02    0.25985116E-02
    3   -0.19518534E+03   -0.82018189E-05    0.62253746E-03
    4   -0.19518535E+03   -0.14114031E-05    0.14176445E-03
    5   -0.19518535E+03   -0.70733535E-07    0.44891817E-04
    6   -0.19518535E+03   -0.47257060E-08    0.96525671E-05
    7   -0.19518535E+03   -0.90949470E-10    0.10705394E-05
    8   -0.19518535E+03   -0.74180662E-11    0.21828973E-06
    9   -0.19518535E+03   -0.28421709E-12    0.72151778E-07
   10   -0.19518535E+03    0.00000000E+00    0.92225245E-08

Total Energy:                     -193.2635816107 H        -5258.9696 eV
Extrapolated to 0K:               -193.2635816107 H        -5258.9696 eV
Total Mermin free energy:         -193.2635816107 H        -5258.9696 eV
Force related energy:             -193.2635816107 H        -5258.9696 eV

Volume:                              0.113736E+05 au^3   0.168539E+04 A^3
Pressure:                            0.162508E-05 au     0.478115E+08 Pa
>> Charges saved for restart in charges.bin

total energy  -1.9326358E+02 H       energy change -3.7075754E-04 H
gradient norm  1.3985806E-02 H/a0    max. gradient  3.8413144E-03 H/a0
step length    1.2787557E-01 a0      max. step      2.7109960E-02 a0

--------------------------------------------------------------------------------

***  Geometry step: 45

 iSCC Total electronic   Diff electronic      SCC error    
    1   -0.19518535E+03    0.00000000E+00    0.36691938E-02
    2   -0.19518944E+03   -0.40945575E-02    0.21487513E-02
    3   -0.19518945E+03   -0.89279924E-05    0.57500014E-03
    4   -0.19518945E+03   -0.13766627E-05    0.12858814E-03
    5   -0.19518945E+03   -0.76697205E-07    0.40745532E-04
    6   -0.19518945E+03   -0.46502748E-08    0.10030036E-04
    7   -0.19518945E+03   -0.96321173E-10    0.11214651E-05
    8   -0.19518945E+03   -0.74749096E-11    0.20466416E-06
    9   -0.19518945E+03   -0.28421709E-12    0.58779743E-07
   10   -0.19518945E+03   -0.28421709E-13    0.57133618E-08

Total Energy:                     -193.2639383634 H        -5258.9793 eV
Extrapolated to 0K:               -193.2639383634 H        -5258.9793 eV
Total Mermin free energy:         -193.2639383634 H        -5258.9793 eV
Force related energy:             -193.2639383634 H        -5258.9793 eV

Volume:                              0.113809E+05 au^3   0.168647E+04 A^3
Pressure:                            0.234658E-05 au     0.690387E+08 Pa
>> Charges saved for restart in charges.bin

total energy  -1.9326394E+02 H       energy change -3.5675263E-04 H
gradient norm  1.3662212E-02 H/a0    max. gradient  3.5994799E-03 H/a0
step length    1.4047083E-01 a0      max. step      2.8295582E-02 a0

--------------------------------------------------------------------------------

***  Geometry step: 46

 iSCC Total electronic   Diff electronic      SCC error    
    1   -0.19518945E+03    0.00000000E+00    0.32157332E-02
    2   -0.19519373E+03   -0.42792203E-02    0.18882400E-02
    3   -0.19519374E+03   -0.83027860E-05    0.58060249E-03
    4   -0.19519374E+03   -0.10287935E-05    0.10210986E-03
    5   -0.19519374E+03   -0.54737370E-07    0.31599680E-04
    6   -0.19519374E+03   -0.34683865E-08    0.86311061E-05
    7   -0.19519374E+03   -0.73754336E-10    0.85285312E-06
    8   -0.19519374E+03   -0.50306426E-11    0.17611202E-06
    9   -0.19519374E+03   -0.19895197E-12    0.55565974E-07
   10   -0.19519374E+03   -0.56843419E-13    0.60294933E-08

Total Energy:                     -193.2642486268 H        -5258.9878 eV
Extrapolated to 0K:               -193.2642486268 H        -5258.9878 eV
Total Mermin free energy:         -193.2642486268 H        -5258.9878 eV
Force related energy:             -193.2642486268 H        -5258.9878 eV

Volume:                              0.113868E+05 au^3   0.168736E+04 A^3
Pressure:                            0.358162E-05 au     0.105375E+09 Pa
>> Charges saved for restart in charges.bin

total energy  -1.9326425E+02 H       energy change -3.1026342E-04 H
gradient norm  1.2809275E-02 H/a0    max. gradient  3.0182578E-03 H/a0
step length    1.3569524E-01 a0      max. step      2.7647939E-02 a0

--------------------------------------------------------------------------------

***  Geometry step: 47

 iSCC Total electronic   Diff electronic      SCC error    
    1   -0.19519374E+03    0.00000000E+00    0.25622514E-02
    2   -0.19519566E+03   -0.19256287E-02    0.13596100E-02
    3   -0.19519567E+03   -0.73263655E-05    0.45890452E-03
    4   -0.19519567E+03   -0.91378550E-06    0.77629837E-04
    5   -0.19519567E+03   -0.35612203E-07    0.22241163E-04
    6   -0.19519567E+03   -0.27782789E-08    0.69768356E-05
    7   -0.19519567E+03   -0.67672090E-10    0.75566260E-06
    8   -0.19519567E+03   -0.28421709E-11    0.11773130E-06
    9   -0.19519567E+03   -0.22737368E-12    0.32760737E-07
   10   -0.19519567E+03    0.11368684E-12    0.51329438E-08

Total Energy:                     -193.2645314530 H        -5258.9955 eV
Extrapolated to 0K:               -193.2645314530 H        -5258.9955 eV
Total Mermin free energy:         -193.2645314530 H        -5258.9955 eV
Force related energy:             -193.2645314530 H        -5258.9955 eV

Volume:                              0.113923E+05 au^3   0.168816E+04 A^3
Pressure:                            0.397860E-05 au     0.117054E+09 Pa
>> Charges saved for restart in charges.bin

total energy  -1.9326453E+02 H       energy change -2.8282619E-04 H
gradient norm  1.1474170E-02 H/a0    max. gradient  2.5148020E-03 H/a0
step length    1.2631890E-01 a0      max. step      2.7775785E-02 a0

--------------------------------------------------------------------------------

***  Geometry step: 48

 iSCC Total electronic   Diff electronic      SCC error    
    1   -0.19519567E+03    0.00000000E+00    0.36484678E-02
    2   -0.19519579E+03   -0.11943949E-03    0.20021423E-02
    3   -0.19519580E+03   -0.84801214E-05    0.56799284E-03
    4   -0.19519580E+03   -0.11557186E-05    0.10696386E-03
    5   -0.19519580E+03   -0.42422357E-07    0.16798664E-04
    6   -0.19519580E+03   -0.36248764E-08    0.59003280E-05
    7   -0.19519580E+03   -0.85151441E-10    0.11050920E-05
    8   -0.19519580E+03   -0.21316282E-11    0.20233751E-06
    9   -0.19519580E+03   -0.11368684E-12    0.53301087E-07
   10   -0.19519580E+03   -0.14210855E-12    0.10724305E-07
   11   -0.19519580E+03    0.56843419E-13    0.10560850E-08

Total Energy:                     -193.2647791389 H        -5259.0022 eV
Extrapolated to 0K:               -193.2647791389 H        -5259.0022 eV
Total Mermin free energy:         -193.2647791389 H        -5259.0022 eV
Force related energy:             -193.2647791389 H        -5259.0022 eV

Volume:                              0.113960E+05 au^3   0.168872E+04 A^3
Pressure:                            0.393297E-05 au     0.115712E+09 Pa
>> Charges saved for restart in charges.bin

total energy  -1.9326478E+02 H       energy change -2.4768597E-04 H
gradient norm  1.0445629E-02 H/a0    max. gradient  2.4645124E-03 H/a0
step length    1.1734054E-01 a0      max. step      2.8468912E-02 a0

--------------------------------------------------------------------------------

***  Geometry step: 49

 iSCC Total electronic   Diff electronic      SCC error    
    1   -0.19519580E+03    0.00000000E+00    0.30585656E-02
    2   -0.19519456E+03    0.12429619E-02    0.17578942E-02
    3   -0.19519456E+03   -0.36081208E-05    0.42352092E-03
    4   -0.19519456E+03   -0.62648985E-06    0.56837426E-04
    5   -0.19519456E+03   -0.23961405E-07    0.80142908E-05
    6   -0.19519456E+03   -0.19772415E-08    0.28915217E-05
    7   -0.19519456E+03   -0.32201797E-10    0.62679428E-06
    8   -0.19519456E+03   -0.71054274E-12    0.15616010E-06
    9   -0.19519456E+03   -0.11368684E-12    0.38386660E-07
   10   -0.19519456E+03    0.00000000E+00    0.50900368E-08

Total Energy:                     -193.2649467310 H        -5259.0068 eV
Extrapolated to 0K:               -193.2649467310 H        -5259.0068 eV
Total Mermin free energy:         -193.2649467310 H        -5259.0068 eV
Force related energy:             -193.2649467310 H        -5259.0068 eV

Volume:                              0.113975E+05 au^3   0.168894E+04 A^3
Pressure:                            0.343266E-05 au     0.100992E+09 Pa
>> Charges saved for restart in charges.bin

total energy  -1.9326495E+02 H       energy change -1.6759208E-04 H
gradient norm  9.5999673E-03 H/a0    max. gradient  2.5797987E-03 H/a0
step length    6.9372049E-02 a0      max. step      1.8311503E-02 a0

--------------------------------------------------------------------------------

***  Geometry step: 50

 iSCC Total electronic   Diff electronic      SCC error    
    1   -0.19519456E+03    0.00000000E+00    0.26906152E-02
    2   -0.19519295E+03    0.16091037E-02    0.15959811E-02
    3   -0.19519296E+03   -0.42057985E-05    0.41725064E-03
    4   -0.19519296E+03   -0.75465857E-06    0.46327527E-04
    5   -0.19519296E+03   -0.26309920E-07    0.86873887E-05
    6   -0.19519296E+03   -0.15888304E-08    0.20964116E-05
    7   -0.19519296E+03   -0.27910119E-10    0.49363026E-06
    8   -0.19519296E+03   -0.76738615E-12    0.15440899E-06
    9   -0.19519296E+03   -0.28421709E-13    0.45996956E-07
   10   -0.19519296E+03   -0.28421709E-13    0.67156027E-08

Total Energy:                     -193.2651136954 H        -5259.0113 eV
Extrapolated to 0K:               -193.2651136954 H        -5259.0113 eV
Total Mermin free energy:         -193.2651136954 H        -5259.0113 eV
Force related energy:             -193.2651136954 H        -5259.0113 eV

Volume:                              0.113984E+05 au^3   0.168906E+04 A^3
Pressure:                            0.275906E-05 au     0.811742E+08 Pa
>> Charges saved for restart in charges.bin

total energy  -1.9326511E+02 H       energy change -1.6696441E-04 H
gradient norm  9.4622000E-03 H/a0    max. gradient  1.6526192E-03 H/a0
step length    6.4027533E-02 a0      max. step      1.7282129E-02 a0

[...]
>> Charges saved for restart in charges.bin

total energy  -1.9327533E+02 H       energy change -1.3053276E-06 H
gradient norm  8.4773645E-04 H/a0    max. gradient  2.0684730E-04 H/a0
step length    6.9019019E-03 a0      max. step      1.7560083E-03 a0

--------------------------------------------------------------------------------

***  Geometry step: 162

 iSCC Total electronic   Diff electronic      SCC error    
    1   -0.19518302E+03    0.00000000E+00    0.22061196E-03
    2   -0.19518330E+03   -0.28438877E-03    0.11853933E-03
    3   -0.19518330E+03   -0.44016645E-07    0.40263958E-04
    4   -0.19518330E+03   -0.62515255E-08    0.39805260E-05
    5   -0.19518330E+03   -0.18314950E-09    0.84819979E-06
    6   -0.19518330E+03   -0.11510792E-10    0.35138348E-06
    7   -0.19518330E+03   -0.17053026E-12    0.62408325E-07
    8   -0.19518330E+03   -0.28421709E-13    0.76370017E-08

Total Energy:                     -193.2753319293 H        -5259.2894 eV
Extrapolated to 0K:               -193.2753319293 H        -5259.2894 eV
Total Mermin free energy:         -193.2753319293 H        -5259.2894 eV
Force related energy:             -193.2753319293 H        -5259.2894 eV

Volume:                              0.111832E+05 au^3   0.165718E+04 A^3
Pressure:                            0.216717E-06 au     0.637602E+07 Pa
>> Charges saved for restart in charges.bin

total energy  -1.9327533E+02 H       energy change -1.5767919E-06 H
gradient norm  1.0012206E-03 H/a0    max. gradient  2.7731622E-04 H/a0
step length    1.0855138E-02 a0      max. step      2.6241231E-03 a0

--------------------------------------------------------------------------------

***  Geometry step: 163

 iSCC Total electronic   Diff electronic      SCC error    
    1   -0.19518330E+03    0.00000000E+00    0.23157655E-03
    2   -0.19518329E+03    0.10999757E-04    0.13211072E-03
    3   -0.19518329E+03   -0.40069608E-07    0.44643457E-04
    4   -0.19518329E+03   -0.55040630E-08    0.32161483E-05
    5   -0.19518329E+03   -0.15353407E-09    0.91340441E-06
    6   -0.19518329E+03   -0.81854523E-11    0.32483263E-06
    7   -0.19518329E+03   -0.25579538E-12    0.51715590E-07
    8   -0.19518329E+03    0.14210855E-12    0.56736642E-08

Total Energy:                     -193.2753337032 H        -5259.2894 eV
Extrapolated to 0K:               -193.2753337032 H        -5259.2894 eV
Total Mermin free energy:         -193.2753337032 H        -5259.2894 eV
Force related energy:             -193.2753337032 H        -5259.2894 eV

Volume:                              0.111825E+05 au^3   0.165707E+04 A^3
Pressure:                            0.225006E-06 au     0.661992E+07 Pa
>> Charges saved for restart in charges.bin

total energy  -1.9327533E+02 H       energy change -1.7739666E-06 H
gradient norm  1.0936489E-03 H/a0    max. gradient  3.5072359E-04 H/a0
step length    1.4719166E-02 a0      max. step      3.8706264E-03 a0

--------------------------------------------------------------------------------

***  Geometry step: 164

 iSCC Total electronic   Diff electronic      SCC error    
    1   -0.19518329E+03    0.00000000E+00    0.23109497E-03
    2   -0.19518321E+03    0.82298056E-04    0.13833420E-03
    3   -0.19518321E+03   -0.61344224E-07    0.48625742E-04
    4   -0.19518321E+03   -0.78475466E-08    0.29866170E-05
    5   -0.19518321E+03   -0.18300739E-09    0.49151085E-06
    6   -0.19518321E+03   -0.93507424E-11    0.16963423E-06
    7   -0.19518321E+03   -0.28421709E-13    0.25305908E-07
    8   -0.19518321E+03   -0.85265128E-13    0.51884208E-08

Total Energy:                     -193.2753359072 H        -5259.2895 eV
Extrapolated to 0K:               -193.2753359072 H        -5259.2895 eV
Total Mermin free energy:         -193.2753359072 H        -5259.2895 eV
Force related energy:             -193.2753359072 H        -5259.2895 eV

Volume:                              0.111815E+05 au^3   0.165693E+04 A^3
Pressure:                            0.215341E-06 au     0.633555E+07 Pa
>> Charges saved for restart in charges.bin

total energy  -1.9327534E+02 H       energy change -2.2039716E-06 H
gradient norm  1.0143520E-03 H/a0    max. gradient  3.3202626E-04 H/a0
step length    2.1761784E-02 a0      max. step      5.3667900E-03 a0

--------------------------------------------------------------------------------

***  Geometry step: 165

 iSCC Total electronic   Diff electronic      SCC error    
    1   -0.19518321E+03    0.00000000E+00    0.31126964E-03
    2   -0.19518317E+03    0.44250361E-04    0.11055887E-03
    3   -0.19518317E+03   -0.54381502E-07    0.32217362E-04
    4   -0.19518317E+03   -0.68796737E-08    0.38948874E-05
    5   -0.19518317E+03   -0.14975399E-09    0.94698747E-06
    6   -0.19518317E+03   -0.86970431E-11    0.28936113E-06
    7   -0.19518317E+03   -0.56843419E-13    0.25908835E-07
    8   -0.19518317E+03    0.00000000E+00    0.52890394E-08

Total Energy:                     -193.2753378085 H        -5259.2895 eV
Extrapolated to 0K:               -193.2753378085 H        -5259.2895 eV
Total Mermin free energy:         -193.2753378085 H        -5259.2895 eV
Force related energy:             -193.2753378085 H        -5259.2895 eV

Volume:                              0.111816E+05 au^3   0.165694E+04 A^3
Pressure:                            0.194516E-06 au     0.572287E+07 Pa
>> Charges saved for restart in charges.bin

total energy  -1.9327534E+02 H       energy change -1.9013371E-06 H
gradient norm  9.6382852E-04 H/a0    max. gradient  3.3936059E-04 H/a0
step length    6.3868420E-03 a0      max. step      1.7429373E-03 a0

--------------------------------------------------------------------------------

***  Geometry step: 166

 iSCC Total electronic   Diff electronic      SCC error    
    1   -0.19518317E+03    0.00000000E+00    0.44192325E-03
    2   -0.19518276E+03    0.40302420E-03    0.16673144E-03
    3   -0.19518276E+03   -0.10317902E-06    0.48688616E-04
    4   -0.19518276E+03   -0.14389855E-07    0.58097943E-05
    5   -0.19518276E+03   -0.34589220E-09    0.17906913E-05
    6   -0.19518276E+03   -0.21799451E-10    0.62859650E-06
    7   -0.19518276E+03   -0.36948222E-12    0.84720575E-07
    8   -0.19518276E+03   -0.28421709E-13    0.10322961E-07
    9   -0.19518276E+03    0.00000000E+00    0.32012442E-08

Total Energy:                     -193.2753399178 H        -5259.2896 eV
Extrapolated to 0K:               -193.2753399178 H        -5259.2896 eV
Total Mermin free energy:         -193.2753399178 H        -5259.2896 eV
Force related energy:             -193.2753399178 H        -5259.2896 eV

Volume:                              0.111820E+05 au^3   0.165700E+04 A^3
Pressure:                            0.204508E-07 au     0.601683E+06 Pa
>> Charges saved for restart in charges.bin

total energy  -1.9327534E+02 H       energy change -2.1092527E-06 H
gradient norm  8.3328786E-04 H/a0    max. gradient  2.3104488E-04 H/a0
step length    1.0526733E-02 a0      max. step      2.9335005E-03 a0

--------------------------------------------------------------------------------

***  Geometry step: 167

 iSCC Total electronic   Diff electronic      SCC error    
    1   -0.19518276E+03    0.00000000E+00    0.13474617E-03
    2   -0.19518263E+03    0.13437878E-03    0.65176260E-04
    3   -0.19518263E+03   -0.27542143E-07    0.22654907E-04
    4   -0.19518263E+03   -0.38456278E-08    0.33475288E-05
    5   -0.19518263E+03   -0.91404218E-10    0.10083127E-05
    6   -0.19518263E+03   -0.64233063E-11    0.36793984E-06
    7   -0.19518263E+03   -0.14210855E-12    0.39704668E-07
    8   -0.19518263E+03    0.00000000E+00    0.58013665E-08

Total Energy:                     -193.2753409062 H        -5259.2896 eV
Extrapolated to 0K:               -193.2753409062 H        -5259.2896 eV
Total Mermin free energy:         -193.2753409062 H        -5259.2896 eV
Force related energy:             -193.2753409062 H        -5259.2896 eV

Volume:                              0.111820E+05 au^3   0.165700E+04 A^3
Pressure:                           -0.316570E-07 au    -0.931382E+06 Pa
>> Charges saved for restart in charges.bin

total energy  -1.9327534E+02 H       energy change -9.8843958E-07 H
gradient norm  7.3002351E-04 H/a0    max. gradient  1.9167752E-04 H/a0
step length    7.5631328E-03 a0      max. step      1.5731231E-03 a0

--------------------------------------------------------------------------------

***  Geometry step: 168

 iSCC Total electronic   Diff electronic      SCC error    
    1   -0.19518263E+03    0.00000000E+00    0.19178627E-03
    2   -0.19518258E+03    0.47474784E-04    0.62619338E-04
    3   -0.19518258E+03   -0.30770906E-07    0.19468165E-04
    4   -0.19518258E+03   -0.40049883E-08    0.28912503E-05
    5   -0.19518258E+03   -0.79467100E-10    0.89503726E-06
    6   -0.19518258E+03   -0.54569682E-11    0.33082944E-06
    7   -0.19518258E+03   -0.14210855E-12    0.38854085E-07
    8   -0.19518258E+03    0.85265128E-13    0.47140332E-08

Total Energy:                     -193.2753418037 H        -5259.2896 eV
Extrapolated to 0K:               -193.2753418037 H        -5259.2896 eV
Total Mermin free energy:         -193.2753418037 H        -5259.2896 eV
Force related energy:             -193.2753418037 H        -5259.2896 eV

Volume:                              0.111818E+05 au^3   0.165698E+04 A^3
Pressure:                           -0.396410E-07 au    -0.116628E+07 Pa
>> Charges saved for restart in charges.bin

total energy  -1.9327534E+02 H       energy change -8.9749491E-07 H
gradient norm  6.0557075E-04 H/a0    max. gradient  1.3045658E-04 H/a0
step length    8.2645385E-03 a0      max. step      1.6222511E-03 a0

--------------------------------------------------------------------------------

***  Geometry step: 169

 iSCC Total electronic   Diff electronic      SCC error    
    1   -0.19518258E+03    0.00000000E+00    0.11479144E-03
    2   -0.19518253E+03    0.46918813E-04    0.53700088E-04
    3   -0.19518253E+03   -0.10046364E-07    0.14923008E-04
    4   -0.19518253E+03   -0.15818387E-08    0.11832306E-05
    5   -0.19518253E+03   -0.35555558E-10    0.14642799E-06
    6   -0.19518253E+03   -0.13642421E-11    0.49333673E-07
    7   -0.19518253E+03   -0.28421709E-13    0.10501058E-07
    8   -0.19518253E+03    0.00000000E+00    0.20618014E-08

Total Energy:                     -193.2753423676 H        -5259.2897 eV
Extrapolated to 0K:               -193.2753423676 H        -5259.2897 eV
Total Mermin free energy:         -193.2753423676 H        -5259.2897 eV
Force related energy:             -193.2753423676 H        -5259.2897 eV

Volume:                              0.111819E+05 au^3   0.165699E+04 A^3
Pressure:                           -0.618773E-07 au    -0.182049E+07 Pa
>> Charges saved for restart in charges.bin

total energy  -1.9327534E+02 H       energy change -5.6387742E-07 H
gradient norm  5.6679530E-04 H/a0    max. gradient  1.0674038E-04 H/a0
step length    1.5653945E-03 a0      max. step      3.6284068E-04 a0

--------------------------------------------------------------------------------

***  Geometry step: 170

 iSCC Total electronic   Diff electronic      SCC error    
    1   -0.19518253E+03    0.00000000E+00    0.24983239E-03
    2   -0.19518265E+03   -0.11644045E-03    0.96955631E-04
    3   -0.19518265E+03   -0.44083492E-07    0.28413919E-04
    4   -0.19518265E+03   -0.64346182E-08    0.29073789E-05
    5   -0.19518265E+03   -0.11365842E-09    0.42246974E-06
    6   -0.19518265E+03   -0.60254024E-11    0.12416316E-06
    7   -0.19518265E+03   -0.17053026E-12    0.26127685E-07
    8   -0.19518265E+03    0.00000000E+00    0.47321795E-08

Total Energy:                     -193.2753434649 H        -5259.2897 eV
Extrapolated to 0K:               -193.2753434649 H        -5259.2897 eV
Total Mermin free energy:         -193.2753434649 H        -5259.2897 eV
Force related energy:             -193.2753434649 H        -5259.2897 eV

Volume:                              0.111817E+05 au^3   0.165696E+04 A^3
Pressure:                           -0.150795E-07 au    -0.443654E+06 Pa
>> Charges saved for restart in charges.bin

total energy  -1.9327534E+02 H       energy change -1.0972701E-06 H
gradient norm  7.3559080E-04 H/a0    max. gradient  1.7613512E-04 H/a0
step length    7.8790159E-03 a0      max. step      1.8376781E-03 a0

--------------------------------------------------------------------------------

***  Geometry step: 171

 iSCC Total electronic   Diff electronic      SCC error    
    1   -0.19518265E+03    0.00000000E+00    0.19782662E-03
    2   -0.19518272E+03   -0.72494630E-04    0.78321306E-04
    3   -0.19518272E+03   -0.15566997E-07    0.21794895E-04
    4   -0.19518272E+03   -0.22701556E-08    0.14685141E-05
    5   -0.19518272E+03   -0.48288484E-10    0.27718319E-06
    6   -0.19518272E+03   -0.19895197E-11    0.11872735E-06
    7   -0.19518272E+03    0.28421709E-13    0.27757531E-07
    8   -0.19518272E+03   -0.28421709E-13    0.43986046E-08

Total Energy:                     -193.2753442001 H        -5259.2897 eV
Extrapolated to 0K:               -193.2753442001 H        -5259.2897 eV
Total Mermin free energy:         -193.2753442001 H        -5259.2897 eV
Force related energy:             -193.2753442001 H        -5259.2897 eV

Volume:                              0.111818E+05 au^3   0.165697E+04 A^3
Pressure:                            0.478034E-09 au     0.140642E+05 Pa
>> Charges saved for restart in charges.bin

total energy  -1.9327534E+02 H       energy change -7.3520755E-07 H
gradient norm  8.7580239E-04 H/a0    max. gradient  3.2587821E-04 H/a0
step length    2.9713859E-03 a0      max. step      7.1673237E-04 a0

--------------------------------------------------------------------------------

***  Geometry step: 172

 iSCC Total electronic   Diff electronic      SCC error    
    1   -0.19518272E+03    0.00000000E+00    0.29963261E-03
    2   -0.19518280E+03   -0.75493357E-04    0.11432199E-03
    3   -0.19518280E+03   -0.65404180E-07    0.33044268E-04
    4   -0.19518280E+03   -0.90366541E-08    0.37453164E-05
    5   -0.19518280E+03   -0.17246293E-09    0.55186684E-06
    6   -0.19518280E+03   -0.90381036E-11    0.15321504E-06
    7   -0.19518280E+03   -0.22737368E-12    0.41082593E-07
    8   -0.19518280E+03   -0.28421709E-13    0.91553738E-08

Total Energy:                     -193.2753458888 H        -5259.2898 eV
Extrapolated to 0K:               -193.2753458888 H        -5259.2898 eV
Total Mermin free energy:         -193.2753458888 H        -5259.2898 eV
Force related energy:             -193.2753458888 H        -5259.2898 eV

Volume:                              0.111818E+05 au^3   0.165697E+04 A^3
Pressure:                            0.257759E-07 au     0.758354E+06 Pa
>> Charges saved for restart in charges.bin

total energy  -1.9327535E+02 H       energy change -1.6887593E-06 H
gradient norm  8.7575178E-04 H/a0    max. gradient  2.0591699E-04 H/a0
step length    1.4689708E-02 a0      max. step      4.4054496E-03 a0

--------------------------------------------------------------------------------

***  Geometry step: 173

 iSCC Total electronic   Diff electronic      SCC error    
    1   -0.19518280E+03    0.00000000E+00    0.14099054E-03
    2   -0.19518281E+03   -0.11005948E-04    0.77972256E-04
    3   -0.19518281E+03   -0.19069915E-07    0.23047308E-04
    4   -0.19518281E+03   -0.28936711E-08    0.23099264E-05
    5   -0.19518281E+03   -0.85947249E-10    0.75131303E-06
    6   -0.19518281E+03   -0.39221959E-11    0.28000968E-06
    7   -0.19518281E+03   -0.14210855E-12    0.37121623E-07
    8   -0.19518281E+03    0.28421709E-13    0.45339621E-08

Total Energy:                     -193.2753469961 H        -5259.2898 eV
Extrapolated to 0K:               -193.2753469961 H        -5259.2898 eV
Total Mermin free energy:         -193.2753469961 H        -5259.2898 eV
Force related energy:             -193.2753469961 H        -5259.2898 eV

Volume:                              0.111818E+05 au^3   0.165698E+04 A^3
Pressure:                            0.176518E-07 au     0.519334E+06 Pa
>> Charges saved for restart in charges.bin

total energy  -1.9327535E+02 H       energy change -1.1072274E-06 H
gradient norm  7.3434271E-04 H/a0    max. gradient  1.7786151E-04 H/a0
step length    7.9945074E-03 a0      max. step      2.2601063E-03 a0

--------------------------------------------------------------------------------

***  Geometry step: 174

 iSCC Total electronic   Diff electronic      SCC error    
    1   -0.19518281E+03    0.00000000E+00    0.22487739E-03
    2   -0.19518280E+03    0.12455957E-04    0.10824403E-03
    3   -0.19518280E+03   -0.29733457E-07    0.31853437E-04
    4   -0.19518280E+03   -0.48324011E-08    0.31117735E-05
    5   -0.19518280E+03   -0.17229240E-09    0.93825726E-06
    6   -0.19518280E+03   -0.74749096E-11    0.34870547E-06
    7   -0.19518280E+03   -0.85265128E-13    0.56383358E-07
    8   -0.19518280E+03    0.28421709E-13    0.75136017E-08

Total Energy:                     -193.2753479300 H        -5259.2898 eV
Extrapolated to 0K:               -193.2753479300 H        -5259.2898 eV
Total Mermin free energy:         -193.2753479300 H        -5259.2898 eV
Force related energy:             -193.2753479300 H        -5259.2898 eV

Volume:                              0.111819E+05 au^3   0.165699E+04 A^3
Pressure:                            0.479591E-08 au     0.141100E+06 Pa
>> Charges saved for restart in charges.bin

total energy  -1.9327535E+02 H       energy change -9.3392890E-07 H
gradient norm  5.3313409E-04 H/a0    max. gradient  1.1208584E-04 H/a0
step length    9.0792975E-03 a0      max. step      2.4731241E-03 a0

--------------------------------------------------------------------------------

***  Geometry step: 175

 iSCC Total electronic   Diff electronic      SCC error    
    1   -0.19518280E+03    0.00000000E+00    0.89555265E-04
    2   -0.19518280E+03   -0.40291419E-05    0.51838250E-04
    3   -0.19518280E+03   -0.60780394E-08    0.11741946E-04
    4   -0.19518280E+03   -0.10923600E-08    0.14952871E-05
    5   -0.19518280E+03   -0.46384230E-10    0.46923277E-06
    6   -0.19518280E+03   -0.19042545E-11    0.15157686E-06
    7   -0.19518280E+03    0.00000000E+00    0.27219362E-07
    8   -0.19518280E+03   -0.28421709E-13    0.32967891E-08

Total Energy:                     -193.2753483292 H        -5259.2898 eV
Extrapolated to 0K:               -193.2753483292 H        -5259.2898 eV
Total Mermin free energy:         -193.2753483292 H        -5259.2898 eV
Force related energy:             -193.2753483292 H        -5259.2898 eV

Volume:                              0.111819E+05 au^3   0.165699E+04 A^3
Pressure:                            0.482179E-08 au     0.141862E+06 Pa
>> Charges saved for restart in charges.bin

total energy  -1.9327535E+02 H       energy change -3.9924169E-07 H
gradient norm  4.7380624E-04 H/a0    max. gradient  9.8950448E-05 H/a0
step length    1.3320730E-03 a0      max. step      3.1185616E-04 a0

Geometry converged

--------------------------------------------------------------------------------
DFTB+ running times                          cpu [s]             wall clock [s]
--------------------------------------------------------------------------------
Pre-SCC initialisation                 +       6.06 (  0.2%)       2.85 (  0.8%)
SCC                                    +    2395.01 ( 92.4%)     312.26 ( 90.4%)
Post-SCC processing                    +     190.98 (  7.4%)      30.15 (  8.7%)
--------------------------------------------------------------------------------
Missing                                +       0.28 (  0.0%)       0.01 (  0.0%)
Total                                  =    2592.33 (100.0%)     345.27 (100.0%)
--------------------------------------------------------------------------------
