|===============================================================================
|
|  DFTB+ release 24.1
|
|  Copyright (C) 2006 - 2024  DFTB+ developers group
|
|===============================================================================
|
|  When publishing results obtained with DFTB+, please cite the following
|  reference:
|
|  * DFTB+, a software package for efficient approximate density functional
|    theory based atomistic simulations, J. Chem. Phys. 152, 124101 (2020).
|    [doi: 10.1063/1.5143190]
|
|  You should also cite additional publications crediting the parametrization
|  data you use. Please consult the documentation of the SK-files for the
|  references.
|
|===============================================================================

Reading input file 'dftb_in.hsd'
Parser version: 14

--------------------------------------------------------------------------------
Reading SK-files:
./SKFiles/Si-Si.skf
./SKFiles/Si-Ge.skf
./SKFiles/Si-O.skf
./SKFiles/Ge-Ge.skf
./SKFiles/Ge-O.skf
./SKFiles/O-O.skf
Done.


Processed input in HSD format written to 'dftb_pin.hsd'

Starting initialization...
--------------------------------------------------------------------------------
WARNING!
-> Dipole printed for extended system : value printed is not well defined
MPI processes:               1
OpenMP threads:              8
BLACS orbital grid size:     1 x 1
BLACS atom grid size:        1 x 1
Chosen random seed:          159618280
Current stacksize:           unlimited
Mode:                        Static calculation
Self consistent charges:     Yes
SCC-tolerance:                 0.100000E-07
Max. scc iterations:                    500
Shell resolved Hubbard:      No
Spin polarisation:           No
Nr. of up electrons:           192.000000
Nr. of down electrons:         192.000000
Periodic boundaries:         Yes
Electronic solver:           Relatively robust
Mixer:                       Broyden mixer
Mixing parameter:                  0.200000
Maximal SCC-cycles:                     500
Nr. of chrg. vec. in memory:            500
Electronic temperature:              0.100000E-07 H      0.272114E-06 eV
Initial charges:             Set automatically (system chrg:   0.000E+00)
Included shells:            Si:  s, p, d
                            Ge:  s, p, d
                             O:  s, p
K-points and weights:           1:  0.500000  0.500000  0.500000     1.000000

K-points in absolute space:     1:  0.025319  0.017606  0.037774

Extra options:
                             Mulliken analysis
Force type                   original

--------------------------------------------------------------------------------

***  Geometry step: 0

 iSCC Total electronic   Diff electronic      SCC error    
    1    0.00000000E+00    0.00000000E+00    0.14329247E+01
    2   -0.19732481E+03   -0.19732481E+03    0.96947099E+00
    3   -0.19766753E+03   -0.34271765E+00    0.37235427E-01
    4   -0.19795641E+03   -0.28888022E+00    0.22428177E-01
    5   -0.19795794E+03   -0.15254264E-02    0.35588623E-02
    6   -0.19795804E+03   -0.10444636E-03    0.13491970E-02
    7   -0.19795804E+03   -0.22117038E-05    0.31304121E-03
    8   -0.19795805E+03   -0.59139870E-06    0.36261076E-04
    9   -0.19795805E+03   -0.34670592E-07    0.15376341E-04
   10   -0.19795805E+03   -0.28813929E-09    0.38169353E-05
   11   -0.19795805E+03   -0.43826276E-10    0.35064376E-06
   12   -0.19795805E+03   -0.42916781E-11    0.15170054E-06
   13   -0.19795805E+03    0.00000000E+00    0.18669065E-07
   14   -0.19795805E+03   -0.56843419E-13    0.21601476E-08

Total Energy:                     -190.4238579804 H        -5181.6968 eV
Extrapolated to 0K:               -190.4238579804 H        -5181.6968 eV
Total Mermin free energy:         -190.4238579804 H        -5181.6968 eV
Force related energy:             -190.4238579804 H        -5181.6968 eV

Volume:                              0.913789E+04 au^3   0.135410E+04 A^3
Pressure:                            0.249515E-02 au     0.734099E+11 Pa
>> Charges saved for restart in charges.bin

total energy  -1.9042386E+02 H       energy change -1.9042386E+02 H
gradient norm  2.3330344E+00 H/a0    max. gradient  1.3917225E+00 H/a0
step length    0.0000000E+00 a0      max. step      0.0000000E+00 a0

--------------------------------------------------------------------------------

***  Geometry step: 1

 iSCC Total electronic   Diff electronic      SCC error    
    1   -0.19795805E+03    0.00000000E+00    0.13968211E+00
    2   -0.19726315E+03    0.69489649E+00    0.62063158E-01
    3   -0.19727950E+03   -0.16352287E-01    0.20260909E-01
    4   -0.19728238E+03   -0.28741691E-02    0.21423279E-02
    5   -0.19728245E+03   -0.78936125E-04    0.87018463E-03
    6   -0.19728246E+03   -0.42014186E-05    0.24105204E-03
    7   -0.19728246E+03   -0.14724151E-06    0.26963792E-04
    8   -0.19728246E+03   -0.19949368E-07    0.63116581E-05
    9   -0.19728246E+03   -0.98879127E-09    0.21061959E-05
   10   -0.19728246E+03   -0.16655122E-10    0.60539322E-06
   11   -0.19728246E+03   -0.68212103E-12    0.12290686E-06
   12   -0.19728246E+03   -0.22737368E-12    0.30110119E-07
   13   -0.19728246E+03   -0.28421709E-13    0.34252174E-08

Total Energy:                     -191.1581867592 H        -5201.6789 eV
Extrapolated to 0K:               -191.1581867592 H        -5201.6789 eV
Total Mermin free energy:         -191.1581867592 H        -5201.6789 eV
Force related energy:             -191.1581867592 H        -5201.6789 eV

Volume:                              0.972450E+04 au^3   0.144102E+04 A^3
Pressure:                            0.176069E-02 au     0.518013E+11 Pa
>> Charges saved for restart in charges.bin

total energy  -1.9115819E+02 H       energy change -7.3432878E-01 H
gradient norm  1.4948649E+00 H/a0    max. gradient  2.7353389E-01 H/a0
step length    8.0839408E-01 a0      max. step      4.8223046E-01 a0

--------------------------------------------------------------------------------

***  Geometry step: 2

 iSCC Total electronic   Diff electronic      SCC error    
    1   -0.19728246E+03    0.00000000E+00    0.48958423E-01
    2   -0.19692675E+03    0.35571290E+00    0.25528211E-01
    3   -0.19693013E+03   -0.33850086E-02    0.69039603E-02
    4   -0.19693080E+03   -0.66978381E-03    0.90444091E-03
    5   -0.19693082E+03   -0.18479915E-04    0.27107509E-03
    6   -0.19693082E+03   -0.12173547E-05    0.11994784E-03
    7   -0.19693082E+03   -0.20703084E-07    0.27517562E-04
    8   -0.19693082E+03   -0.23446773E-08    0.52212028E-05
    9   -0.19693082E+03   -0.23862867E-09    0.11990024E-05
   10   -0.19693082E+03   -0.38653525E-11    0.32554871E-06
   11   -0.19693082E+03   -0.17053026E-12    0.65782202E-07
   12   -0.19693082E+03   -0.28421709E-13    0.83665981E-08

Total Energy:                     -191.9604948068 H        -5223.5108 eV
Extrapolated to 0K:               -191.9604948068 H        -5223.5108 eV
Total Mermin free energy:         -191.9604948068 H        -5223.5108 eV
Force related energy:             -191.9604948068 H        -5223.5108 eV

Volume:                              0.988832E+04 au^3   0.146530E+04 A^3
Pressure:                            0.128888E-02 au     0.379200E+11 Pa
>> Charges saved for restart in charges.bin

total energy  -1.9196049E+02 H       energy change -8.0230805E-01 H
gradient norm  9.5184746E-01 H/a0    max. gradient  1.6657870E-01 H/a0
step length    7.4650431E-01 a0      max. step      1.5056598E-01 a0

--------------------------------------------------------------------------------

***  Geometry step: 3

 iSCC Total electronic   Diff electronic      SCC error    
    1   -0.19693082E+03    0.00000000E+00    0.72789478E-01
    2   -0.19654766E+03    0.38315734E+00    0.30378370E-01
    3   -0.19655231E+03   -0.46428481E-02    0.11166202E-01
    4   -0.19655316E+03   -0.85753741E-03    0.13608838E-02
    5   -0.19655320E+03   -0.36815978E-04    0.31460149E-03
    6   -0.19655320E+03   -0.24748011E-05    0.11902255E-03
    7   -0.19655320E+03   -0.37061881E-07    0.22514363E-04
    8   -0.19655320E+03   -0.31942875E-08    0.35001918E-05
    9   -0.19655320E+03   -0.45247361E-09    0.96602273E-06
   10   -0.19655320E+03   -0.12363444E-10    0.44834348E-06
   11   -0.19655320E+03   -0.17053026E-12    0.11962427E-06
   12   -0.19655320E+03   -0.28421709E-13    0.21599603E-07
   13   -0.19655320E+03    0.28421709E-13    0.29922158E-08

Total Energy:                     -192.5066551736 H        -5238.3726 eV
Extrapolated to 0K:               -192.5066551736 H        -5238.3726 eV
Total Mermin free energy:         -192.5066551736 H        -5238.3726 eV
Force related energy:             -192.5066551736 H        -5238.3726 eV

Volume:                              0.100212E+05 au^3   0.148499E+04 A^3
Pressure:                            0.919391E-03 au     0.270494E+11 Pa
>> Charges saved for restart in charges.bin

total energy  -1.9250666E+02 H       energy change -5.4616037E-01 H
gradient norm  5.9293030E-01 H/a0    max. gradient  1.5174907E-01 H/a0
step length    7.8617829E-01 a0      max. step      1.7152256E-01 a0

--------------------------------------------------------------------------------

***  Geometry step: 4

 iSCC Total electronic   Diff electronic      SCC error    
    1   -0.19655320E+03    0.00000000E+00    0.66824129E-01
    2   -0.19616312E+03    0.39008049E+00    0.32384530E-01
    3   -0.19616564E+03   -0.25226806E-02    0.65604755E-02
    4   -0.19616622E+03   -0.57567474E-03    0.99783270E-03
    5   -0.19616625E+03   -0.33243404E-04    0.31901030E-03
    6   -0.19616625E+03   -0.12740247E-05    0.11784056E-03
    7   -0.19616625E+03   -0.27439995E-07    0.39347035E-04
    8   -0.19616625E+03   -0.21738060E-08    0.97990301E-05
    9   -0.19616625E+03   -0.31559466E-09    0.20058842E-05
   10   -0.19616625E+03   -0.99760200E-11    0.26529296E-06
   11   -0.19616625E+03   -0.59685590E-12    0.89154055E-07
   12   -0.19616625E+03   -0.85265128E-13    0.21334800E-07
   13   -0.19616625E+03   -0.28421709E-13    0.29371656E-08

Total Energy:                     -192.8139936285 H        -5246.7357 eV
Extrapolated to 0K:               -192.8139936285 H        -5246.7357 eV
Total Mermin free energy:         -192.8139936285 H        -5246.7357 eV
Force related energy:             -192.8139936285 H        -5246.7357 eV

Volume:                              0.101558E+05 au^3   0.150494E+04 A^3
Pressure:                            0.640042E-03 au     0.188307E+11 Pa
>> Charges saved for restart in charges.bin

total energy  -1.9281399E+02 H       energy change -3.0733845E-01 H
gradient norm  4.4665344E-01 H/a0    max. gradient  2.5019736E-01 H/a0
step length    7.2878922E-01 a0      max. step      1.4688691E-01 a0

--------------------------------------------------------------------------------

***  Geometry step: 5

 iSCC Total electronic   Diff electronic      SCC error    
    1   -0.19616625E+03    0.00000000E+00    0.65613703E-01
    2   -0.19573058E+03    0.43567314E+00    0.40276936E-01
    3   -0.19573265E+03   -0.20661124E-02    0.72721000E-02
    4   -0.19573313E+03   -0.48160409E-03    0.11591756E-02
    5   -0.19573316E+03   -0.30087493E-04    0.25780038E-03
    6   -0.19573316E+03   -0.76862710E-06    0.68020897E-04
    7   -0.19573316E+03   -0.17812397E-07    0.17297297E-04
    8   -0.19573316E+03   -0.12510384E-08    0.55388041E-05
    9   -0.19573316E+03   -0.10700774E-09    0.18140811E-05
   10   -0.19573316E+03   -0.65085715E-11    0.24946458E-06
   11   -0.19573316E+03   -0.36948222E-12    0.36330848E-07
   12   -0.19573316E+03    0.00000000E+00    0.87261371E-08

Total Energy:                     -192.9917218631 H        -5251.5719 eV
Extrapolated to 0K:               -192.9917218631 H        -5251.5719 eV
Total Mermin free energy:         -192.9917218631 H        -5251.5719 eV
Force related energy:             -192.9917218631 H        -5251.5719 eV

Volume:                              0.103577E+05 au^3   0.153485E+04 A^3
Pressure:                            0.386856E-03 au     0.113817E+11 Pa
>> Charges saved for restart in charges.bin

total energy  -1.9299172E+02 H       energy change -1.7772823E-01 H
gradient norm  3.2222534E-01 H/a0    max. gradient  1.7017890E-01 H/a0
step length    6.9283295E-01 a0      max. step      2.3540516E-01 a0

--------------------------------------------------------------------------------

***  Geometry step: 6

 iSCC Total electronic   Diff electronic      SCC error    
    1   -0.19573316E+03    0.00000000E+00    0.49719453E-01
    2   -0.19540293E+03    0.33022831E+00    0.27519065E-01
    3   -0.19540434E+03   -0.14117090E-02    0.46980389E-02
    4   -0.19540464E+03   -0.29295437E-03    0.71720952E-03
    5   -0.19540465E+03   -0.14848267E-04    0.23110365E-03
    6   -0.19540465E+03   -0.56696942E-06    0.96970318E-04
    7   -0.19540465E+03   -0.80568441E-08    0.26712362E-04
    8   -0.19540465E+03   -0.68996542E-09    0.60572115E-05
    9   -0.19540465E+03   -0.11235102E-09    0.13477614E-05
   10   -0.19540465E+03   -0.40358827E-11    0.16773786E-06
   11   -0.19540465E+03   -0.42632564E-12    0.23976990E-07
   12   -0.19540465E+03   -0.28421709E-13    0.57671552E-08

Total Energy:                     -193.0736169177 H        -5253.8004 eV
Extrapolated to 0K:               -193.0736169177 H        -5253.8004 eV
Total Mermin free energy:         -193.0736169177 H        -5253.8004 eV
Force related energy:             -193.0736169177 H        -5253.8004 eV

Volume:                              0.105128E+05 au^3   0.155784E+04 A^3
Pressure:                            0.223065E-03 au     0.656279E+10 Pa
>> Charges saved for restart in charges.bin

total energy  -1.9307362E+02 H       energy change -8.1895055E-02 H
gradient norm  1.9934544E-01 H/a0    max. gradient  1.0003855E-01 H/a0
step length    5.5758049E-01 a0      max. step      1.1734835E-01 a0

--------------------------------------------------------------------------------

***  Geometry step: 7

 iSCC Total electronic   Diff electronic      SCC error    
    1   -0.19540465E+03    0.00000000E+00    0.38219632E-01
    2   -0.19520968E+03    0.19497179E+00    0.16483440E-01
    3   -0.19521070E+03   -0.10205753E-02    0.28972134E-02
    4   -0.19521087E+03   -0.17027358E-03    0.75480644E-03
    5   -0.19521088E+03   -0.50604766E-05    0.27522232E-03
    6   -0.19521088E+03   -0.31469060E-06    0.88293316E-04
    7   -0.19521088E+03   -0.71093496E-08    0.16364216E-04
    8   -0.19521088E+03   -0.74052764E-09    0.27898231E-05
    9   -0.19521088E+03   -0.66165740E-10    0.69540919E-06
   10   -0.19521088E+03   -0.38085091E-11    0.15444331E-06
   11   -0.19521088E+03   -0.11368684E-12    0.20100915E-07
   12   -0.19521088E+03   -0.28421709E-13    0.23580427E-08

Total Energy:                     -193.1121654276 H        -5254.8494 eV
Extrapolated to 0K:               -193.1121654276 H        -5254.8494 eV
Total Mermin free energy:         -193.1121654276 H        -5254.8494 eV
Force related energy:             -193.1121654276 H        -5254.8494 eV

Volume:                              0.105995E+05 au^3   0.157068E+04 A^3
Pressure:                            0.134354E-03 au     0.395282E+10 Pa
>> Charges saved for restart in charges.bin

total energy  -1.9311217E+02 H       energy change -3.8548510E-02 H
gradient norm  1.4380790E-01 H/a0    max. gradient  4.7582616E-02 H/a0
step length    4.4282145E-01 a0      max. step      7.9156136E-02 a0

--------------------------------------------------------------------------------

***  Geometry step: 8

 iSCC Total electronic   Diff electronic      SCC error    
    1   -0.19521088E+03    0.00000000E+00    0.14219396E-01
    2   -0.19510582E+03    0.10505482E+00    0.71819365E-02
    3   -0.19510609E+03   -0.26532554E-03    0.18529323E-02
    4   -0.19510614E+03   -0.49039941E-04    0.31584333E-03
    5   -0.19510614E+03   -0.13611356E-05    0.72064345E-04
    6   -0.19510614E+03   -0.78743739E-07    0.25690801E-04
    7   -0.19510614E+03   -0.39895554E-08    0.93077297E-05
    8   -0.19510614E+03   -0.16322588E-09    0.28354032E-05
    9   -0.19510614E+03   -0.99760200E-11    0.69079145E-06
   10   -0.19510614E+03   -0.90949470E-12    0.83880110E-07
   11   -0.19510614E+03   -0.14210855E-12    0.14160077E-07
   12   -0.19510614E+03    0.56843419E-13    0.31248777E-08

Total Energy:                     -193.1357253803 H        -5255.4905 eV
Extrapolated to 0K:               -193.1357253803 H        -5255.4905 eV
Total Mermin free energy:         -193.1357253803 H        -5255.4905 eV
Force related energy:             -193.1357253803 H        -5255.4905 eV

Volume:                              0.106590E+05 au^3   0.157950E+04 A^3
Pressure:                            0.793049E-04 au     0.233323E+10 Pa
>> Charges saved for restart in charges.bin

total energy  -1.9313573E+02 H       energy change -2.3559953E-02 H
gradient norm  1.1257390E-01 H/a0    max. gradient  2.6921211E-02 H/a0
step length    3.5496377E-01 a0      max. step      7.3270998E-02 a0

--------------------------------------------------------------------------------

***  Geometry step: 9

 iSCC Total electronic   Diff electronic      SCC error    
    1   -0.19510614E+03    0.00000000E+00    0.22838415E-01
    2   -0.19508726E+03    0.18882408E-01    0.13284810E-01
    3   -0.19508760E+03   -0.34178923E-03    0.34938915E-02
    4   -0.19508765E+03   -0.55302889E-04    0.39911469E-03
    5   -0.19508765E+03   -0.21982311E-05    0.51101086E-04
    6   -0.19508765E+03   -0.23159294E-06    0.17235811E-04
    7   -0.19508765E+03   -0.29681644E-08    0.61018646E-05
    8   -0.19508765E+03   -0.10982149E-09    0.18660722E-05
    9   -0.19508765E+03   -0.68212103E-11    0.37907958E-06
   10   -0.19508765E+03   -0.82422957E-12    0.10583519E-06
   11   -0.19508765E+03   -0.28421709E-13    0.21199974E-07
   12   -0.19508765E+03    0.00000000E+00    0.13167294E-08

Total Energy:                     -193.1583818636 H        -5256.1070 eV
Extrapolated to 0K:               -193.1583818636 H        -5256.1070 eV
Total Mermin free energy:         -193.1583818636 H        -5256.1070 eV
Force related energy:             -193.1583818636 H        -5256.1070 eV

Volume:                              0.106862E+05 au^3   0.158353E+04 A^3
Pressure:                            0.578838E-04 au     0.170300E+10 Pa
>> Charges saved for restart in charges.bin

total energy  -1.9315838E+02 H       energy change -2.2656483E-02 H
gradient norm  9.4659965E-02 H/a0    max. gradient  1.8241056E-02 H/a0
step length    3.8370683E-01 a0      max. step      7.2905224E-02 a0

--------------------------------------------------------------------------------

***  Geometry step: 10

 iSCC Total electronic   Diff electronic      SCC error    
    1   -0.19508765E+03    0.00000000E+00    0.29952724E-01
    2   -0.19512760E+03   -0.39949456E-01    0.17419995E-01
    3   -0.19512812E+03   -0.51682495E-03    0.28204471E-02
    4   -0.19512823E+03   -0.11328985E-03    0.41619307E-03
    5   -0.19512824E+03   -0.57712970E-05    0.96585348E-04
    6   -0.19512824E+03   -0.19198581E-06    0.36853294E-04
    7   -0.19512824E+03   -0.55161422E-08    0.78606958E-05
    8   -0.19512824E+03   -0.21464075E-09    0.19459899E-05
    9   -0.19512824E+03   -0.18815172E-10    0.47839101E-06
   10   -0.19512824E+03   -0.22168933E-11    0.11129210E-06
   11   -0.19512824E+03   -0.56843419E-13    0.10868422E-07
   12   -0.19512824E+03    0.85265128E-13    0.22545548E-08

Total Energy:                     -193.1772679961 H        -5256.6209 eV
Extrapolated to 0K:               -193.1772679961 H        -5256.6209 eV
Total Mermin free energy:         -193.1772679961 H        -5256.6209 eV
Force related energy:             -193.1772679961 H        -5256.6209 eV

Volume:                              0.106985E+05 au^3   0.158535E+04 A^3
Pressure:                            0.628991E-04 au     0.185056E+10 Pa
>> Charges saved for restart in charges.bin

total energy  -1.9317727E+02 H       energy change -1.8886132E-02 H
gradient norm  9.9692950E-02 H/a0    max. gradient  4.6099800E-02 H/a0
step length    4.2816895E-01 a0      max. step      7.0357219E-02 a0

--------------------------------------------------------------------------------

***  Geometry step: 11

 iSCC Total electronic   Diff electronic      SCC error    
    1   -0.19512824E+03    0.00000000E+00    0.22266167E-01
    2   -0.19517093E+03   -0.42686815E-01    0.13492498E-01
    3   -0.19517138E+03   -0.45770523E-03    0.28669571E-02
    4   -0.19517147E+03   -0.85378033E-04    0.49102193E-03
    5   -0.19517147E+03   -0.44550638E-05    0.17189714E-03
    6   -0.19517147E+03   -0.25866652E-06    0.57794242E-04
    7   -0.19517147E+03   -0.67083761E-08    0.10653589E-04
    8   -0.19517147E+03   -0.26298608E-09    0.19803017E-05
    9   -0.19517147E+03   -0.27000624E-10    0.28679409E-06
   10   -0.19517147E+03   -0.31263880E-11    0.67301616E-07
   11   -0.19517147E+03   -0.19895197E-12    0.13310689E-07
   12   -0.19517147E+03    0.28421709E-13    0.24114581E-08

Total Energy:                     -193.1874291175 H        -5256.8974 eV
Extrapolated to 0K:               -193.1874291175 H        -5256.8974 eV
Total Mermin free energy:         -193.1874291175 H        -5256.8974 eV
Force related energy:             -193.1874291175 H        -5256.8974 eV

Volume:                              0.107044E+05 au^3   0.158622E+04 A^3
Pressure:                            0.705184E-04 au     0.207472E+10 Pa
>> Charges saved for restart in charges.bin

total energy  -1.9318743E+02 H       energy change -1.0161121E-02 H
gradient norm  8.7810016E-02 H/a0    max. gradient  2.4489804E-02 H/a0
step length    3.1419570E-01 a0      max. step      4.6081850E-02 a0

--------------------------------------------------------------------------------

***  Geometry step: 12

 iSCC Total electronic   Diff electronic      SCC error    
    1   -0.19517147E+03    0.00000000E+00    0.17985590E-01
    2   -0.19519462E+03   -0.23148224E-01    0.10650030E-01
    3   -0.19519473E+03   -0.10713143E-03    0.14358871E-02
    4   -0.19519476E+03   -0.28199820E-04    0.40401911E-03
    5   -0.19519476E+03   -0.14643195E-05    0.15026346E-03
    6   -0.19519476E+03   -0.36345853E-07    0.30779357E-04
    7   -0.19519476E+03   -0.13806130E-08    0.26517026E-05
    8   -0.19519476E+03   -0.18835067E-09    0.51374453E-06
    9   -0.19519476E+03   -0.65369932E-11    0.12730595E-06
   10   -0.19519476E+03   -0.36948222E-12    0.24627338E-07
   11   -0.19519476E+03   -0.56843419E-13    0.27607863E-08

Total Energy:                     -193.1961340919 H        -5257.1343 eV
Extrapolated to 0K:               -193.1961340919 H        -5257.1343 eV
Total Mermin free energy:         -193.1961340919 H        -5257.1343 eV
Force related energy:             -193.1961340919 H        -5257.1343 eV

Volume:                              0.107222E+05 au^3   0.158886E+04 A^3
Pressure:                            0.720369E-04 au     0.211940E+10 Pa
>> Charges saved for restart in charges.bin

total energy  -1.9319613E+02 H       energy change -8.7049744E-03 H
gradient norm  7.3094759E-02 H/a0    max. gradient  1.4624634E-02 H/a0
step length    2.4479111E-01 a0      max. step      3.9454996E-02 a0

--------------------------------------------------------------------------------

***  Geometry step: 13

 iSCC Total electronic   Diff electronic      SCC error    
    1   -0.19519476E+03    0.00000000E+00    0.22332532E-01
    2   -0.19520833E+03   -0.13565798E-01    0.12947404E-01
    3   -0.19520850E+03   -0.17711796E-03    0.23605568E-02
    4   -0.19520855E+03   -0.46351599E-04    0.57715527E-03
    5   -0.19520855E+03   -0.25751791E-05    0.17188863E-03
    6   -0.19520855E+03   -0.73121157E-07    0.41554726E-04
    7   -0.19520855E+03   -0.21639721E-08    0.31477589E-05
    8   -0.19520855E+03   -0.34899017E-09    0.76206759E-06
    9   -0.19520855E+03   -0.13102408E-10    0.21212735E-06
   10   -0.19520855E+03   -0.51159077E-12    0.28641450E-07
   11   -0.19520855E+03   -0.56843419E-13    0.36239087E-08

Total Energy:                     -193.2074435119 H        -5257.4420 eV
Extrapolated to 0K:               -193.2074435119 H        -5257.4420 eV
Total Mermin free energy:         -193.2074435119 H        -5257.4420 eV
Force related energy:             -193.2074435119 H        -5257.4420 eV

Volume:                              0.107636E+05 au^3   0.159501E+04 A^3
Pressure:                            0.683045E-04 au     0.200959E+10 Pa
>> Charges saved for restart in charges.bin

total energy  -1.9320744E+02 H       energy change -1.1309420E-02 H
gradient norm  6.5199255E-02 H/a0    max. gradient  1.3120232E-02 H/a0
step length    3.4657754E-01 a0      max. step      5.9681720E-02 a0

--------------------------------------------------------------------------------

***  Geometry step: 14

 iSCC Total electronic   Diff electronic      SCC error    
    1   -0.19520855E+03    0.00000000E+00    0.14656542E-01
    2   -0.19519299E+03    0.15565098E-01    0.91011714E-02
    3   -0.19519309E+03   -0.10464409E-03    0.21011403E-02
    4   -0.19519312E+03   -0.24605177E-04    0.41832487E-03
    5   -0.19519312E+03   -0.13517067E-05    0.14161254E-03
    6   -0.19519312E+03   -0.48789730E-07    0.30019095E-04
    7   -0.19519312E+03   -0.14037482E-08    0.35598253E-05
    8   -0.19519312E+03   -0.16945023E-09    0.66677425E-06
    9   -0.19519312E+03   -0.10345502E-10    0.24765174E-06
   10   -0.19519312E+03   -0.42632564E-12    0.33384310E-07
   11   -0.19519312E+03    0.00000000E+00    0.42898605E-08

Total Energy:                     -193.2145821558 H        -5257.6363 eV
Extrapolated to 0K:               -193.2145821558 H        -5257.6363 eV
Total Mermin free energy:         -193.2145821558 H        -5257.6363 eV
Force related energy:             -193.2145821558 H        -5257.6363 eV

Volume:                              0.108137E+05 au^3   0.160242E+04 A^3
Pressure:                            0.562980E-04 au     0.165634E+10 Pa
>> Charges saved for restart in charges.bin

total energy  -1.9321458E+02 H       energy change -7.1386439E-03 H
gradient norm  6.0650134E-02 H/a0    max. gradient  1.2662298E-02 H/a0
step length    2.8889021E-01 a0      max. step      5.1092577E-02 a0

--------------------------------------------------------------------------------

***  Geometry step: 15

 iSCC Total electronic   Diff electronic      SCC error    
    1   -0.19519312E+03    0.00000000E+00    0.10387716E-01
    2   -0.19516537E+03    0.27750461E-01    0.64731452E-02
    3   -0.19516543E+03   -0.60157758E-04    0.18143237E-02
    4   -0.19516544E+03   -0.12035530E-04    0.42011430E-03
    5   -0.19516544E+03   -0.64261241E-06    0.10446911E-03
    6   -0.19516544E+03   -0.36172707E-07    0.24535476E-04
    7   -0.19516544E+03   -0.87672447E-09    0.31487730E-05
    8   -0.19516544E+03   -0.10930989E-09    0.66040711E-06
    9   -0.19516544E+03   -0.65938366E-11    0.28133084E-06
   10   -0.19516544E+03   -0.19895197E-12    0.35669085E-07
   11   -0.19516544E+03    0.28421709E-13    0.37235344E-08

Total Energy:                     -193.2198883735 H        -5257.7807 eV
Extrapolated to 0K:               -193.2198883735 H        -5257.7807 eV
Total Mermin free energy:         -193.2198883735 H        -5257.7807 eV
Force related energy:             -193.2198883735 H        -5257.7807 eV

Volume:                              0.108664E+05 au^3   0.161024E+04 A^3
Pressure:                            0.399128E-04 au     0.117428E+10 Pa
>> Charges saved for restart in charges.bin

total energy  -1.9321989E+02 H       energy change -5.3062176E-03 H
gradient norm  5.2409090E-02 H/a0    max. gradient  8.5243539E-03 H/a0
step length    2.6947245E-01 a0      max. step      4.9971535E-02 a0

--------------------------------------------------------------------------------

***  Geometry step: 16

 iSCC Total electronic   Diff electronic      SCC error    
    1   -0.19516544E+03    0.00000000E+00    0.63062282E-02
    2   -0.19514302E+03    0.22418303E-01    0.35666455E-02
    3   -0.19514307E+03   -0.45170276E-04    0.12638293E-02
    4   -0.19514307E+03   -0.71743965E-05    0.27541115E-03
    5   -0.19514307E+03   -0.32567954E-06    0.90418105E-04
    6   -0.19514307E+03   -0.19523014E-07    0.22912497E-04
    7   -0.19514307E+03   -0.61558580E-09    0.26116615E-05
    8   -0.19514307E+03   -0.59259264E-10    0.48252686E-06
    9   -0.19514307E+03   -0.40927262E-11    0.18451509E-06
   10   -0.19514307E+03   -0.19895197E-12    0.28144832E-07
   11   -0.19514307E+03    0.00000000E+00    0.31446681E-08

Total Energy:                     -193.2245691204 H        -5257.9080 eV
Extrapolated to 0K:               -193.2245691204 H        -5257.9080 eV
Total Mermin free energy:         -193.2245691204 H        -5257.9080 eV
Force related energy:             -193.2245691204 H        -5257.9080 eV

Volume:                              0.109144E+05 au^3   0.161735E+04 A^3
Pressure:                            0.248218E-04 au     0.730283E+09 Pa
>> Charges saved for restart in charges.bin

total energy  -1.9322457E+02 H       energy change -4.6807469E-03 H
gradient norm  4.9023692E-02 H/a0    max. gradient  9.5831451E-03 H/a0
step length    2.5950823E-01 a0      max. step      4.9584044E-02 a0

--------------------------------------------------------------------------------

***  Geometry step: 17

 iSCC Total electronic   Diff electronic      SCC error    
    1   -0.19514307E+03    0.00000000E+00    0.99805227E-02
    2   -0.19514259E+03    0.48631270E-03    0.57652846E-02
    3   -0.19514263E+03   -0.46024760E-04    0.14086629E-02
    4   -0.19514264E+03   -0.71879022E-05    0.16417703E-03
    5   -0.19514264E+03   -0.41474993E-06    0.69172988E-04
    6   -0.19514264E+03   -0.20097332E-07    0.21584236E-04
    7   -0.19514264E+03   -0.55092642E-09    0.36416632E-05
    8   -0.19514264E+03   -0.34759751E-10    0.88276442E-06
    9   -0.19514264E+03   -0.26147973E-11    0.19178478E-06
   10   -0.19514264E+03   -0.11368684E-12    0.22477717E-07
   11   -0.19514264E+03   -0.56843419E-13    0.33401388E-08

Total Energy:                     -193.2292389537 H        -5258.0351 eV
Extrapolated to 0K:               -193.2292389537 H        -5258.0351 eV
Total Mermin free energy:         -193.2292389537 H        -5258.0351 eV
Force related energy:             -193.2292389537 H        -5258.0351 eV

Volume:                              0.109496E+05 au^3   0.162256E+04 A^3
Pressure:                            0.193226E-04 au     0.568490E+09 Pa
>> Charges saved for restart in charges.bin

total energy  -1.9322924E+02 H       energy change -4.6698332E-03 H
gradient norm  5.2925641E-02 H/a0    max. gradient  9.7357242E-03 H/a0
step length    2.5559096E-01 a0      max. step      4.6188731E-02 a0

--------------------------------------------------------------------------------

***  Geometry step: 18

 iSCC Total electronic   Diff electronic      SCC error    
    1   -0.19514264E+03    0.00000000E+00    0.14269589E-01
    2   -0.19515705E+03   -0.14410719E-01    0.83167706E-02
    3   -0.19515714E+03   -0.85476987E-04    0.21124069E-02
    4   -0.19515715E+03   -0.13257151E-04    0.19646677E-03
    5   -0.19515715E+03   -0.73891673E-06    0.54995694E-04
    6   -0.19515715E+03   -0.36799293E-07    0.21112023E-04
    7   -0.19515715E+03   -0.74996365E-09    0.46897184E-05
    8   -0.19515715E+03   -0.39364068E-10    0.15789488E-05
    9   -0.19515715E+03   -0.22168933E-11    0.35388008E-06
   10   -0.19515715E+03   -0.34106051E-12    0.24185799E-07
   11   -0.19515715E+03    0.00000000E+00    0.50122528E-08

Total Energy:                     -193.2344143717 H        -5258.1759 eV
Extrapolated to 0K:               -193.2344143717 H        -5258.1759 eV
Total Mermin free energy:         -193.2344143717 H        -5258.1759 eV
Force related energy:             -193.2344143717 H        -5258.1759 eV

Volume:                              0.109801E+05 au^3   0.162708E+04 A^3
Pressure:                            0.210942E-04 au     0.620612E+09 Pa
>> Charges saved for restart in charges.bin

total energy  -1.9323441E+02 H       energy change -5.1754181E-03 H
gradient norm  5.4319759E-02 H/a0    max. gradient  1.0436307E-02 H/a0
step length    2.9278987E-01 a0      max. step      5.0043403E-02 a0

--------------------------------------------------------------------------------

***  Geometry step: 19

 iSCC Total electronic   Diff electronic      SCC error    
    1   -0.19515715E+03    0.00000000E+00    0.13054413E-01
    2   -0.19517508E+03   -0.17932832E-01    0.76095377E-02
    3   -0.19517520E+03   -0.11485188E-03    0.22363004E-02
    4   -0.19517522E+03   -0.16165883E-04    0.29169130E-03
    5   -0.19517522E+03   -0.79100161E-06    0.10595643E-03
    6   -0.19517522E+03   -0.52106344E-07    0.35754241E-04
    7   -0.19517522E+03   -0.11851569E-08    0.51859295E-05
    8   -0.19517522E+03   -0.94047437E-10    0.11568281E-05
    9   -0.19517522E+03   -0.50022209E-11    0.31708701E-06
   10   -0.19517522E+03   -0.51159077E-12    0.35634135E-07
   11   -0.19517522E+03    0.00000000E+00    0.63112218E-08

Total Energy:                     -193.2393343629 H        -5258.3098 eV
Extrapolated to 0K:               -193.2393343629 H        -5258.3098 eV
Total Mermin free energy:         -193.2393343629 H        -5258.3098 eV
Force related energy:             -193.2393343629 H        -5258.3098 eV

Volume:                              0.110112E+05 au^3   0.163170E+04 A^3
Pressure:                            0.249260E-04 au     0.733349E+09 Pa
>> Charges saved for restart in charges.bin

total energy  -1.9323933E+02 H       energy change -4.9199911E-03 H
gradient norm  5.0072995E-02 H/a0    max. gradient  9.9864090E-03 H/a0
step length    3.2325414E-01 a0      max. step      5.7820088E-02 a0

--------------------------------------------------------------------------------

***  Geometry step: 20

 iSCC Total electronic   Diff electronic      SCC error    
    1   -0.19517522E+03    0.00000000E+00    0.10118803E-01
    2   -0.19518622E+03   -0.10999044E-01    0.49034767E-02
    3   -0.19518633E+03   -0.11405762E-03    0.20932251E-02
    4   -0.19518634E+03   -0.13391124E-04    0.40177973E-03
    5   -0.19518634E+03   -0.57731339E-06    0.10445195E-03
    6   -0.19518634E+03   -0.45182446E-07    0.28314918E-04
    7   -0.19518634E+03   -0.13565966E-08    0.34105810E-05
    8   -0.19518634E+03   -0.10246026E-09    0.11060379E-05
    9   -0.19518634E+03   -0.57980287E-11    0.31895738E-06
   10   -0.19518634E+03   -0.59685590E-12    0.31183788E-07
   11   -0.19518634E+03    0.00000000E+00    0.34333993E-08

Total Energy:                     -193.2438360513 H        -5258.4323 eV
Extrapolated to 0K:               -193.2438360513 H        -5258.4323 eV
Total Mermin free energy:         -193.2438360513 H        -5258.4323 eV
Force related energy:             -193.2438360513 H        -5258.4323 eV

Volume:                              0.110468E+05 au^3   0.163697E+04 A^3
Pressure:                            0.262061E-04 au     0.771011E+09 Pa
>> Charges saved for restart in charges.bin

total energy  -1.9324384E+02 H       energy change -4.5016885E-03 H
gradient norm  4.4050352E-02 H/a0    max. gradient  9.8256713E-03 H/a0
step length    3.2863409E-01 a0      max. step      5.8054281E-02 a0

--------------------------------------------------------------------------------

***  Geometry step: 21

 iSCC Total electronic   Diff electronic      SCC error    
    1   -0.19518634E+03    0.00000000E+00    0.10691373E-01
    2   -0.19518804E+03   -0.16951356E-02    0.57966959E-02
    3   -0.19518816E+03   -0.12479454E-03    0.23823848E-02
    4   -0.19518818E+03   -0.14869467E-04    0.45422252E-03
    5   -0.19518818E+03   -0.71274025E-06    0.11488654E-03
    6   -0.19518818E+03   -0.45791353E-07    0.25766204E-04
    7   -0.19518818E+03   -0.13234001E-08    0.31357487E-05
    8   -0.19518818E+03   -0.13784529E-09    0.10313257E-05
    9   -0.19518818E+03   -0.66791017E-11    0.29240664E-06
   10   -0.19518818E+03   -0.54001248E-12    0.33012213E-07
   11   -0.19518818E+03    0.28421709E-13    0.40174122E-08

Total Energy:                     -193.2479793531 H        -5258.5451 eV
Extrapolated to 0K:               -193.2479793531 H        -5258.5451 eV
Total Mermin free energy:         -193.2479793531 H        -5258.5451 eV
Force related energy:             -193.2479793531 H        -5258.5451 eV

Volume:                              0.110891E+05 au^3   0.164324E+04 A^3
Pressure:                            0.241047E-04 au     0.709183E+09 Pa
>> Charges saved for restart in charges.bin

total energy  -1.9324798E+02 H       energy change -4.1433018E-03 H
gradient norm  3.9577431E-02 H/a0    max. gradient  9.4903025E-03 H/a0
step length    3.4219047E-01 a0      max. step      5.8269477E-02 a0

--------------------------------------------------------------------------------

***  Geometry step: 22

 iSCC Total electronic   Diff electronic      SCC error    
    1   -0.19518818E+03    0.00000000E+00    0.86868784E-02
    2   -0.19518007E+03    0.81081760E-02    0.47355521E-02
    3   -0.19518013E+03   -0.60548481E-04    0.13006503E-02
    4   -0.19518014E+03   -0.94413396E-05    0.27835391E-03
    5   -0.19518014E+03   -0.49920803E-06    0.91521512E-04
    6   -0.19518014E+03   -0.23840670E-07    0.21818499E-04
    7   -0.19518014E+03   -0.71270279E-09    0.31984280E-05
    8   -0.19518014E+03   -0.66933126E-10    0.62337943E-06
    9   -0.19518014E+03   -0.42916781E-11    0.13954438E-06
   10   -0.19518014E+03   -0.22737368E-12    0.16408157E-07
   11   -0.19518014E+03   -0.28421709E-13    0.26318654E-08

Total Energy:                     -193.2504056271 H        -5258.6111 eV
Extrapolated to 0K:               -193.2504056271 H        -5258.6111 eV
Total Mermin free energy:         -193.2504056271 H        -5258.6111 eV
Force related energy:             -193.2504056271 H        -5258.6111 eV

Volume:                              0.111259E+05 au^3   0.164868E+04 A^3
Pressure:                            0.190976E-04 au     0.561872E+09 Pa
>> Charges saved for restart in charges.bin

total energy  -1.9325041E+02 H       energy change -2.4262740E-03 H
gradient norm  3.5836194E-02 H/a0    max. gradient  8.1857746E-03 H/a0
step length    2.4722860E-01 a0      max. step      4.3505173E-02 a0

--------------------------------------------------------------------------------

***  Geometry step: 23

 iSCC Total electronic   Diff electronic      SCC error    
    1   -0.19518014E+03    0.00000000E+00    0.73885152E-02
    2   -0.19517012E+03    0.10016575E-01    0.40697422E-02
    3   -0.19517015E+03   -0.28644326E-04    0.80520499E-03
    4   -0.19517016E+03   -0.57872625E-05    0.79363158E-04
    5   -0.19517016E+03   -0.23330600E-06    0.28782444E-04
    6   -0.19517016E+03   -0.71232762E-08    0.11203040E-04
    7   -0.19517016E+03   -0.23501912E-09    0.30789259E-05
    8   -0.19517016E+03   -0.83559826E-11    0.64592630E-06
    9   -0.19517016E+03   -0.88107299E-12    0.78304458E-07
   10   -0.19517016E+03   -0.56843419E-13    0.17277033E-07
   11   -0.19517016E+03    0.56843419E-13    0.25112303E-08

Total Energy:                     -193.2517613547 H        -5258.6480 eV
Extrapolated to 0K:               -193.2517613547 H        -5258.6480 eV
Total Mermin free energy:         -193.2517613547 H        -5258.6480 eV
Force related energy:             -193.2517613547 H        -5258.6480 eV

Volume:                              0.111520E+05 au^3   0.165256E+04 A^3
Pressure:                            0.135992E-04 au     0.400101E+09 Pa
>> Charges saved for restart in charges.bin

total energy  -1.9325176E+02 H       energy change -1.3557275E-03 H
gradient norm  2.7351540E-02 H/a0    max. gradient  6.8321315E-03 H/a0
step length    1.4346990E-01 a0      max. step      2.5882685E-02 a0

--------------------------------------------------------------------------------

***  Geometry step: 24

 iSCC Total electronic   Diff electronic      SCC error    
    1   -0.19517016E+03    0.00000000E+00    0.46133190E-02
    2   -0.19516363E+03    0.65341650E-02    0.25752802E-02
    3   -0.19516365E+03   -0.24870875E-04    0.59747260E-03
    4   -0.19516365E+03   -0.46763309E-05    0.10611993E-03
    5   -0.19516365E+03   -0.13992562E-06    0.25817305E-04
    6   -0.19516365E+03   -0.77722291E-08    0.87873041E-05
    7   -0.19516365E+03   -0.14892976E-09    0.26382254E-05
    8   -0.19516365E+03   -0.41495696E-11    0.34326630E-06
    9   -0.19516365E+03   -0.59685590E-12    0.50246795E-07
   10   -0.19516365E+03    0.28421709E-13    0.11850191E-07
   11   -0.19516365E+03   -0.85265128E-13    0.30940974E-08

Total Energy:                     -193.2527056909 H        -5258.6737 eV
Extrapolated to 0K:               -193.2527056909 H        -5258.6737 eV
Total Mermin free energy:         -193.2527056909 H        -5258.6737 eV
Force related energy:             -193.2527056909 H        -5258.6737 eV

Volume:                              0.111696E+05 au^3   0.165517E+04 A^3
Pressure:                            0.939169E-05 au     0.276313E+09 Pa
>> Charges saved for restart in charges.bin

total energy  -1.9325271E+02 H       energy change -9.4433628E-04 H
gradient norm  2.2586020E-02 H/a0    max. gradient  7.0364295E-03 H/a0
step length    8.8302267E-02 a0      max. step      1.6669613E-02 a0

--------------------------------------------------------------------------------

***  Geometry step: 25

 iSCC Total electronic   Diff electronic      SCC error    
    1   -0.19516365E+03    0.00000000E+00    0.38608863E-02
    2   -0.19516268E+03    0.97926920E-03    0.21914293E-02
    3   -0.19516269E+03   -0.17220309E-04    0.70399774E-03
    4   -0.19516270E+03   -0.23454633E-05    0.12717028E-03
    5   -0.19516270E+03   -0.81736260E-07    0.37997304E-04
    6   -0.19516270E+03   -0.61394019E-08    0.10886965E-04
    7   -0.19516270E+03   -0.13784529E-09    0.11827083E-05
    8   -0.19516270E+03   -0.91233687E-11    0.24895315E-06
    9   -0.19516270E+03   -0.65369932E-12    0.44018602E-07
   10   -0.19516270E+03   -0.28421709E-13    0.11160504E-07
   11   -0.19516270E+03    0.00000000E+00    0.21123583E-08

Total Energy:                     -193.2534332385 H        -5258.6935 eV
Extrapolated to 0K:               -193.2534332385 H        -5258.6935 eV
Total Mermin free energy:         -193.2534332385 H        -5258.6935 eV
Force related energy:             -193.2534332385 H        -5258.6935 eV

Volume:                              0.111825E+05 au^3   0.165708E+04 A^3
Pressure:                            0.784624E-05 au     0.230844E+09 Pa
>> Charges saved for restart in charges.bin

total energy  -1.9325343E+02 H       energy change -7.2754759E-04 H
gradient norm  2.3623240E-02 H/a0    max. gradient  6.7474802E-03 H/a0
step length    7.1444872E-02 a0      max. step      1.7125474E-02 a0

--------------------------------------------------------------------------------

***  Geometry step: 26

 iSCC Total electronic   Diff electronic      SCC error    
    1   -0.19516270E+03    0.00000000E+00    0.56165247E-02
    2   -0.19516627E+03   -0.35757579E-02    0.32332480E-02
    3   -0.19516630E+03   -0.26472733E-04    0.10439028E-02
    4   -0.19516630E+03   -0.33383436E-05    0.17251702E-03
    5   -0.19516630E+03   -0.14426519E-06    0.51319950E-04
    6   -0.19516630E+03   -0.86562864E-08    0.13445519E-04
    7   -0.19516630E+03   -0.21091751E-09    0.96368441E-06
    8   -0.19516630E+03   -0.22112090E-10    0.26886217E-06
    9   -0.19516630E+03   -0.79580786E-12    0.80002989E-07
   10   -0.19516630E+03   -0.85265128E-13    0.12944814E-07
   11   -0.19516630E+03    0.00000000E+00    0.13128201E-08

Total Energy:                     -193.2543482960 H        -5258.7184 eV
Extrapolated to 0K:               -193.2543482960 H        -5258.7184 eV
Total Mermin free energy:         -193.2543482960 H        -5258.7184 eV
Force related energy:             -193.2543482960 H        -5258.7184 eV

Volume:                              0.112009E+05 au^3   0.165980E+04 A^3
Pressure:                            0.781009E-05 au     0.229781E+09 Pa
>> Charges saved for restart in charges.bin

total energy  -1.9325435E+02 H       energy change -9.1505745E-04 H
gradient norm  2.4048525E-02 H/a0    max. gradient  5.7914032E-03 H/a0
step length    1.0812977E-01 a0      max. step      2.7183839E-02 a0

--------------------------------------------------------------------------------

***  Geometry step: 27

 iSCC Total electronic   Diff electronic      SCC error    
    1   -0.19516630E+03    0.00000000E+00    0.53109902E-02
    2   -0.19517259E+03   -0.62898057E-02    0.26609879E-02
    3   -0.19517262E+03   -0.26338519E-04    0.10350633E-02
    4   -0.19517262E+03   -0.36246719E-05    0.17369760E-03
    5   -0.19517262E+03   -0.15856051E-06    0.49716080E-04
    6   -0.19517262E+03   -0.87222531E-08    0.12659245E-04
    7   -0.19517262E+03   -0.21381652E-09    0.12017546E-05
    8   -0.19517262E+03   -0.23618441E-10    0.41801678E-06
    9   -0.19517262E+03   -0.10800250E-11    0.11471833E-06
   10   -0.19517262E+03    0.28421709E-13    0.14008759E-07
   11   -0.19517262E+03   -0.28421709E-13    0.20224524E-08

Total Energy:                     -193.2552154467 H        -5258.7420 eV
Extrapolated to 0K:               -193.2552154467 H        -5258.7420 eV
Total Mermin free energy:         -193.2552154467 H        -5258.7420 eV
Force related energy:             -193.2552154467 H        -5258.7420 eV

Volume:                              0.112243E+05 au^3   0.166327E+04 A^3
Pressure:                            0.847327E-05 au     0.249292E+09 Pa
>> Charges saved for restart in charges.bin

total energy  -1.9325522E+02 H       energy change -8.6715072E-04 H
gradient norm  2.1667119E-02 H/a0    max. gradient  5.4639475E-03 H/a0
step length    1.3782889E-01 a0      max. step      3.3503146E-02 a0

--------------------------------------------------------------------------------

***  Geometry step: 28

 iSCC Total electronic   Diff electronic      SCC error    
    1   -0.19517262E+03    0.00000000E+00    0.42646403E-02
    2   -0.19517848E+03   -0.58600463E-02    0.23389460E-02
    3   -0.19517850E+03   -0.20478807E-04    0.85793169E-03
    4   -0.19517850E+03   -0.31575696E-05    0.15019013E-03
    5   -0.19517850E+03   -0.13577656E-06    0.43106162E-04
    6   -0.19517850E+03   -0.65568031E-08    0.10743884E-04
    7   -0.19517850E+03   -0.17598722E-09    0.15747571E-05
    8   -0.19517850E+03   -0.15802470E-10    0.36757654E-06
    9   -0.19517850E+03   -0.13073986E-11    0.10949012E-06
   10   -0.19517850E+03   -0.14210855E-12    0.16180126E-07
   11   -0.19517850E+03    0.17053026E-12    0.20237150E-08

Total Energy:                     -193.2559219726 H        -5258.7612 eV
Extrapolated to 0K:               -193.2559219726 H        -5258.7612 eV
Total Mermin free energy:         -193.2559219726 H        -5258.7612 eV
Force related energy:             -193.2559219726 H        -5258.7612 eV

Volume:                              0.112479E+05 au^3   0.166676E+04 A^3
Pressure:                            0.931508E-05 au     0.274059E+09 Pa
>> Charges saved for restart in charges.bin

total energy  -1.9325592E+02 H       energy change -7.0652593E-04 H
gradient norm  1.8341836E-02 H/a0    max. gradient  3.0086424E-03 H/a0
step length    1.3868398E-01 a0      max. step      3.2575014E-02 a0

--------------------------------------------------------------------------------

***  Geometry step: 29

 iSCC Total electronic   Diff electronic      SCC error    
    1   -0.19517850E+03    0.00000000E+00    0.39040485E-02
    2   -0.19518046E+03   -0.19574301E-02    0.22375812E-02
    3   -0.19518047E+03   -0.11957687E-04    0.51430949E-03
    4   -0.19518048E+03   -0.20447089E-05    0.87201921E-04
    5   -0.19518048E+03   -0.87686573E-07    0.31282554E-04
    6   -0.19518048E+03   -0.28584850E-08    0.81222399E-05
    7   -0.19518048E+03   -0.72958528E-10    0.15378008E-05
    8   -0.19518048E+03   -0.48601123E-11    0.18766900E-06
    9   -0.19518048E+03   -0.71054274E-12    0.53082475E-07
   10   -0.19518048E+03   -0.14210855E-12    0.10359039E-07
   11   -0.19518048E+03    0.14210855E-12    0.18317441E-08

Total Energy:                     -193.2564326463 H        -5258.7751 eV
Extrapolated to 0K:               -193.2564326463 H        -5258.7751 eV
Total Mermin free energy:         -193.2564326463 H        -5258.7751 eV
Force related energy:             -193.2564326463 H        -5258.7751 eV

Volume:                              0.112675E+05 au^3   0.166967E+04 A^3
Pressure:                            0.913355E-05 au     0.268718E+09 Pa
>> Charges saved for restart in charges.bin

total energy  -1.9325643E+02 H       energy change -5.1067371E-04 H
gradient norm  1.6566130E-02 H/a0    max. gradient  4.1103480E-03 H/a0
step length    1.1122893E-01 a0      max. step      2.5080298E-02 a0

--------------------------------------------------------------------------------

***  Geometry step: 30

 iSCC Total electronic   Diff electronic      SCC error    
    1   -0.19518048E+03    0.00000000E+00    0.36279617E-02
    2   -0.19517888E+03    0.15981019E-02    0.20713538E-02
    3   -0.19517889E+03   -0.75562705E-05    0.40746783E-03
    4   -0.19517889E+03   -0.14086386E-05    0.37277315E-04
    5   -0.19517889E+03   -0.70391906E-07    0.15022224E-04
    6   -0.19517889E+03   -0.12954899E-08    0.52241794E-05
    7   -0.19517889E+03   -0.20179414E-10    0.14235719E-05
    8   -0.19517889E+03   -0.68212103E-12    0.14091937E-06
    9   -0.19517889E+03   -0.25579538E-12    0.26458648E-07
   10   -0.19517889E+03    0.14210855E-12    0.47958220E-08

Total Energy:                     -193.2568320153 H        -5258.7860 eV
Extrapolated to 0K:               -193.2568320153 H        -5258.7860 eV
Total Mermin free energy:         -193.2568320153 H        -5258.7860 eV
Force related energy:             -193.2568320153 H        -5258.7860 eV

Volume:                              0.112830E+05 au^3   0.167197E+04 A^3
Pressure:                            0.796725E-05 au     0.234405E+09 Pa
>> Charges saved for restart in charges.bin

total energy  -1.9325683E+02 H       energy change -3.9936898E-04 H
gradient norm  1.5282169E-02 H/a0    max. gradient  4.7959037E-03 H/a0
step length    8.6441760E-02 a0      max. step      1.9050747E-02 a0

--------------------------------------------------------------------------------

***  Geometry step: 31

 iSCC Total electronic   Diff electronic      SCC error    
    1   -0.19517889E+03    0.00000000E+00    0.42413917E-02
    2   -0.19517462E+03    0.42719366E-02    0.24312655E-02
    3   -0.19517462E+03   -0.47052407E-05    0.39685043E-03
    4   -0.19517462E+03   -0.89723571E-06    0.36609369E-04
    5   -0.19517462E+03   -0.55366684E-07    0.13945933E-04
    6   -0.19517462E+03   -0.10492442E-08    0.36808785E-05
    7   -0.19517462E+03   -0.15887736E-10    0.99524854E-06
    8   -0.19517462E+03   -0.85265128E-12    0.17792844E-06
    9   -0.19517462E+03   -0.11368684E-12    0.30237900E-07
   10   -0.19517462E+03   -0.28421709E-13    0.48602593E-08

Total Energy:                     -193.2571693224 H        -5258.7951 eV
Extrapolated to 0K:               -193.2571693224 H        -5258.7951 eV
Total Mermin free energy:         -193.2571693224 H        -5258.7951 eV
Force related energy:             -193.2571693224 H        -5258.7951 eV

Volume:                              0.112950E+05 au^3   0.167375E+04 A^3
Pressure:                            0.581815E-05 au     0.171176E+09 Pa
>> Charges saved for restart in charges.bin

total energy  -1.9325717E+02 H       energy change -3.3730705E-04 H
gradient norm  1.4718334E-02 H/a0    max. gradient  4.5617223E-03 H/a0
step length    7.0671020E-02 a0      max. step      1.4666076E-02 a0

--------------------------------------------------------------------------------

***  Geometry step: 32

 iSCC Total electronic   Diff electronic      SCC error    
    1   -0.19517462E+03    0.00000000E+00    0.35682672E-02
    2   -0.19517089E+03    0.37283100E-02    0.20383574E-02
    3   -0.19517090E+03   -0.46381437E-05    0.41614549E-03
    4   -0.19517090E+03   -0.84263709E-06    0.66517090E-04
    5   -0.19517090E+03   -0.38198806E-07    0.18149252E-04
    6   -0.19517090E+03   -0.16554793E-08    0.43974850E-05
    7   -0.19517090E+03   -0.33793413E-10    0.94750420E-06
    8   -0.19517090E+03   -0.21032065E-11    0.15604772E-06
    9   -0.19517090E+03   -0.85265128E-13    0.33075314E-07
   10   -0.19517090E+03   -0.85265128E-13    0.38782391E-08

Total Energy:                     -193.2575020198 H        -5258.8042 eV
Extrapolated to 0K:               -193.2575020198 H        -5258.8042 eV
Total Mermin free energy:         -193.2575020198 H        -5258.8042 eV
Force related energy:             -193.2575020198 H        -5258.8042 eV

Volume:                              0.113030E+05 au^3   0.167493E+04 A^3
Pressure:                            0.403410E-05 au     0.118687E+09 Pa
>> Charges saved for restart in charges.bin

total energy  -1.9325750E+02 H       energy change -3.3269742E-04 H
gradient norm  1.4997020E-02 H/a0    max. gradient  3.1279686E-03 H/a0
step length    6.8409790E-02 a0      max. step      1.3396565E-02 a0

--------------------------------------------------------------------------------

***  Geometry step: 33

 iSCC Total electronic   Diff electronic      SCC error    
    1   -0.19517090E+03    0.00000000E+00    0.25688722E-02
    2   -0.19516802E+03    0.28795066E-02    0.14868923E-02
    3   -0.19516802E+03   -0.56270274E-05    0.37653332E-03
    4   -0.19516803E+03   -0.98967766E-06    0.91605232E-04
    5   -0.19516803E+03   -0.35850405E-07    0.18590065E-04
    6   -0.19516803E+03   -0.22827180E-08    0.43937005E-05
    7   -0.19516803E+03   -0.54342308E-10    0.10154564E-05
    8   -0.19516803E+03   -0.28421709E-11    0.15823654E-06
    9   -0.19516803E+03   -0.34106051E-12    0.41368119E-07
   10   -0.19516803E+03    0.14210855E-12    0.53982485E-08

Total Energy:                     -193.2579270346 H        -5258.8158 eV
Extrapolated to 0K:               -193.2579270346 H        -5258.8158 eV
Total Mermin free energy:         -193.2579270346 H        -5258.8158 eV
Force related energy:             -193.2579270346 H        -5258.8158 eV

Volume:                              0.113110E+05 au^3   0.167611E+04 A^3
Pressure:                            0.237441E-05 au     0.698575E+08 Pa
>> Charges saved for restart in charges.bin

total energy  -1.9325793E+02 H       energy change -4.2501477E-04 H
gradient norm  1.7221911E-02 H/a0    max. gradient  3.1762439E-03 H/a0
step length    9.2585708E-02 a0      max. step      1.9244984E-02 a0

--------------------------------------------------------------------------------

***  Geometry step: 34

 iSCC Total electronic   Diff electronic      SCC error    
    1   -0.19516803E+03    0.00000000E+00    0.26750570E-02
    2   -0.19516841E+03   -0.37961514E-03    0.13881528E-02
    3   -0.19516841E+03   -0.77857052E-05    0.40216903E-03
    4   -0.19516841E+03   -0.13038216E-05    0.80595017E-04
    5   -0.19516841E+03   -0.45621647E-07    0.24031143E-04
    6   -0.19516841E+03   -0.25113138E-08    0.54597642E-05
    7   -0.19516841E+03   -0.67871042E-10    0.12240124E-05
    8   -0.19516841E+03   -0.32400749E-11    0.17696248E-06
    9   -0.19516841E+03   -0.45474735E-12    0.40059899E-07
   10   -0.19516841E+03    0.28421709E-13    0.56704748E-08

Total Energy:                     -193.2585022814 H        -5258.8314 eV
Extrapolated to 0K:               -193.2585022814 H        -5258.8314 eV
Total Mermin free energy:         -193.2585022814 H        -5258.8314 eV
Force related energy:             -193.2585022814 H        -5258.8314 eV

Volume:                              0.113210E+05 au^3   0.167761E+04 A^3
Pressure:                            0.170112E-05 au     0.500488E+08 Pa
>> Charges saved for restart in charges.bin

total energy  -1.9325850E+02 H       energy change -5.7524686E-04 H
gradient norm  1.9951649E-02 H/a0    max. gradient  4.1684003E-03 H/a0
step length    1.3710938E-01 a0      max. step      2.8910429E-02 a0

--------------------------------------------------------------------------------

***  Geometry step: 35

 iSCC Total electronic   Diff electronic      SCC error    
    1   -0.19516841E+03    0.00000000E+00    0.41551325E-02
    2   -0.19517245E+03   -0.40378339E-02    0.19556392E-02
    3   -0.19517246E+03   -0.10657183E-04    0.51208129E-03
    4   -0.19517246E+03   -0.17588306E-05    0.97249327E-04
    5   -0.19517246E+03   -0.66369154E-07    0.32547247E-04
    6   -0.19517246E+03   -0.26590214E-08    0.80639095E-05
    7   -0.19517246E+03   -0.76965989E-10    0.10676335E-05
    8   -0.19517246E+03   -0.49169557E-11    0.23260614E-06
    9   -0.19517246E+03   -0.65369932E-12    0.48436286E-07
   10   -0.19517246E+03    0.85265128E-13    0.87325360E-08

Total Energy:                     -193.2591621928 H        -5258.8494 eV
Extrapolated to 0K:               -193.2591621928 H        -5258.8494 eV
Total Mermin free energy:         -193.2591621928 H        -5258.8494 eV
Force related energy:             -193.2591621928 H        -5258.8494 eV

Volume:                              0.113335E+05 au^3   0.167945E+04 A^3
Pressure:                            0.218509E-05 au     0.642877E+08 Pa
>> Charges saved for restart in charges.bin

total energy  -1.9325916E+02 H       energy change -6.5991141E-04 H
gradient norm  2.0512317E-02 H/a0    max. gradient  4.7504482E-03 H/a0
step length    1.8216809E-01 a0      max. step      3.7426303E-02 a0

--------------------------------------------------------------------------------

***  Geometry step: 36

 iSCC Total electronic   Diff electronic      SCC error    
    1   -0.19517246E+03    0.00000000E+00    0.42603446E-02
    2   -0.19517877E+03   -0.63036863E-02    0.23827267E-02
    3   -0.19517878E+03   -0.12687562E-04    0.59619392E-03
    4   -0.19517878E+03   -0.19764868E-05    0.90335865E-04
    5   -0.19517878E+03   -0.73893602E-07    0.30425010E-04
    6   -0.19517878E+03   -0.31743639E-08    0.96292225E-05
    7   -0.19517878E+03   -0.61675109E-10    0.14625075E-05
    8   -0.19517878E+03   -0.36664005E-11    0.29687217E-06
    9   -0.19517878E+03   -0.39790393E-12    0.48210881E-07
   10   -0.19517878E+03    0.00000000E+00    0.12124207E-07
   11   -0.19517878E+03   -0.56843419E-13    0.25102587E-08

Total Energy:                     -193.2597638678 H        -5258.8657 eV
Extrapolated to 0K:               -193.2597638678 H        -5258.8657 eV
Total Mermin free energy:         -193.2597638678 H        -5258.8657 eV
Force related energy:             -193.2597638678 H        -5258.8657 eV

Volume:                              0.113456E+05 au^3   0.168124E+04 A^3
Pressure:                            0.369580E-05 au     0.108734E+09 Pa
>> Charges saved for restart in charges.bin

total energy  -1.9325976E+02 H       energy change -6.0167499E-04 H
gradient norm  1.7854308E-02 H/a0    max. gradient  6.0376691E-03 H/a0
step length    1.8436346E-01 a0      max. step      3.5644712E-02 a0

--------------------------------------------------------------------------------

***  Geometry step: 37

 iSCC Total electronic   Diff electronic      SCC error    
    1   -0.19517878E+03    0.00000000E+00    0.43996717E-02
    2   -0.19518415E+03   -0.53662608E-02    0.24865193E-02
    3   -0.19518416E+03   -0.14175651E-04    0.66879779E-03
    4   -0.19518417E+03   -0.23442996E-05    0.86762530E-04
    5   -0.19518417E+03   -0.68325022E-07    0.15420732E-04
    6   -0.19518417E+03   -0.42637680E-08    0.61644035E-05
    7   -0.19518417E+03   -0.85066176E-10    0.20529936E-05
    8   -0.19518417E+03   -0.20463631E-11    0.44378070E-06
    9   -0.19518417E+03   -0.85265128E-13    0.49591793E-07
   10   -0.19518417E+03   -0.28421709E-13    0.11411194E-07
   11   -0.19518417E+03    0.00000000E+00    0.18899344E-08

Total Energy:                     -193.2602639751 H        -5258.8794 eV
Extrapolated to 0K:               -193.2602639751 H        -5258.8794 eV
Total Mermin free energy:         -193.2602639751 H        -5258.8794 eV
Force related energy:             -193.2602639751 H        -5258.8794 eV

Volume:                              0.113566E+05 au^3   0.168288E+04 A^3
Pressure:                            0.524382E-05 au     0.154279E+09 Pa
>> Charges saved for restart in charges.bin

total energy  -1.9326026E+02 H       energy change -5.0010727E-04 H
gradient norm  1.5430715E-02 H/a0    max. gradient  5.4248663E-03 H/a0
step length    1.6345250E-01 a0      max. step      2.9135580E-02 a0

--------------------------------------------------------------------------------

***  Geometry step: 38

 iSCC Total electronic   Diff electronic      SCC error    
    1   -0.19518417E+03    0.00000000E+00    0.38358424E-02
    2   -0.19518621E+03   -0.20436997E-02    0.18777617E-02
    3   -0.19518622E+03   -0.94473317E-05    0.45311453E-03
    4   -0.19518622E+03   -0.17240647E-05    0.86823362E-04
    5   -0.19518622E+03   -0.58345563E-07    0.10009432E-04
    6   -0.19518622E+03   -0.35383039E-08    0.21445631E-05
    7   -0.19518622E+03   -0.55933924E-10    0.52357570E-06
    8   -0.19518622E+03   -0.12505552E-11    0.19013119E-06
    9   -0.19518622E+03   -0.85265128E-13    0.26287422E-07
   10   -0.19518622E+03    0.28421709E-13    0.83619494E-08

Total Energy:                     -193.2606885773 H        -5258.8909 eV
Extrapolated to 0K:               -193.2606885773 H        -5258.8909 eV
Total Mermin free energy:         -193.2606885773 H        -5258.8909 eV
Force related energy:             -193.2606885773 H        -5258.8909 eV

Volume:                              0.113661E+05 au^3   0.168428E+04 A^3
Pressure:                            0.531733E-05 au     0.156441E+09 Pa
>> Charges saved for restart in charges.bin

total energy  -1.9326069E+02 H       energy change -4.2460220E-04 H
gradient norm  1.5866809E-02 H/a0    max. gradient  4.5304855E-03 H/a0
step length    1.3448567E-01 a0      max. step      2.4920726E-02 a0

--------------------------------------------------------------------------------

***  Geometry step: 39

 iSCC Total electronic   Diff electronic      SCC error    
    1   -0.19518622E+03    0.00000000E+00    0.42356755E-02
    2   -0.19518647E+03   -0.24773643E-03    0.24797733E-02
    3   -0.19518648E+03   -0.94724679E-05    0.53380438E-03
    4   -0.19518648E+03   -0.17756290E-05    0.75602036E-04
    5   -0.19518648E+03   -0.90109268E-07    0.72006631E-05
    6   -0.19518648E+03   -0.35814480E-08    0.25914001E-05
    7   -0.19518648E+03   -0.50334847E-10    0.76281026E-06
    8   -0.19518648E+03   -0.15916157E-11    0.24042723E-06
    9   -0.19518648E+03   -0.19895197E-12    0.70603424E-07
   10   -0.19518648E+03    0.85265128E-13    0.17066197E-07
   11   -0.19518648E+03   -0.28421709E-13    0.13274866E-08

Total Energy:                     -193.2611669301 H        -5258.9039 eV
Extrapolated to 0K:               -193.2611669301 H        -5258.9039 eV
Total Mermin free energy:         -193.2611669301 H        -5258.9039 eV
Force related energy:             -193.2611669301 H        -5258.9039 eV

Volume:                              0.113741E+05 au^3   0.168547E+04 A^3
Pressure:                            0.478896E-05 au     0.140896E+09 Pa
>> Charges saved for restart in charges.bin

total energy  -1.9326117E+02 H       energy change -4.7835283E-04 H
gradient norm  1.7276632E-02 H/a0    max. gradient  4.2217349E-03 H/a0
step length    1.4114366E-01 a0      max. step      2.8740997E-02 a0

--------------------------------------------------------------------------------

***  Geometry step: 40

 iSCC Total electronic   Diff electronic      SCC error    
    1   -0.19518648E+03    0.00000000E+00    0.47660596E-02
    2   -0.19518477E+03    0.17079421E-02    0.27811630E-02
    3   -0.19518478E+03   -0.11232917E-04    0.66251412E-03
    4   -0.19518478E+03   -0.18132432E-05    0.55957651E-04
    5   -0.19518478E+03   -0.11291442E-06    0.13582101E-04
    6   -0.19518478E+03   -0.32852938E-08    0.46642530E-05
    7   -0.19518478E+03   -0.41893600E-10    0.14313546E-05
    8   -0.19518478E+03   -0.15916157E-11    0.35193194E-06
    9   -0.19518478E+03   -0.36948222E-12    0.81693789E-07
   10   -0.19518478E+03    0.00000000E+00    0.10605958E-07
   11   -0.19518478E+03   -0.28421709E-13    0.18168849E-08

Total Energy:                     -193.2616703768 H        -5258.9176 eV
Extrapolated to 0K:               -193.2616703768 H        -5258.9176 eV
Total Mermin free energy:         -193.2616703768 H        -5258.9176 eV
Force related energy:             -193.2616703768 H        -5258.9176 eV

Volume:                              0.113813E+05 au^3   0.168653E+04 A^3
Pressure:                            0.351775E-05 au     0.103496E+09 Pa
>> Charges saved for restart in charges.bin

total energy  -1.9326167E+02 H       energy change -5.0344671E-04 H
gradient norm  1.7188135E-02 H/a0    max. gradient  4.3398126E-03 H/a0
step length    1.5047196E-01 a0      max. step      3.2472066E-02 a0

--------------------------------------------------------------------------------

***  Geometry step: 41

 iSCC Total electronic   Diff electronic      SCC error    
    1   -0.19518478E+03    0.00000000E+00    0.39033004E-02
    2   -0.19518307E+03    0.17198194E-02    0.20278419E-02
    3   -0.19518308E+03   -0.13244319E-04    0.59429176E-03
    4   -0.19518308E+03   -0.17802032E-05    0.67647832E-04
    5   -0.19518308E+03   -0.83691731E-07    0.18143766E-04
    6   -0.19518308E+03   -0.38209294E-08    0.61051942E-05
    7   -0.19518308E+03   -0.59515060E-10    0.19357945E-05
    8   -0.19518308E+03   -0.18189894E-11    0.36271705E-06
    9   -0.19518308E+03   -0.45474735E-12    0.73939341E-07
   10   -0.19518308E+03    0.28421709E-13    0.99417683E-08

Total Energy:                     -193.2621546682 H        -5258.9308 eV
Extrapolated to 0K:               -193.2621546682 H        -5258.9308 eV
Total Mermin free energy:         -193.2621546682 H        -5258.9308 eV
Force related energy:             -193.2621546682 H        -5258.9308 eV

Volume:                              0.113870E+05 au^3   0.168737E+04 A^3
Pressure:                            0.244498E-05 au     0.719339E+08 Pa
>> Charges saved for restart in charges.bin

total energy  -1.9326215E+02 H       energy change -4.8429140E-04 H
gradient norm  1.6152374E-02 H/a0    max. gradient  2.6931554E-03 H/a0
step length    1.4764176E-01 a0      max. step      3.2346995E-02 a0

--------------------------------------------------------------------------------

***  Geometry step: 42

 iSCC Total electronic   Diff electronic      SCC error    
    1   -0.19518308E+03    0.00000000E+00    0.35383263E-02
    2   -0.19518240E+03    0.68167026E-03    0.13622332E-02
    3   -0.19518241E+03   -0.15185127E-04    0.44203010E-03
    4   -0.19518242E+03   -0.19715037E-05    0.74400181E-04
    5   -0.19518242E+03   -0.52239727E-07    0.19087785E-04
    6   -0.19518242E+03   -0.35334438E-08    0.67298141E-05
    7   -0.19518242E+03   -0.77278628E-10    0.20656276E-05
    8   -0.19518242E+03   -0.20747848E-11    0.34674075E-06
    9   -0.19518242E+03   -0.19895197E-12    0.56888427E-07
   10   -0.19518242E+03   -0.85265128E-13    0.13429652E-07
   11   -0.19518242E+03    0.56843419E-13    0.24262414E-08

Total Energy:                     -193.2626253709 H        -5258.9436 eV
Extrapolated to 0K:               -193.2626253709 H        -5258.9436 eV
Total Mermin free energy:         -193.2626253709 H        -5258.9436 eV
Force related energy:             -193.2626253709 H        -5258.9436 eV

Volume:                              0.113929E+05 au^3   0.168826E+04 A^3
Pressure:                            0.193124E-05 au     0.568190E+08 Pa
>> Charges saved for restart in charges.bin

total energy  -1.9326263E+02 H       energy change -4.7070270E-04 H
gradient norm  1.5953367E-02 H/a0    max. gradient  3.1569251E-03 H/a0
step length    1.5012523E-01 a0      max. step      3.2556193E-02 a0

--------------------------------------------------------------------------------

***  Geometry step: 43

 iSCC Total electronic   Diff electronic      SCC error    
    1   -0.19518242E+03    0.00000000E+00    0.32163369E-02
    2   -0.19518370E+03   -0.12834894E-02    0.17250127E-02
    3   -0.19518371E+03   -0.12715276E-04    0.56653922E-03
    4   -0.19518371E+03   -0.18843936E-05    0.63090517E-04
    5   -0.19518371E+03   -0.46858844E-07    0.17285766E-04
    6   -0.19518371E+03   -0.32959804E-08    0.69403557E-05
    7   -0.19518371E+03   -0.77136519E-10    0.19063049E-05
    8   -0.19518371E+03   -0.21600499E-11    0.38578174E-06
    9   -0.19518371E+03   -0.14210855E-12    0.49137812E-07
   10   -0.19518371E+03   -0.17053026E-12    0.12845768E-07
   11   -0.19518371E+03    0.00000000E+00    0.25602187E-08

Total Energy:                     -193.2630727631 H        -5258.9558 eV
Extrapolated to 0K:               -193.2630727631 H        -5258.9558 eV
Total Mermin free energy:         -193.2630727631 H        -5258.9558 eV
Force related energy:             -193.2630727631 H        -5258.9558 eV

Volume:                              0.113993E+05 au^3   0.168920E+04 A^3
Pressure:                            0.209853E-05 au     0.617408E+08 Pa
>> Charges saved for restart in charges.bin

total energy  -1.9326307E+02 H       energy change -4.4739217E-04 H
gradient norm  1.5606003E-02 H/a0    max. gradient  3.4111085E-03 H/a0
step length    1.4921671E-01 a0      max. step      3.1052205E-02 a0

--------------------------------------------------------------------------------

***  Geometry step: 44

 iSCC Total electronic   Diff electronic      SCC error    
    1   -0.19518371E+03    0.00000000E+00    0.37609985E-02
    2   -0.19518636E+03   -0.26472931E-02    0.19601671E-02
    3   -0.19518637E+03   -0.11699241E-04    0.56002221E-03
    4   -0.19518637E+03   -0.19859417E-05    0.53172351E-04
    5   -0.19518637E+03   -0.62711706E-07    0.10476963E-04
    6   -0.19518637E+03   -0.30337901E-08    0.43346168E-05
    7   -0.19518637E+03   -0.69746875E-10    0.12854283E-05
    8   -0.19518637E+03   -0.19610980E-11    0.40273118E-06
    9   -0.19518637E+03   -0.19895197E-12    0.74761061E-07
   10   -0.19518637E+03   -0.28421709E-13    0.78231683E-08

Total Energy:                     -193.2634605398 H        -5258.9663 eV
Extrapolated to 0K:               -193.2634605398 H        -5258.9663 eV
Total Mermin free energy:         -193.2634605398 H        -5258.9663 eV
Force related energy:             -193.2634605398 H        -5258.9663 eV

Volume:                              0.114069E+05 au^3   0.169033E+04 A^3
Pressure:                            0.262212E-05 au     0.771453E+08 Pa
>> Charges saved for restart in charges.bin

total energy  -1.9326346E+02 H       energy change -3.8777669E-04 H
gradient norm  1.3559140E-02 H/a0    max. gradient  3.2080466E-03 H/a0
step length    1.5487871E-01 a0      max. step      3.0295211E-02 a0

--------------------------------------------------------------------------------

***  Geometry step: 45

 iSCC Total electronic   Diff electronic      SCC error    
    1   -0.19518637E+03    0.00000000E+00    0.25173319E-02
    2   -0.19518929E+03   -0.29162003E-02    0.14356203E-02
    3   -0.19518930E+03   -0.73014165E-05    0.39402567E-03
    4   -0.19518930E+03   -0.12664569E-05    0.53741944E-04
    5   -0.19518930E+03   -0.43848303E-07    0.91490528E-05
    6   -0.19518930E+03   -0.22267272E-08    0.21334090E-05
    7   -0.19518930E+03   -0.50420113E-10    0.47780467E-06
    8   -0.19518930E+03   -0.10231815E-11    0.10111293E-06
    9   -0.19518930E+03   -0.17053026E-12    0.20109602E-07
   10   -0.19518930E+03    0.56843419E-13    0.61858487E-08

Total Energy:                     -193.2637181440 H        -5258.9733 eV
Extrapolated to 0K:               -193.2637181440 H        -5258.9733 eV
Total Mermin free energy:         -193.2637181440 H        -5258.9733 eV
Force related energy:             -193.2637181440 H        -5258.9733 eV

Volume:                              0.114136E+05 au^3   0.169132E+04 A^3
Pressure:                            0.319623E-05 au     0.940364E+08 Pa
>> Charges saved for restart in charges.bin

total energy  -1.9326372E+02 H       energy change -2.5760421E-04 H
gradient norm  1.0864828E-02 H/a0    max. gradient  3.0612261E-03 H/a0
step length    1.3115406E-01 a0      max. step      2.4039210E-02 a0

--------------------------------------------------------------------------------

***  Geometry step: 46

 iSCC Total electronic   Diff electronic      SCC error    
    1   -0.19518930E+03    0.00000000E+00    0.28387532E-02
    2   -0.19519139E+03   -0.20863372E-02    0.11539865E-02
    3   -0.19519139E+03   -0.50528077E-05    0.33038240E-03
    4   -0.19519139E+03   -0.82575062E-06    0.69321342E-04
    5   -0.19519139E+03   -0.24695936E-07    0.13031155E-04
    6   -0.19519139E+03   -0.16512161E-08    0.40916745E-05
    7   -0.19519139E+03   -0.38966164E-10    0.10592650E-05
    8   -0.19519139E+03   -0.10800250E-11    0.24001661E-06
    9   -0.19519139E+03    0.00000000E+00    0.42471928E-07
   10   -0.19519139E+03   -0.28421709E-13    0.63547283E-08

Total Energy:                     -193.2639085678 H        -5258.9785 eV
Extrapolated to 0K:               -193.2639085678 H        -5258.9785 eV
Total Mermin free energy:         -193.2639085678 H        -5258.9785 eV
Force related energy:             -193.2639085678 H        -5258.9785 eV

Volume:                              0.114184E+05 au^3   0.169203E+04 A^3
Pressure:                            0.388158E-05 au     0.114200E+09 Pa
>> Charges saved for restart in charges.bin

total energy  -1.9326391E+02 H       energy change -1.9042377E-04 H
gradient norm  1.0315326E-02 H/a0    max. gradient  3.4248231E-03 H/a0
step length    1.0473737E-01 a0      max. step      1.8564028E-02 a0

--------------------------------------------------------------------------------

***  Geometry step: 47

 iSCC Total electronic   Diff electronic      SCC error    
    1   -0.19519139E+03    0.00000000E+00    0.25435641E-02
    2   -0.19519222E+03   -0.83252164E-03    0.15064004E-02
    3   -0.19519223E+03   -0.52722072E-05    0.39046335E-03
    4   -0.19519223E+03   -0.82576207E-06    0.88912358E-04
    5   -0.19519223E+03   -0.36898371E-07    0.20777287E-04
    6   -0.19519223E+03   -0.21998403E-08    0.76084325E-05
    7   -0.19519223E+03   -0.44479975E-10    0.10526579E-05
    8   -0.19519223E+03   -0.21032065E-11    0.18571694E-06
    9   -0.19519223E+03   -0.25579538E-12    0.43821927E-07
   10   -0.19519223E+03    0.14210855E-12    0.10120562E-07
   11   -0.19519223E+03   -0.56843419E-13    0.15957480E-08

Total Energy:                     -193.2641175314 H        -5258.9842 eV
Extrapolated to 0K:               -193.2641175314 H        -5258.9842 eV
Total Mermin free energy:         -193.2641175314 H        -5258.9842 eV
Force related energy:             -193.2641175314 H        -5258.9842 eV

Volume:                              0.114230E+05 au^3   0.169272E+04 A^3
Pressure:                            0.391876E-05 au     0.115294E+09 Pa
>> Charges saved for restart in charges.bin

total energy  -1.9326412E+02 H       energy change -2.0896366E-04 H
gradient norm  1.1393515E-02 H/a0    max. gradient  3.2980694E-03 H/a0
step length    1.0921246E-01 a0      max. step      2.1225480E-02 a0

--------------------------------------------------------------------------------

***  Geometry step: 48

 iSCC Total electronic   Diff electronic      SCC error    
    1   -0.19519223E+03    0.00000000E+00    0.31372848E-02
    2   -0.19519207E+03    0.15965575E-03    0.18392759E-02
    3   -0.19519208E+03   -0.61047486E-05    0.44486346E-03
    4   -0.19519208E+03   -0.90704725E-06    0.87077504E-04
    5   -0.19519208E+03   -0.61560797E-07    0.33829830E-04
    6   -0.19519208E+03   -0.23113387E-08    0.89773077E-05
    7   -0.19519208E+03   -0.49226401E-10    0.74973698E-06
    8   -0.19519208E+03   -0.51159077E-11    0.18836195E-06
    9   -0.19519208E+03   -0.22737368E-12    0.54872730E-07
   10   -0.19519208E+03    0.28421709E-13    0.10194836E-07
   11   -0.19519208E+03   -0.28421709E-13    0.20549389E-08

Total Energy:                     -193.2643482140 H        -5258.9905 eV
Extrapolated to 0K:               -193.2643482140 H        -5258.9905 eV
Total Mermin free energy:         -193.2643482140 H        -5258.9905 eV
Force related energy:             -193.2643482140 H        -5258.9905 eV

Volume:                              0.114266E+05 au^3   0.169324E+04 A^3
Pressure:                            0.358457E-05 au     0.105462E+09 Pa
>> Charges saved for restart in charges.bin

total energy  -1.9326435E+02 H       energy change -2.3068251E-04 H
gradient norm  1.1720708E-02 H/a0    max. gradient  3.4135213E-03 H/a0
step length    1.0543582E-01 a0      max. step      2.3119979E-02 a0

--------------------------------------------------------------------------------

***  Geometry step: 49

 iSCC Total electronic   Diff electronic      SCC error    
    1   -0.19519208E+03    0.00000000E+00    0.31539132E-02
    2   -0.19519108E+03    0.99590074E-03    0.18308947E-02
    3   -0.19519109E+03   -0.62439379E-05    0.43511824E-03
    4   -0.19519109E+03   -0.97958142E-06    0.93036684E-04
    5   -0.19519109E+03   -0.55869407E-07    0.34255827E-04
    6   -0.19519109E+03   -0.29057503E-08    0.86240557E-05
    7   -0.19519109E+03   -0.55109695E-10    0.84045658E-06
    8   -0.19519109E+03   -0.49169557E-11    0.17282010E-06
    9   -0.19519109E+03   -0.19895197E-12    0.47692143E-07
   10   -0.19519109E+03   -0.85265128E-13    0.10586149E-07
   11   -0.19519109E+03    0.56843419E-13    0.21695632E-08

Total Energy:                     -193.2645546196 H        -5258.9961 eV
Extrapolated to 0K:               -193.2645546196 H        -5258.9961 eV
Total Mermin free energy:         -193.2645546196 H        -5258.9961 eV
Force related energy:             -193.2645546196 H        -5258.9961 eV

Volume:                              0.114282E+05 au^3   0.169348E+04 A^3
Pressure:                            0.289428E-05 au     0.851527E+08 Pa
>> Charges saved for restart in charges.bin

total energy  -1.9326455E+02 H       energy change -2.0640568E-04 H
gradient norm  1.0215540E-02 H/a0    max. gradient  2.8051225E-03 H/a0
step length    8.3484542E-02 a0      max. step      2.0331213E-02 a0

--------------------------------------------------------------------------------

***  Geometry step: 50

 iSCC Total electronic   Diff electronic      SCC error    
    1   -0.19519109E+03    0.00000000E+00    0.28864858E-02
    2   -0.19519078E+03    0.31405766E-03    0.13696620E-02
    3   -0.19519078E+03   -0.56544307E-05    0.31005319E-03
    4   -0.19519078E+03   -0.95723112E-06    0.77426934E-04
    5   -0.19519078E+03   -0.25110069E-07    0.22819577E-04
    6   -0.19519078E+03   -0.22869244E-08    0.72856972E-05
    7   -0.19519078E+03   -0.54882321E-10    0.98613347E-06
    8   -0.19519078E+03   -0.23021585E-11    0.14797650E-06
    9   -0.19519078E+03   -0.19895197E-12    0.33108269E-07
   10   -0.19519078E+03    0.11368684E-12    0.71074360E-08

Total Energy:                     -193.2647110778 H        -5259.0004 eV
Extrapolated to 0K:               -193.2647110778 H        -5259.0004 eV
Total Mermin free energy:         -193.2647110778 H        -5259.0004 eV
[...]
>> Charges saved for restart in charges.bin

total energy  -1.9327379E+02 H       energy change -6.1869417E-07 H
gradient norm  7.0277712E-04 H/a0    max. gradient  2.2530929E-04 H/a0
step length    5.2153548E-03 a0      max. step      1.0508393E-03 a0

--------------------------------------------------------------------------------

***  Geometry step: 163

 iSCC Total electronic   Diff electronic      SCC error    
    1   -0.19517933E+03    0.00000000E+00    0.20968263E-03
    2   -0.19517914E+03    0.18849019E-03    0.89148882E-04
    3   -0.19517914E+03   -0.34128789E-07    0.27373674E-04
    4   -0.19517914E+03   -0.44740034E-08    0.18959817E-05
    5   -0.19517914E+03   -0.15225510E-09    0.59670225E-06
    6   -0.19517914E+03   -0.57127636E-11    0.21813021E-06
    7   -0.19517914E+03   -0.28421709E-13    0.38163905E-07
    8   -0.19517914E+03    0.00000000E+00    0.90274823E-08

Total Energy:                     -193.2737897658 H        -5259.2474 eV
Extrapolated to 0K:               -193.2737897658 H        -5259.2474 eV
Total Mermin free energy:         -193.2737897658 H        -5259.2474 eV
Force related energy:             -193.2737897658 H        -5259.2474 eV

Volume:                              0.112198E+05 au^3   0.166260E+04 A^3
Pressure:                            0.701868E-07 au     0.206497E+07 Pa
>> Charges saved for restart in charges.bin

total energy  -1.9327379E+02 H       energy change -1.1281501E-06 H
gradient norm  5.9383770E-04 H/a0    max. gradient  1.1795100E-04 H/a0
step length    1.1220086E-02 a0      max. step      2.2957365E-03 a0

--------------------------------------------------------------------------------

***  Geometry step: 164

 iSCC Total electronic   Diff electronic      SCC error    
    1   -0.19517914E+03    0.00000000E+00    0.10784912E-03
    2   -0.19517907E+03    0.71268432E-04    0.63165631E-04
    3   -0.19517907E+03   -0.66714847E-08    0.19127600E-04
    4   -0.19517907E+03   -0.10275869E-08    0.13399312E-05
    5   -0.19517907E+03   -0.32173375E-10    0.41897283E-06
    6   -0.19517907E+03   -0.19326762E-11    0.15557130E-06
    7   -0.19517907E+03   -0.28421709E-13    0.27743562E-07
    8   -0.19517907E+03    0.56843419E-13    0.33034975E-08

Total Energy:                     -193.2737904594 H        -5259.2474 eV
Extrapolated to 0K:               -193.2737904594 H        -5259.2474 eV
Total Mermin free energy:         -193.2737904594 H        -5259.2474 eV
Force related energy:             -193.2737904594 H        -5259.2474 eV

Volume:                              0.112199E+05 au^3   0.166262E+04 A^3
Pressure:                            0.243122E-08 au     0.715289E+05 Pa
>> Charges saved for restart in charges.bin

total energy  -1.9327379E+02 H       energy change -6.9356551E-07 H
gradient norm  6.6422954E-04 H/a0    max. gradient  2.2175487E-04 H/a0
step length    1.6756555E-03 a0      max. step      3.5370044E-04 a0

--------------------------------------------------------------------------------

***  Geometry step: 165

 iSCC Total electronic   Diff electronic      SCC error    
    1   -0.19517907E+03    0.00000000E+00    0.83487680E-03
    2   -0.19517899E+03    0.71462806E-04    0.48021964E-03
    3   -0.19517900E+03   -0.50597959E-06    0.14233675E-03
    4   -0.19517900E+03   -0.77347835E-07    0.10417758E-04
    5   -0.19517900E+03   -0.22706104E-08    0.25191915E-05
    6   -0.19517900E+03   -0.12664714E-09    0.92423635E-06
    7   -0.19517900E+03   -0.17621460E-11    0.18166879E-06
    8   -0.19517900E+03    0.00000000E+00    0.33211996E-07
    9   -0.19517900E+03    0.85265128E-13    0.97361434E-08

Total Energy:                     -193.2737887155 H        -5259.2474 eV
Extrapolated to 0K:               -193.2737887155 H        -5259.2474 eV
Total Mermin free energy:         -193.2737887155 H        -5259.2474 eV
Force related energy:             -193.2737887155 H        -5259.2474 eV

Volume:                              0.112213E+05 au^3   0.166283E+04 A^3
Pressure:                           -0.808186E-07 au    -0.237776E+07 Pa
>> Charges saved for restart in charges.bin

total energy  -1.9327379E+02 H       energy change  1.7438449E-06 H
gradient norm  3.0966065E-03 H/a0    max. gradient  1.4189825E-03 H/a0
step length    1.9765424E-02 a0      max. step      4.2124738E-03 a0

--------------------------------------------------------------------------------

***  Geometry step: 166

 iSCC Total electronic   Diff electronic      SCC error    
    1   -0.19517900E+03    0.00000000E+00    0.54068777E-03
    2   -0.19517905E+03   -0.57508982E-04    0.30993898E-03
    3   -0.19517905E+03   -0.19451247E-06    0.93888462E-04
    4   -0.19517905E+03   -0.30089637E-07    0.63784270E-05
    5   -0.19517905E+03   -0.87740659E-09    0.15273885E-05
    6   -0.19517905E+03   -0.53034910E-10    0.58498650E-06
    7   -0.19517905E+03   -0.65369932E-12    0.11434359E-06
    8   -0.19517905E+03   -0.56843419E-13    0.12437141E-07
    9   -0.19517905E+03   -0.56843419E-13    0.30967318E-08

Total Energy:                     -193.2737930398 H        -5259.2475 eV
Extrapolated to 0K:               -193.2737930398 H        -5259.2475 eV
Total Mermin free energy:         -193.2737930398 H        -5259.2475 eV
Force related energy:             -193.2737930398 H        -5259.2475 eV

Volume:                              0.112213E+05 au^3   0.166282E+04 A^3
Pressure:                           -0.692649E-07 au    -0.203784E+07 Pa
>> Charges saved for restart in charges.bin

total energy  -1.9327379E+02 H       energy change -4.3242628E-06 H
gradient norm  9.5621716E-04 H/a0    max. gradient  4.6021632E-04 H/a0
step length    9.1303753E-03 a0      max. step      2.1386036E-03 a0

--------------------------------------------------------------------------------

***  Geometry step: 167

 iSCC Total electronic   Diff electronic      SCC error    
    1   -0.19517905E+03    0.00000000E+00    0.10704034E-03
    2   -0.19517922E+03   -0.16308550E-03    0.63354398E-04
    3   -0.19517922E+03   -0.70334636E-08    0.15911723E-04
    4   -0.19517922E+03   -0.11665691E-08    0.24885610E-05
    5   -0.19517922E+03   -0.55194960E-10    0.79802022E-06
    6   -0.19517922E+03   -0.13642421E-11    0.15174542E-06
    7   -0.19517922E+03   -0.56843419E-13    0.17691494E-07
    8   -0.19517922E+03    0.28421709E-13    0.31427811E-08

Total Energy:                     -193.2737937784 H        -5259.2475 eV
Extrapolated to 0K:               -193.2737937784 H        -5259.2475 eV
Total Mermin free energy:         -193.2737937784 H        -5259.2475 eV
Force related energy:             -193.2737937784 H        -5259.2475 eV

Volume:                              0.112213E+05 au^3   0.166282E+04 A^3
Pressure:                           -0.129481E-07 au    -0.380946E+06 Pa
>> Charges saved for restart in charges.bin

total energy  -1.9327379E+02 H       energy change -7.3863097E-07 H
gradient norm  6.2821182E-04 H/a0    max. gradient  2.4292951E-04 H/a0
step length    1.6552090E-03 a0      max. step      3.9964940E-04 a0

--------------------------------------------------------------------------------

***  Geometry step: 168

 iSCC Total electronic   Diff electronic      SCC error    
    1   -0.19517922E+03    0.00000000E+00    0.32029083E-03
    2   -0.19517949E+03   -0.27053548E-03    0.14798152E-03
    3   -0.19517949E+03   -0.68631152E-07    0.45821027E-04
    4   -0.19517949E+03   -0.97710426E-08    0.81338078E-05
    5   -0.19517949E+03   -0.31860736E-09    0.22906890E-05
    6   -0.19517949E+03   -0.16171953E-10    0.49546373E-06
    7   -0.19517949E+03   -0.65369932E-12    0.63701481E-07
    8   -0.19517949E+03    0.28421709E-13    0.95726773E-08

Total Energy:                     -193.2737955036 H        -5259.2476 eV
Extrapolated to 0K:               -193.2737955036 H        -5259.2476 eV
Total Mermin free energy:         -193.2737955036 H        -5259.2476 eV
Force related energy:             -193.2737955036 H        -5259.2476 eV

Volume:                              0.112214E+05 au^3   0.166285E+04 A^3
Pressure:                            0.734655E-07 au     0.216143E+07 Pa
>> Charges saved for restart in charges.bin

total energy  -1.9327380E+02 H       energy change -1.7251915E-06 H
gradient norm  5.7416013E-04 H/a0    max. gradient  1.8748223E-04 H/a0
step length    1.1350728E-02 a0      max. step      2.9335014E-03 a0

--------------------------------------------------------------------------------

***  Geometry step: 169

 iSCC Total electronic   Diff electronic      SCC error    
    1   -0.19517949E+03    0.00000000E+00    0.10831853E-03
    2   -0.19517956E+03   -0.69353357E-04    0.36695429E-04
    3   -0.19517956E+03   -0.45521631E-08    0.82225410E-05
    4   -0.19517956E+03   -0.66330585E-09    0.11442927E-05
    5   -0.19517956E+03   -0.12192913E-10    0.16003020E-06
    6   -0.19517956E+03   -0.71054274E-12    0.61387290E-07
    7   -0.19517956E+03    0.28421709E-13    0.16660462E-07
    8   -0.19517956E+03   -0.17053026E-12    0.31186573E-08

Total Energy:                     -193.2737957138 H        -5259.2476 eV
Extrapolated to 0K:               -193.2737957138 H        -5259.2476 eV
Total Mermin free energy:         -193.2737957138 H        -5259.2476 eV
Force related energy:             -193.2737957138 H        -5259.2476 eV

Volume:                              0.112213E+05 au^3   0.166283E+04 A^3
Pressure:                            0.106513E-06 au     0.313373E+07 Pa
>> Charges saved for restart in charges.bin

total energy  -1.9327380E+02 H       energy change -2.1024005E-07 H
gradient norm  4.8559533E-04 H/a0    max. gradient  2.0218454E-04 H/a0
step length    5.7416013E-04 a0      max. step      1.8748223E-04 a0

--------------------------------------------------------------------------------

***  Geometry step: 170

 iSCC Total electronic   Diff electronic      SCC error    
    1   -0.19517956E+03    0.00000000E+00    0.18822047E-03
    2   -0.19517963E+03   -0.73093282E-04    0.69416858E-04
    3   -0.19517963E+03   -0.33260562E-07    0.28661755E-04
    4   -0.19517963E+03   -0.44859405E-08    0.55711144E-05
    5   -0.19517963E+03   -0.11502266E-09    0.14929880E-05
    6   -0.19517963E+03   -0.61390892E-11    0.31106892E-06
    7   -0.19517963E+03   -0.17053026E-12    0.20900067E-07
    8   -0.19517963E+03    0.00000000E+00    0.37470684E-08

Total Energy:                     -193.2737967196 H        -5259.2476 eV
Extrapolated to 0K:               -193.2737967196 H        -5259.2476 eV
Total Mermin free energy:         -193.2737967196 H        -5259.2476 eV
Force related energy:             -193.2737967196 H        -5259.2476 eV

Volume:                              0.112214E+05 au^3   0.166284E+04 A^3
Pressure:                            0.131652E-06 au     0.387335E+07 Pa
>> Charges saved for restart in charges.bin

total energy  -1.9327380E+02 H       energy change -1.0057127E-06 H
gradient norm  5.8387100E-04 H/a0    max. gradient  2.7038083E-04 H/a0
step length    1.3662927E-02 a0      max. step      2.9793954E-03 a0

--------------------------------------------------------------------------------

***  Geometry step: 171

 iSCC Total electronic   Diff electronic      SCC error    
    1   -0.19517963E+03    0.00000000E+00    0.18451900E-03
    2   -0.19517948E+03    0.15134274E-03    0.58718712E-04
    3   -0.19517948E+03   -0.22173680E-07    0.21970111E-04
    4   -0.19517948E+03   -0.26997498E-08    0.39013112E-05
    5   -0.19517948E+03   -0.87254648E-10    0.11793989E-05
    6   -0.19517948E+03   -0.37800874E-11    0.22028287E-06
    7   -0.19517948E+03   -0.85265128E-13    0.16993963E-07
    8   -0.19517948E+03    0.28421709E-13    0.34142511E-08

Total Energy:                     -193.2737973630 H        -5259.2476 eV
Extrapolated to 0K:               -193.2737973630 H        -5259.2476 eV
Total Mermin free energy:         -193.2737973630 H        -5259.2476 eV
Force related energy:             -193.2737973630 H        -5259.2476 eV

Volume:                              0.112215E+05 au^3   0.166285E+04 A^3
Pressure:                            0.637083E-07 au     0.187436E+07 Pa
>> Charges saved for restart in charges.bin

total energy  -1.9327380E+02 H       energy change -6.4339753E-07 H
gradient norm  5.6257795E-04 H/a0    max. gradient  2.1808428E-04 H/a0
step length    1.7199307E-02 a0      max. step      3.2450870E-03 a0

--------------------------------------------------------------------------------

***  Geometry step: 172

 iSCC Total electronic   Diff electronic      SCC error    
    1   -0.19517948E+03    0.00000000E+00    0.37260384E-04
    2   -0.19517941E+03    0.67039567E-04    0.15304980E-04
    3   -0.19517941E+03   -0.14786394E-08    0.48275423E-05
    4   -0.19517941E+03   -0.21654500E-09    0.67493439E-06
    5   -0.19517941E+03   -0.63096195E-11    0.23673358E-06
    6   -0.19517941E+03   -0.22737368E-12    0.60518829E-07
    7   -0.19517941E+03   -0.56843419E-13    0.74042141E-08

Total Energy:                     -193.2737976619 H        -5259.2476 eV
Extrapolated to 0K:               -193.2737976619 H        -5259.2476 eV
Total Mermin free energy:         -193.2737976619 H        -5259.2476 eV
Force related energy:             -193.2737976619 H        -5259.2476 eV

Volume:                              0.112215E+05 au^3   0.166285E+04 A^3
Pressure:                            0.384991E-07 au     0.113268E+07 Pa
>> Charges saved for restart in charges.bin

total energy  -1.9327380E+02 H       energy change -2.9897311E-07 H
gradient norm  5.1265833E-04 H/a0    max. gradient  1.7077289E-04 H/a0
step length    8.1939247E-04 a0      max. step      1.8525192E-04 a0

--------------------------------------------------------------------------------

***  Geometry step: 173

 iSCC Total electronic   Diff electronic      SCC error    
    1   -0.19517941E+03    0.00000000E+00    0.27896259E-03
    2   -0.19517904E+03    0.36635566E-03    0.11478169E-03
    3   -0.19517904E+03   -0.82382911E-07    0.37502674E-04
    4   -0.19517904E+03   -0.11798733E-07    0.36176501E-05
    5   -0.19517904E+03   -0.24664359E-09    0.10990832E-05
    6   -0.19517904E+03   -0.12448709E-10    0.38928878E-06
    7   -0.19517904E+03   -0.31263880E-12    0.66260990E-07
    8   -0.19517904E+03    0.28421709E-13    0.85372367E-08

Total Energy:                     -193.2737993842 H        -5259.2477 eV
Extrapolated to 0K:               -193.2737993842 H        -5259.2477 eV
Total Mermin free energy:         -193.2737993842 H        -5259.2477 eV
Force related energy:             -193.2737993842 H        -5259.2477 eV

Volume:                              0.112215E+05 au^3   0.166285E+04 A^3
Pressure:                           -0.104495E-06 au    -0.307434E+07 Pa
>> Charges saved for restart in charges.bin

total energy  -1.9327380E+02 H       energy change -1.7222721E-06 H
gradient norm  7.3802450E-04 H/a0    max. gradient  2.7218065E-04 H/a0
step length    7.8525950E-03 a0      max. step      1.9390964E-03 a0

--------------------------------------------------------------------------------

***  Geometry step: 174

 iSCC Total electronic   Diff electronic      SCC error    
    1   -0.19517904E+03    0.00000000E+00    0.15142767E-03
    2   -0.19517899E+03    0.56241299E-04    0.51976116E-04
    3   -0.19517899E+03   -0.20700753E-07    0.17082290E-04
    4   -0.19517899E+03   -0.27504825E-08    0.34039412E-05
    5   -0.19517899E+03   -0.43144155E-10    0.75897366E-06
    6   -0.19517899E+03   -0.32969183E-11    0.25441217E-06
    7   -0.19517899E+03   -0.56843419E-13    0.36795773E-07
    8   -0.19517899E+03    0.56843419E-13    0.42810089E-08

Total Energy:                     -193.2738001980 H        -5259.2477 eV
Extrapolated to 0K:               -193.2738001980 H        -5259.2477 eV
Total Mermin free energy:         -193.2738001980 H        -5259.2477 eV
Force related energy:             -193.2738001980 H        -5259.2477 eV

Volume:                              0.112214E+05 au^3   0.166285E+04 A^3
Pressure:                           -0.124724E-06 au    -0.366952E+07 Pa
>> Charges saved for restart in charges.bin

total energy  -1.9327380E+02 H       energy change -8.1375552E-07 H
gradient norm  7.9201024E-04 H/a0    max. gradient  2.8524337E-04 H/a0
step length    6.4236266E-03 a0      max. step      1.5813552E-03 a0

--------------------------------------------------------------------------------

***  Geometry step: 175

 iSCC Total electronic   Diff electronic      SCC error    
    1   -0.19517899E+03    0.00000000E+00    0.30103427E-03
    2   -0.19517904E+03   -0.47495937E-04    0.97893120E-04
    3   -0.19517904E+03   -0.62389773E-07    0.31968164E-04
    4   -0.19517904E+03   -0.76705362E-08    0.52403794E-05
    5   -0.19517904E+03   -0.17251978E-09    0.13873002E-05
    6   -0.19517904E+03   -0.12619239E-10    0.45735281E-06
    7   -0.19517904E+03   -0.28421709E-12    0.64246018E-07
    8   -0.19517904E+03   -0.11368684E-12    0.93873775E-08

Total Energy:                     -193.2738014692 H        -5259.2477 eV
Extrapolated to 0K:               -193.2738014692 H        -5259.2477 eV
Total Mermin free energy:         -193.2738014692 H        -5259.2477 eV
Force related energy:             -193.2738014692 H        -5259.2477 eV

Volume:                              0.112215E+05 au^3   0.166286E+04 A^3
Pressure:                           -0.105176E-06 au    -0.309439E+07 Pa
>> Charges saved for restart in charges.bin

total energy  -1.9327380E+02 H       energy change -1.2712444E-06 H
gradient norm  6.3709151E-04 H/a0    max. gradient  1.2107639E-04 H/a0
step length    1.4585100E-02 a0      max. step      3.7849370E-03 a0

--------------------------------------------------------------------------------

***  Geometry step: 176

 iSCC Total electronic   Diff electronic      SCC error    
    1   -0.19517904E+03    0.00000000E+00    0.12451847E-03
    2   -0.19517918E+03   -0.14035550E-03    0.71159014E-04
    3   -0.19517918E+03   -0.56658109E-08    0.12777447E-04
    4   -0.19517918E+03   -0.11349925E-08    0.12833733E-05
    5   -0.19517918E+03   -0.53688609E-10    0.16871114E-06
    6   -0.19517918E+03   -0.88107299E-12    0.66295690E-07
    7   -0.19517918E+03   -0.28421709E-13    0.15955809E-07
    8   -0.19517918E+03    0.11368684E-12    0.32657108E-08

Total Energy:                     -193.2738018813 H        -5259.2477 eV
Extrapolated to 0K:               -193.2738018813 H        -5259.2477 eV
Total Mermin free energy:         -193.2738018813 H        -5259.2477 eV
Force related energy:             -193.2738018813 H        -5259.2477 eV

Volume:                              0.112215E+05 au^3   0.166285E+04 A^3
Pressure:                           -0.461224E-07 au    -0.135697E+07 Pa
>> Charges saved for restart in charges.bin

total energy  -1.9327380E+02 H       energy change -4.1215219E-07 H
gradient norm  4.1322585E-04 H/a0    max. gradient  8.2693874E-05 H/a0
step length    1.1045946E-03 a0      max. step      2.3659771E-04 a0

Geometry converged

--------------------------------------------------------------------------------
DFTB+ running times                          cpu [s]             wall clock [s]
--------------------------------------------------------------------------------
Pre-SCC initialisation                 +      18.77 (  1.1%)       2.36 (  1.1%)
SCC                                    +    1491.26 ( 89.2%)     188.25 ( 90.4%)
Post-SCC processing                    +     161.00 (  9.6%)      17.70 (  8.5%)
--------------------------------------------------------------------------------
Missing                                +       0.01 (  0.0%)       0.01 (  0.0%)
Total                                  =    1671.04 (100.0%)     208.32 (100.0%)
--------------------------------------------------------------------------------
