|===============================================================================
|
|  DFTB+ release 24.1
|
|  Copyright (C) 2006 - 2024  DFTB+ developers group
|
|===============================================================================
|
|  When publishing results obtained with DFTB+, please cite the following
|  reference:
|
|  * DFTB+, a software package for efficient approximate density functional
|    theory based atomistic simulations, J. Chem. Phys. 152, 124101 (2020).
|    [doi: 10.1063/1.5143190]
|
|  You should also cite additional publications crediting the parametrization
|  data you use. Please consult the documentation of the SK-files for the
|  references.
|
|===============================================================================

Reading input file 'dftb_in.hsd'
Parser version: 14

--------------------------------------------------------------------------------
Reading SK-files:
./SKFiles/Si-Si.skf
./SKFiles/Si-Ge.skf
./SKFiles/Si-O.skf
./SKFiles/Ge-Ge.skf
./SKFiles/Ge-O.skf
./SKFiles/O-O.skf
Done.


Processed input in HSD format written to 'dftb_pin.hsd'

Starting initialization...
--------------------------------------------------------------------------------
WARNING!
-> Dipole printed for extended system : value printed is not well defined
MPI processes:               1
OpenMP threads:              8
BLACS orbital grid size:     1 x 1
BLACS atom grid size:        1 x 1
Chosen random seed:          160242995
Current stacksize:           unlimited
Mode:                        Static calculation
Self consistent charges:     Yes
SCC-tolerance:                 0.100000E-07
Max. scc iterations:                    500
Shell resolved Hubbard:      No
Spin polarisation:           No
Nr. of up electrons:           192.000000
Nr. of down electrons:         192.000000
Periodic boundaries:         Yes
Electronic solver:           Relatively robust
Mixer:                       Broyden mixer
Mixing parameter:                  0.200000
Maximal SCC-cycles:                     500
Nr. of chrg. vec. in memory:            500
Electronic temperature:              0.100000E-07 H      0.272114E-06 eV
Initial charges:             Set automatically (system chrg:   0.000E+00)
Included shells:            Si:  s, p, d
                            Ge:  s, p, d
                             O:  s, p
K-points and weights:           1:  0.500000  0.500000  0.500000     1.000000

K-points in absolute space:     1:  0.025319  0.017606  0.037774

Extra options:
                             Mulliken analysis
Force type                   original

--------------------------------------------------------------------------------

***  Geometry step: 0

 iSCC Total electronic   Diff electronic      SCC error    
    1    0.00000000E+00    0.00000000E+00    0.14248564E+01
    2   -0.19732533E+03   -0.19732533E+03    0.96503201E+00
    3   -0.19766801E+03   -0.34268297E+00    0.38637124E-01
    4   -0.19795680E+03   -0.28878699E+00    0.22819406E-01
    5   -0.19795833E+03   -0.15275347E-02    0.34613616E-02
    6   -0.19795843E+03   -0.10582126E-03    0.12451722E-02
    7   -0.19795843E+03   -0.23402660E-05    0.31724044E-03
    8   -0.19795843E+03   -0.56191868E-06    0.37613945E-04
    9   -0.19795843E+03   -0.35179369E-07    0.17325473E-04
   10   -0.19795843E+03   -0.20088464E-09    0.32320351E-05
   11   -0.19795843E+03   -0.70542683E-10    0.25644920E-06
   12   -0.19795843E+03   -0.36664005E-11    0.12920621E-06
   13   -0.19795843E+03    0.00000000E+00    0.16203996E-07
   14   -0.19795843E+03   -0.56843419E-13    0.44917470E-08

Total Energy:                     -190.4242571694 H        -5181.7077 eV
Extrapolated to 0K:               -190.4242571694 H        -5181.7077 eV
Total Mermin free energy:         -190.4242571694 H        -5181.7077 eV
Force related energy:             -190.4242571694 H        -5181.7077 eV

Volume:                              0.913789E+04 au^3   0.135410E+04 A^3
Pressure:                            0.249573E-02 au     0.734270E+11 Pa
>> Charges saved for restart in charges.bin

total energy  -1.9042426E+02 H       energy change -1.9042426E+02 H
gradient norm  2.2270517E+00 H/a0    max. gradient  1.1962765E+00 H/a0
step length    0.0000000E+00 a0      max. step      0.0000000E+00 a0

--------------------------------------------------------------------------------

***  Geometry step: 1

 iSCC Total electronic   Diff electronic      SCC error    
    1   -0.19795843E+03    0.00000000E+00    0.13337521E+00
    2   -0.19727517E+03    0.68326104E+00    0.66369310E-01
    3   -0.19729080E+03   -0.15625421E-01    0.21099341E-01
    4   -0.19729359E+03   -0.27950282E-02    0.19486874E-02
    5   -0.19729366E+03   -0.67296643E-04    0.77076559E-03
    6   -0.19729366E+03   -0.38651226E-05    0.29796577E-03
    7   -0.19729366E+03   -0.13193622E-06    0.24026806E-04
    8   -0.19729366E+03   -0.18376596E-07    0.59608131E-05
    9   -0.19729366E+03   -0.76315132E-09    0.23015024E-05
   10   -0.19729366E+03   -0.13642421E-10    0.49779377E-06
   11   -0.19729366E+03   -0.62527761E-12    0.11901206E-06
   12   -0.19729366E+03   -0.22737368E-12    0.32698911E-07
   13   -0.19729366E+03    0.00000000E+00    0.45329043E-08

Total Energy:                     -191.1575305591 H        -5201.6611 eV
Extrapolated to 0K:               -191.1575305591 H        -5201.6611 eV
Total Mermin free energy:         -191.1575305591 H        -5201.6611 eV
Force related energy:             -191.1575305591 H        -5201.6611 eV

Volume:                              0.971077E+04 au^3   0.143899E+04 A^3
Pressure:                            0.176907E-02 au     0.520478E+11 Pa
>> Charges saved for restart in charges.bin

total energy  -1.9115753E+02 H       energy change -7.3327339E-01 H
gradient norm  1.4654509E+00 H/a0    max. gradient  2.7438343E-01 H/a0
step length    8.0038093E-01 a0      max. step      4.2993024E-01 a0

--------------------------------------------------------------------------------

***  Geometry step: 2

 iSCC Total electronic   Diff electronic      SCC error    
    1   -0.19729366E+03    0.00000000E+00    0.49283449E-01
    2   -0.19694319E+03    0.35047005E+00    0.25173752E-01
    3   -0.19694648E+03   -0.32849560E-02    0.69290230E-02
    4   -0.19694714E+03   -0.65731775E-03    0.93081947E-03
    5   -0.19694716E+03   -0.20106280E-04    0.30622131E-03
    6   -0.19694716E+03   -0.12676507E-05    0.12057106E-03
    7   -0.19694716E+03   -0.20125412E-07    0.32867499E-04
    8   -0.19694716E+03   -0.26537350E-08    0.72503988E-05
    9   -0.19694716E+03   -0.25349323E-09    0.17306500E-05
   10   -0.19694716E+03   -0.38937742E-11    0.44464522E-06
   11   -0.19694716E+03   -0.14210855E-12    0.84832861E-07
   12   -0.19694716E+03   -0.56843419E-13    0.15140264E-07
   13   -0.19694716E+03    0.00000000E+00    0.18410136E-08

Total Energy:                     -191.9435868558 H        -5223.0507 eV
Extrapolated to 0K:               -191.9435868558 H        -5223.0507 eV
Total Mermin free energy:         -191.9435868558 H        -5223.0507 eV
Force related energy:             -191.9435868558 H        -5223.0507 eV

Volume:                              0.986816E+04 au^3   0.146231E+04 A^3
Pressure:                            0.130578E-02 au     0.384173E+11 Pa
>> Charges saved for restart in charges.bin

total energy  -1.9194359E+02 H       energy change -7.8605630E-01 H
gradient norm  9.1732030E-01 H/a0    max. gradient  1.6320974E-01 H/a0
step length    7.4891158E-01 a0      max. step      1.5150288E-01 a0

--------------------------------------------------------------------------------

***  Geometry step: 3

 iSCC Total electronic   Diff electronic      SCC error    
    1   -0.19694716E+03    0.00000000E+00    0.72646227E-01
    2   -0.19656427E+03    0.38288731E+00    0.30753687E-01
    3   -0.19656810E+03   -0.38268330E-02    0.10403240E-01
    4   -0.19656881E+03   -0.71394251E-03    0.13131726E-02
    5   -0.19656885E+03   -0.37146437E-04    0.28020259E-03
    6   -0.19656885E+03   -0.17506939E-05    0.10564504E-03
    7   -0.19656885E+03   -0.23947962E-07    0.18364264E-04
    8   -0.19656885E+03   -0.28457521E-08    0.42770275E-05
    9   -0.19656885E+03   -0.31903369E-09    0.15745907E-05
   10   -0.19656885E+03   -0.58548721E-11    0.55432857E-06
   11   -0.19656885E+03   -0.17053026E-12    0.12799730E-06
   12   -0.19656885E+03   -0.56843419E-13    0.21128310E-07
   13   -0.19656885E+03    0.28421709E-13    0.21732509E-08

Total Energy:                     -192.4795521310 H        -5237.6351 eV
Extrapolated to 0K:               -192.4795521310 H        -5237.6351 eV
Total Mermin free energy:         -192.4795521310 H        -5237.6351 eV
Force related energy:             -192.4795521310 H        -5237.6351 eV

Volume:                              0.999575E+04 au^3   0.148122E+04 A^3
Pressure:                            0.940458E-03 au     0.276692E+11 Pa
>> Charges saved for restart in charges.bin

total energy  -1.9247955E+02 H       energy change -5.3596528E-01 H
gradient norm  5.9235363E-01 H/a0    max. gradient  1.4446207E-01 H/a0
step length    7.8194834E-01 a0      max. step      1.7584129E-01 a0

--------------------------------------------------------------------------------

***  Geometry step: 4

 iSCC Total electronic   Diff electronic      SCC error    
    1   -0.19656885E+03    0.00000000E+00    0.59607266E-01
    2   -0.19615815E+03    0.41070271E+00    0.35851893E-01
    3   -0.19616074E+03   -0.25956726E-02    0.64538341E-02
    4   -0.19616136E+03   -0.61753597E-03    0.92515409E-03
    5   -0.19616140E+03   -0.36227831E-04    0.35606907E-03
    6   -0.19616140E+03   -0.10362812E-05    0.14085856E-03
    7   -0.19616140E+03   -0.22386160E-07    0.44149717E-04
    8   -0.19616140E+03   -0.20568223E-08    0.11277297E-04
    9   -0.19616140E+03   -0.28930458E-09    0.24235045E-05
   10   -0.19616140E+03   -0.76170181E-11    0.32027524E-06
   11   -0.19616140E+03   -0.48316906E-12    0.93127442E-07
   12   -0.19616140E+03   -0.17053026E-12    0.23771225E-07
   13   -0.19616140E+03    0.56843419E-13    0.27784459E-08

Total Energy:                     -192.8010544259 H        -5246.3836 eV
Extrapolated to 0K:               -192.8010544259 H        -5246.3836 eV
Total Mermin free energy:         -192.8010544259 H        -5246.3836 eV
Force related energy:             -192.8010544259 H        -5246.3836 eV

Volume:                              0.101421E+05 au^3   0.150290E+04 A^3
Pressure:                            0.646538E-03 au     0.190218E+11 Pa
>> Charges saved for restart in charges.bin

total energy  -1.9280105E+02 H       energy change -3.2150229E-01 H
gradient norm  4.5721341E-01 H/a0    max. gradient  2.5578958E-01 H/a0
step length    7.5255063E-01 a0      max. step      1.4017944E-01 a0

--------------------------------------------------------------------------------

***  Geometry step: 5

 iSCC Total electronic   Diff electronic      SCC error    
    1   -0.19616140E+03    0.00000000E+00    0.67425658E-01
    2   -0.19571997E+03    0.44142709E+00    0.41312573E-01
    3   -0.19572217E+03   -0.21940236E-02    0.75001522E-02
    4   -0.19572269E+03   -0.51992586E-03    0.12363817E-02
    5   -0.19572272E+03   -0.32451072E-04    0.30258697E-03
    6   -0.19572272E+03   -0.78115843E-06    0.77586951E-04
    7   -0.19572272E+03   -0.17181435E-07    0.25716283E-04
    8   -0.19572272E+03   -0.14601085E-08    0.70736427E-05
    9   -0.19572272E+03   -0.12599344E-09    0.22246757E-05
   10   -0.19572272E+03   -0.70201622E-11    0.32846907E-06
   11   -0.19572272E+03   -0.25579538E-12    0.34207878E-07
   12   -0.19572272E+03   -0.28421709E-13    0.12934675E-07
   13   -0.19572272E+03    0.00000000E+00    0.55466596E-08

Total Energy:                     -192.9869190580 H        -5251.4413 eV
Extrapolated to 0K:               -192.9869190580 H        -5251.4413 eV
Total Mermin free energy:         -192.9869190580 H        -5251.4413 eV
Force related energy:             -192.9869190580 H        -5251.4413 eV

Volume:                              0.103380E+05 au^3   0.153194E+04 A^3
Pressure:                            0.390032E-03 au     0.114751E+11 Pa
>> Charges saved for restart in charges.bin

total energy  -1.9298692E+02 H       energy change -1.8586463E-01 H
gradient norm  3.1667101E-01 H/a0    max. gradient  1.4947079E-01 H/a0
step length    7.0954523E-01 a0      max. step      2.4442005E-01 a0

--------------------------------------------------------------------------------

***  Geometry step: 6

 iSCC Total electronic   Diff electronic      SCC error    
    1   -0.19572272E+03    0.00000000E+00    0.51189403E-01
    2   -0.19539074E+03    0.33198297E+00    0.27847606E-01
    3   -0.19539208E+03   -0.13486321E-02    0.39812989E-02
    4   -0.19539239E+03   -0.30775706E-03    0.65115355E-03
    5   -0.19539241E+03   -0.14576956E-04    0.25366604E-03
    6   -0.19539241E+03   -0.47461845E-06    0.10646516E-03
    7   -0.19539241E+03   -0.71517263E-08    0.26232069E-04
    8   -0.19539241E+03   -0.69974249E-09    0.65139254E-05
    9   -0.19539241E+03   -0.92086339E-10    0.16455558E-05
   10   -0.19539241E+03   -0.28990144E-11    0.11724799E-06
   11   -0.19539241E+03   -0.19895197E-12    0.25020630E-07
   12   -0.19539241E+03   -0.85265128E-13    0.69549775E-08

Total Energy:                     -193.0735040497 H        -5253.7974 eV
Extrapolated to 0K:               -193.0735040497 H        -5253.7974 eV
Total Mermin free energy:         -193.0735040497 H        -5253.7974 eV
Force related energy:             -193.0735040497 H        -5253.7974 eV

Volume:                              0.104881E+05 au^3   0.155418E+04 A^3
Pressure:                            0.221475E-03 au     0.651603E+10 Pa
>> Charges saved for restart in charges.bin

total energy  -1.9307350E+02 H       energy change -8.6584992E-02 H
gradient norm  1.8403672E-01 H/a0    max. gradient  7.8768885E-02 H/a0
step length    5.6859110E-01 a0      max. step      1.1019237E-01 a0

--------------------------------------------------------------------------------

***  Geometry step: 7

 iSCC Total electronic   Diff electronic      SCC error    
    1   -0.19539241E+03    0.00000000E+00    0.38254781E-01
    2   -0.19520795E+03    0.18445590E+00    0.19228031E-01
    3   -0.19520898E+03   -0.10290129E-02    0.37706217E-02
    4   -0.19520915E+03   -0.17459238E-03    0.82184107E-03
    5   -0.19520916E+03   -0.51492512E-05    0.30121230E-03
    6   -0.19520916E+03   -0.34918696E-06    0.10300228E-03
    7   -0.19520916E+03   -0.83972509E-08    0.24545473E-04
    8   -0.19520916E+03   -0.44801141E-09    0.37856570E-05
    9   -0.19520916E+03   -0.65597305E-10    0.10911412E-05
   10   -0.19520916E+03   -0.32116532E-11    0.12706279E-06
   11   -0.19520916E+03   -0.85265128E-13    0.17234030E-07
   12   -0.19520916E+03    0.14210855E-12    0.40173500E-08

Total Energy:                     -193.1103151475 H        -5254.7990 eV
Extrapolated to 0K:               -193.1103151475 H        -5254.7990 eV
Total Mermin free energy:         -193.1103151475 H        -5254.7990 eV
Force related energy:             -193.1103151475 H        -5254.7990 eV

Volume:                              0.105660E+05 au^3   0.156571E+04 A^3
Pressure:                            0.137486E-03 au     0.404496E+10 Pa
>> Charges saved for restart in charges.bin

total energy  -1.9311032E+02 H       energy change -3.6811098E-02 H
gradient norm  1.4614140E-01 H/a0    max. gradient  4.4581545E-02 H/a0
step length    4.3980076E-01 a0      max. step      7.5731977E-02 a0

--------------------------------------------------------------------------------

***  Geometry step: 8

 iSCC Total electronic   Diff electronic      SCC error    
    1   -0.19520916E+03    0.00000000E+00    0.18309742E-01
    2   -0.19509515E+03    0.11400586E+00    0.87919956E-02
    3   -0.19509558E+03   -0.42380000E-03    0.27453920E-02
    4   -0.19509564E+03   -0.65224898E-04    0.48212751E-03
    5   -0.19509565E+03   -0.21857606E-05    0.90298121E-04
    6   -0.19509565E+03   -0.11085470E-06    0.13116658E-04
    7   -0.19509565E+03   -0.49745950E-08    0.51935856E-05
    8   -0.19509565E+03   -0.14378543E-09    0.19117520E-05
    9   -0.19509565E+03   -0.10459189E-10    0.53634735E-06
   10   -0.19509565E+03   -0.62527761E-12    0.12090527E-06
   11   -0.19509565E+03    0.28421709E-13    0.18098164E-07
   12   -0.19509565E+03    0.28421709E-13    0.36826591E-08

Total Energy:                     -193.1331875213 H        -5255.4214 eV
Extrapolated to 0K:               -193.1331875213 H        -5255.4214 eV
Total Mermin free energy:         -193.1331875213 H        -5255.4214 eV
Force related energy:             -193.1331875213 H        -5255.4214 eV

Volume:                              0.106304E+05 au^3   0.157526E+04 A^3
Pressure:                            0.790697E-04 au     0.232631E+10 Pa
>> Charges saved for restart in charges.bin

total energy  -1.9313319E+02 H       energy change -2.2872374E-02 H
gradient norm  1.1379204E-01 H/a0    max. gradient  2.6513511E-02 H/a0
step length    3.6999946E-01 a0      max. step      7.7533555E-02 a0

--------------------------------------------------------------------------------

***  Geometry step: 9

 iSCC Total electronic   Diff electronic      SCC error    
    1   -0.19509565E+03    0.00000000E+00    0.19879276E-01
    2   -0.19507559E+03    0.20054844E-01    0.11657751E-01
    3   -0.19507590E+03   -0.30679157E-03    0.31787054E-02
    4   -0.19507595E+03   -0.49662168E-04    0.44990359E-03
    5   -0.19507595E+03   -0.18893413E-05    0.13750877E-03
    6   -0.19507595E+03   -0.19345615E-06    0.48833754E-04
    7   -0.19507595E+03   -0.33311665E-08    0.10468106E-04
    8   -0.19507595E+03   -0.11050361E-09    0.17600796E-05
    9   -0.19507595E+03   -0.11851853E-10    0.24613042E-06
   10   -0.19507595E+03   -0.15347723E-11    0.64886743E-07
   11   -0.19507595E+03   -0.85265128E-13    0.11686385E-07
   12   -0.19507595E+03    0.00000000E+00    0.20708093E-08

Total Energy:                     -193.1533875534 H        -5255.9711 eV
Extrapolated to 0K:               -193.1533875534 H        -5255.9711 eV
Total Mermin free energy:         -193.1533875534 H        -5255.9711 eV
Force related energy:             -193.1533875534 H        -5255.9711 eV

Volume:                              0.106587E+05 au^3   0.157945E+04 A^3
Pressure:                            0.574859E-04 au     0.169129E+10 Pa
>> Charges saved for restart in charges.bin

total energy  -1.9315339E+02 H       energy change -2.0200032E-02 H
gradient norm  9.7040153E-02 H/a0    max. gradient  1.7237283E-02 H/a0
step length    3.5111659E-01 a0      max. step      6.1434743E-02 a0

--------------------------------------------------------------------------------

***  Geometry step: 10

 iSCC Total electronic   Diff electronic      SCC error    
    1   -0.19507595E+03    0.00000000E+00    0.30191129E-01
    2   -0.19511942E+03   -0.43473101E-01    0.17696211E-01
    3   -0.19511998E+03   -0.55890669E-03    0.28115173E-02
    4   -0.19512011E+03   -0.12508247E-03    0.52907024E-03
    5   -0.19512011E+03   -0.64345289E-05    0.22203465E-03
    6   -0.19512011E+03   -0.20190328E-06    0.72099769E-04
    7   -0.19512011E+03   -0.54941722E-08    0.11269743E-04
    8   -0.19512011E+03   -0.32090952E-09    0.26370884E-05
    9   -0.19512011E+03   -0.27597480E-10    0.56910297E-06
   10   -0.19512011E+03   -0.22453150E-11    0.10297554E-06
   11   -0.19512011E+03   -0.56843419E-13    0.16332776E-07
   12   -0.19512011E+03    0.00000000E+00    0.28546125E-08

Total Energy:                     -193.1745964795 H        -5256.5482 eV
Extrapolated to 0K:               -193.1745964795 H        -5256.5482 eV
Total Mermin free energy:         -193.1745964795 H        -5256.5482 eV
Force related energy:             -193.1745964795 H        -5256.5482 eV

Volume:                              0.106742E+05 au^3   0.158175E+04 A^3
Pressure:                            0.615870E-04 au     0.181195E+10 Pa
>> Charges saved for restart in charges.bin

total energy  -1.9317460E+02 H       energy change -2.1208926E-02 H
gradient norm  9.3981946E-02 H/a0    max. gradient  2.9902594E-02 H/a0
step length    4.4586784E-01 a0      max. step      6.7468212E-02 a0

--------------------------------------------------------------------------------

***  Geometry step: 11

 iSCC Total electronic   Diff electronic      SCC error    
    1   -0.19512011E+03    0.00000000E+00    0.24675404E-01
    2   -0.19517434E+03   -0.54231863E-01    0.14962879E-01
    3   -0.19517480E+03   -0.45538112E-03    0.28817720E-02
    4   -0.19517490E+03   -0.98452783E-04    0.54276398E-03
    5   -0.19517490E+03   -0.51642277E-05    0.20384287E-03
    6   -0.19517490E+03   -0.22272587E-06    0.60386664E-04
    7   -0.19517490E+03   -0.71282784E-08    0.11178762E-04
    8   -0.19517490E+03   -0.33574565E-09    0.23991778E-05
    9   -0.19517490E+03   -0.29416469E-10    0.40749522E-06
   10   -0.19517490E+03   -0.31548097E-11    0.89507521E-07
   11   -0.19517490E+03    0.00000000E+00    0.16848253E-07
   12   -0.19517490E+03   -0.11368684E-12    0.27090801E-08

Total Energy:                     -193.1868612592 H        -5256.8820 eV
Extrapolated to 0K:               -193.1868612592 H        -5256.8820 eV
Total Mermin free energy:         -193.1868612592 H        -5256.8820 eV
Force related energy:             -193.1868612592 H        -5256.8820 eV

Volume:                              0.106784E+05 au^3   0.158237E+04 A^3
Pressure:                            0.732898E-04 au     0.215626E+10 Pa
>> Charges saved for restart in charges.bin

total energy  -1.9318686E+02 H       energy change -1.2264780E-02 H
gradient norm  8.3882232E-02 H/a0    max. gradient  1.8108104E-02 H/a0
step length    3.4526590E-01 a0      max. step      4.9279394E-02 a0

--------------------------------------------------------------------------------

***  Geometry step: 12

 iSCC Total electronic   Diff electronic      SCC error    
    1   -0.19517490E+03    0.00000000E+00    0.21414359E-01
    2   -0.19520343E+03   -0.28529756E-01    0.12698266E-01
    3   -0.19520360E+03   -0.16243555E-03    0.18307078E-02
    4   -0.19520364E+03   -0.42455636E-04    0.49720074E-03
    5   -0.19520364E+03   -0.22657593E-05    0.19583081E-03
    6   -0.19520364E+03   -0.42865707E-07    0.42614402E-04
    7   -0.19520364E+03   -0.19102515E-08    0.45069062E-05
    8   -0.19520364E+03   -0.17760726E-09    0.83225395E-06
    9   -0.19520364E+03   -0.99191766E-11    0.20488002E-06
   10   -0.19520364E+03   -0.48316906E-12    0.54010127E-07
   11   -0.19520364E+03   -0.56843419E-13    0.11252684E-07
   12   -0.19520364E+03    0.85265128E-13    0.26841174E-08

Total Energy:                     -193.1965695647 H        -5257.1461 eV
Extrapolated to 0K:               -193.1965695647 H        -5257.1461 eV
Total Mermin free energy:         -193.1965695647 H        -5257.1461 eV
Force related energy:             -193.1965695647 H        -5257.1461 eV

Volume:                              0.106970E+05 au^3   0.158513E+04 A^3
Pressure:                            0.756679E-04 au     0.222623E+10 Pa
>> Charges saved for restart in charges.bin

total energy  -1.9319657E+02 H       energy change -9.7083055E-03 H
gradient norm  7.3643011E-02 H/a0    max. gradient  1.4571828E-02 H/a0
step length    2.9284261E-01 a0      max. step      4.5472540E-02 a0

--------------------------------------------------------------------------------

***  Geometry step: 13

 iSCC Total electronic   Diff electronic      SCC error    
    1   -0.19520364E+03    0.00000000E+00    0.23589442E-01
    2   -0.19521596E+03   -0.12315877E-01    0.13581803E-01
    3   -0.19521613E+03   -0.17694329E-03    0.22677849E-02
    4   -0.19521618E+03   -0.48544649E-04    0.57823508E-03
    5   -0.19521618E+03   -0.23763702E-05    0.18855966E-03
    6   -0.19521618E+03   -0.61901119E-07    0.55284700E-04
    7   -0.19521618E+03   -0.11896759E-08    0.50876242E-05
    8   -0.19521618E+03   -0.18110313E-09    0.72636993E-06
    9   -0.19521618E+03   -0.14352963E-10    0.13464061E-06
   10   -0.19521618E+03   -0.36948222E-12    0.27872141E-07
   11   -0.19521618E+03    0.28421709E-13    0.77725444E-08

Total Energy:                     -193.2069479403 H        -5257.4285 eV
Extrapolated to 0K:               -193.2069479403 H        -5257.4285 eV
Total Mermin free energy:         -193.2069479403 H        -5257.4285 eV
Force related energy:             -193.2069479403 H        -5257.4285 eV

Volume:                              0.107352E+05 au^3   0.159079E+04 A^3
Pressure:                            0.715616E-04 au     0.210541E+10 Pa
>> Charges saved for restart in charges.bin

total energy  -1.9320695E+02 H       energy change -1.0378376E-02 H
gradient norm  6.3856737E-02 H/a0    max. gradient  1.4716656E-02 H/a0
step length    3.3366110E-01 a0      max. step      5.6667062E-02 a0

--------------------------------------------------------------------------------

***  Geometry step: 14

 iSCC Total electronic   Diff electronic      SCC error    
    1   -0.19521618E+03    0.00000000E+00    0.16808575E-01
    2   -0.19519927E+03    0.16912863E-01    0.96690977E-02
    3   -0.19519937E+03   -0.98408865E-04    0.18232590E-02
    4   -0.19519940E+03   -0.26069225E-04    0.48602982E-03
    5   -0.19519940E+03   -0.12827554E-05    0.18313814E-03
    6   -0.19519940E+03   -0.45276039E-07    0.45371134E-04
    7   -0.19519940E+03   -0.12736052E-08    0.44729430E-05
    8   -0.19519940E+03   -0.12602186E-09    0.77535971E-06
    9   -0.19519940E+03   -0.86401997E-11    0.23049334E-06
   10   -0.19519940E+03   -0.62527761E-12    0.30460809E-07
   11   -0.19519940E+03   -0.11368684E-12    0.53746838E-08

Total Energy:                     -193.2139927883 H        -5257.6202 eV
Extrapolated to 0K:               -193.2139927883 H        -5257.6202 eV
Total Mermin free energy:         -193.2139927883 H        -5257.6202 eV
Force related energy:             -193.2139927883 H        -5257.6202 eV

Volume:                              0.107856E+05 au^3   0.159826E+04 A^3
Pressure:                            0.595383E-04 au     0.175168E+10 Pa
>> Charges saved for restart in charges.bin

total energy  -1.9321399E+02 H       energy change -7.0448480E-03 H
gradient norm  5.4748446E-02 H/a0    max. gradient  1.0415451E-02 H/a0
step length    2.8498748E-01 a0      max. step      4.8409636E-02 a0

--------------------------------------------------------------------------------

***  Geometry step: 15

 iSCC Total electronic   Diff electronic      SCC error    
    1   -0.19519940E+03    0.00000000E+00    0.88687855E-02
    2   -0.19516787E+03    0.31526338E-01    0.51846670E-02
    3   -0.19516791E+03   -0.37050943E-04    0.12160073E-02
    4   -0.19516792E+03   -0.84910539E-05    0.31339438E-03
    5   -0.19516792E+03   -0.47677136E-06    0.12079463E-03
    6   -0.19516792E+03   -0.19669528E-07    0.30440832E-04
    7   -0.19516792E+03   -0.51244342E-09    0.29815706E-05
    8   -0.19516792E+03   -0.54996008E-10    0.43602346E-06
    9   -0.19516792E+03   -0.32116532E-11    0.15835737E-06
   10   -0.19516792E+03   -0.22737368E-12    0.16942225E-07
   11   -0.19516792E+03    0.28421709E-13    0.32416527E-08

Total Energy:                     -193.2185811450 H        -5257.7451 eV
Extrapolated to 0K:               -193.2185811450 H        -5257.7451 eV
Total Mermin free energy:         -193.2185811450 H        -5257.7451 eV
Force related energy:             -193.2185811450 H        -5257.7451 eV

Volume:                              0.108368E+05 au^3   0.160585E+04 A^3
Pressure:                            0.420115E-04 au     0.123602E+10 Pa
>> Charges saved for restart in charges.bin

total energy  -1.9321858E+02 H       energy change -4.5883567E-03 H
gradient norm  4.8915744E-02 H/a0    max. gradient  8.2880516E-03 H/a0
step length    2.3362420E-01 a0      max. step      4.2507821E-02 a0

--------------------------------------------------------------------------------

***  Geometry step: 16

 iSCC Total electronic   Diff electronic      SCC error    
    1   -0.19516792E+03    0.00000000E+00    0.80482179E-02
    2   -0.19514150E+03    0.26418074E-01    0.45142113E-02
    3   -0.19514153E+03   -0.31819070E-04    0.97570982E-03
    4   -0.19514154E+03   -0.54994292E-05    0.24059335E-03
    5   -0.19514154E+03   -0.29709781E-06    0.93147273E-04
    6   -0.19514154E+03   -0.16307581E-07    0.26253718E-04
    7   -0.19514154E+03   -0.46603077E-09    0.34647633E-05
    8   -0.19514154E+03   -0.33253400E-10    0.50746555E-06
    9   -0.19514154E+03   -0.27000624E-11    0.13343551E-06
   10   -0.19514154E+03   -0.19895197E-12    0.26229185E-07
   11   -0.19514154E+03    0.85265128E-13    0.25168676E-08

Total Energy:                     -193.2229262011 H        -5257.8633 eV
Extrapolated to 0K:               -193.2229262011 H        -5257.8633 eV
Total Mermin free energy:         -193.2229262011 H        -5257.8633 eV
Force related energy:             -193.2229262011 H        -5257.8633 eV

Volume:                              0.108851E+05 au^3   0.161301E+04 A^3
Pressure:                            0.263038E-04 au     0.773884E+09 Pa
>> Charges saved for restart in charges.bin

total energy  -1.9322293E+02 H       energy change -4.3450561E-03 H
gradient norm  4.8404371E-02 H/a0    max. gradient  9.5614434E-03 H/a0
step length    2.3069848E-01 a0      max. step      4.3328929E-02 a0

--------------------------------------------------------------------------------

***  Geometry step: 17

 iSCC Total electronic   Diff electronic      SCC error    
    1   -0.19514154E+03    0.00000000E+00    0.11636117E-01
    2   -0.19513155E+03    0.99885514E-02    0.68220746E-02
    3   -0.19513160E+03   -0.50712023E-04    0.17093720E-02
    4   -0.19513161E+03   -0.85873235E-05    0.17373153E-03
    5   -0.19513161E+03   -0.42800306E-06    0.62029008E-04
    6   -0.19513161E+03   -0.30462047E-07    0.20091790E-04
    7   -0.19513161E+03   -0.83059604E-09    0.46228643E-05
    8   -0.19513161E+03   -0.29984903E-10    0.11969113E-05
    9   -0.19513161E+03   -0.26716407E-11    0.19815625E-06
   10   -0.19513161E+03   -0.28421709E-12    0.27740645E-07
   11   -0.19513161E+03    0.56843419E-13    0.40754840E-08

Total Energy:                     -193.2278195512 H        -5257.9965 eV
Extrapolated to 0K:               -193.2278195512 H        -5257.9965 eV
Total Mermin free energy:         -193.2278195512 H        -5257.9965 eV
Force related energy:             -193.2278195512 H        -5257.9965 eV

Volume:                              0.109306E+05 au^3   0.161974E+04 A^3
Pressure:                            0.171839E-04 au     0.505567E+09 Pa
>> Charges saved for restart in charges.bin

total energy  -1.9322782E+02 H       energy change -4.8933501E-03 H
gradient norm  5.4639680E-02 H/a0    max. gradient  1.1355047E-02 H/a0
step length    2.6979923E-01 a0      max. step      4.8563898E-02 a0

--------------------------------------------------------------------------------

***  Geometry step: 18

 iSCC Total electronic   Diff electronic      SCC error    
    1   -0.19513161E+03    0.00000000E+00    0.15209848E-01
    2   -0.19513962E+03   -0.80078767E-02    0.89588086E-02
    3   -0.19513970E+03   -0.84019334E-04    0.25065343E-02
    4   -0.19513971E+03   -0.12691489E-04    0.21985417E-03
    5   -0.19513971E+03   -0.69702253E-06    0.37085261E-04
    6   -0.19513971E+03   -0.43399893E-07    0.11118152E-04
    7   -0.19513971E+03   -0.11571615E-08    0.29874443E-05
    8   -0.19513971E+03   -0.31377567E-10    0.10929014E-05
    9   -0.19513971E+03   -0.17053026E-11    0.33107899E-06
   10   -0.19513971E+03   -0.25579538E-12    0.63678995E-07
   11   -0.19513971E+03   -0.56843419E-13    0.48553597E-08

Total Energy:                     -193.2332397412 H        -5258.1440 eV
Extrapolated to 0K:               -193.2332397412 H        -5258.1440 eV
Total Mermin free energy:         -193.2332397412 H        -5258.1440 eV
Force related energy:             -193.2332397412 H        -5258.1440 eV

Volume:                              0.109694E+05 au^3   0.162550E+04 A^3
Pressure:                            0.161760E-04 au     0.475913E+09 Pa
>> Charges saved for restart in charges.bin

total energy  -1.9323324E+02 H       energy change -5.4201899E-03 H
gradient norm  5.5688413E-02 H/a0    max. gradient  1.1200440E-02 H/a0
step length    3.0646645E-01 a0      max. step      5.1552054E-02 a0

--------------------------------------------------------------------------------

***  Geometry step: 19

 iSCC Total electronic   Diff electronic      SCC error    
    1   -0.19513971E+03    0.00000000E+00    0.14539933E-01
    2   -0.19516017E+03   -0.20458679E-01    0.85913768E-02
    3   -0.19516031E+03   -0.14101690E-03    0.27197311E-02
    4   -0.19516033E+03   -0.18504186E-04    0.31215869E-03
    5   -0.19516033E+03   -0.98021584E-06    0.81661341E-04
    6   -0.19516033E+03   -0.56194381E-07    0.30237489E-04
    7   -0.19516033E+03   -0.15441799E-08    0.70823760E-05
    8   -0.19516033E+03   -0.56814997E-10    0.20404351E-05
    9   -0.19516033E+03   -0.32969183E-11    0.40022317E-06
   10   -0.19516033E+03   -0.51159077E-12    0.39415438E-07
   11   -0.19516033E+03   -0.85265128E-13    0.62971997E-08

Total Energy:                     -193.2386830231 H        -5258.2921 eV
Extrapolated to 0K:               -193.2386830231 H        -5258.2921 eV
Total Mermin free energy:         -193.2386830231 H        -5258.2921 eV
Force related energy:             -193.2386830231 H        -5258.2921 eV

Volume:                              0.110042E+05 au^3   0.163065E+04 A^3
Pressure:                            0.202614E-04 au     0.596110E+09 Pa
>> Charges saved for restart in charges.bin

total energy  -1.9323868E+02 H       energy change -5.4432819E-03 H
gradient norm  4.9819632E-02 H/a0    max. gradient  1.1582866E-02 H/a0
step length    3.4850356E-01 a0      max. step      6.4315352E-02 a0

--------------------------------------------------------------------------------

***  Geometry step: 20

 iSCC Total electronic   Diff electronic      SCC error    
    1   -0.19516033E+03    0.00000000E+00    0.10153733E-01
    2   -0.19517883E+03   -0.18492616E-01    0.52504762E-02
    3   -0.19517896E+03   -0.12955985E-03    0.17510308E-02
    4   -0.19517897E+03   -0.14283244E-04    0.35066557E-03
    5   -0.19517897E+03   -0.62640999E-06    0.10654495E-03
    6   -0.19517897E+03   -0.39673779E-07    0.34782083E-04
    7   -0.19517897E+03   -0.10769838E-08    0.57978820E-05
    8   -0.19517897E+03   -0.53518079E-10    0.13231917E-05
    9   -0.19517897E+03   -0.35811354E-11    0.24078358E-06
   10   -0.19517897E+03   -0.28421709E-12    0.31986138E-07
   11   -0.19517897E+03   -0.11368684E-12    0.50698512E-08

Total Energy:                     -193.2430312087 H        -5258.4104 eV
Extrapolated to 0K:               -193.2430312087 H        -5258.4104 eV
Total Mermin free energy:         -193.2430312087 H        -5258.4104 eV
Force related energy:             -193.2430312087 H        -5258.4104 eV

Volume:                              0.110360E+05 au^3   0.163537E+04 A^3
Pressure:                            0.243924E-04 au     0.717648E+09 Pa
>> Charges saved for restart in charges.bin

total energy  -1.9324303E+02 H       energy change -4.3481856E-03 H
gradient norm  4.2573412E-02 H/a0    max. gradient  1.1330011E-02 H/a0
step length    3.2753962E-01 a0      max. step      6.0085358E-02 a0

--------------------------------------------------------------------------------

***  Geometry step: 21

 iSCC Total electronic   Diff electronic      SCC error    
    1   -0.19517897E+03    0.00000000E+00    0.10099877E-01
    2   -0.19518898E+03   -0.10014000E-01    0.51117998E-02
    3   -0.19518911E+03   -0.12154494E-03    0.16802146E-02
    4   -0.19518912E+03   -0.14440292E-04    0.39880945E-03
    5   -0.19518912E+03   -0.61004570E-06    0.11694881E-03
    6   -0.19518912E+03   -0.35279214E-07    0.34877563E-04
    7   -0.19518912E+03   -0.10561507E-08    0.55100259E-05
    8   -0.19518912E+03   -0.64176220E-10    0.10317775E-05
    9   -0.19518912E+03   -0.48601123E-11    0.21176542E-06
   10   -0.19518912E+03   -0.39790393E-12    0.27802150E-07
   11   -0.19518912E+03   -0.28421709E-13    0.34243728E-08

Total Energy:                     -193.2466915543 H        -5258.5100 eV
Extrapolated to 0K:               -193.2466915543 H        -5258.5100 eV
Total Mermin free energy:         -193.2466915543 H        -5258.5100 eV
Force related energy:             -193.2466915543 H        -5258.5100 eV

Volume:                              0.110719E+05 au^3   0.164069E+04 A^3
Pressure:                            0.250613E-04 au     0.737330E+09 Pa
>> Charges saved for restart in charges.bin

total energy  -1.9324669E+02 H       energy change -3.6603456E-03 H
gradient norm  3.7428343E-02 H/a0    max. gradient  8.9337507E-03 H/a0
step length    3.1570005E-01 a0      max. step      5.8059526E-02 a0

--------------------------------------------------------------------------------

***  Geometry step: 22

 iSCC Total electronic   Diff electronic      SCC error    
    1   -0.19518912E+03    0.00000000E+00    0.96199367E-02
    2   -0.19518661E+03    0.25118017E-02    0.52850268E-02
    3   -0.19518667E+03   -0.59989050E-04    0.11604224E-02
    4   -0.19518668E+03   -0.10085436E-04    0.27867417E-03
    5   -0.19518668E+03   -0.46704773E-06    0.87799715E-04
    6   -0.19518668E+03   -0.24127331E-07    0.25479048E-04
    7   -0.19518668E+03   -0.81001872E-09    0.52522594E-05
    8   -0.19518668E+03   -0.42177817E-10    0.96077458E-06
    9   -0.19518668E+03   -0.35242920E-11    0.12244395E-06
   10   -0.19518668E+03   -0.17053026E-12    0.17862815E-07
   11   -0.19518668E+03   -0.14210855E-12    0.30031733E-08

Total Energy:                     -193.2489883323 H        -5258.5725 eV
Extrapolated to 0K:               -193.2489883323 H        -5258.5725 eV
Total Mermin free energy:         -193.2489883323 H        -5258.5725 eV
Force related energy:             -193.2489883323 H        -5258.5725 eV

Volume:                              0.111063E+05 au^3   0.164578E+04 A^3
Pressure:                            0.224123E-04 au     0.659392E+09 Pa
>> Charges saved for restart in charges.bin

total energy  -1.9324899E+02 H       energy change -2.2967780E-03 H
gradient norm  3.4218733E-02 H/a0    max. gradient  8.1124406E-03 H/a0
step length    2.3779844E-01 a0      max. step      4.3197642E-02 a0

--------------------------------------------------------------------------------

***  Geometry step: 23

 iSCC Total electronic   Diff electronic      SCC error    
    1   -0.19518668E+03    0.00000000E+00    0.67638045E-02
    2   -0.19517458E+03    0.12095436E-01    0.37683733E-02
    3   -0.19517460E+03   -0.20325420E-04    0.64981062E-03
    4   -0.19517461E+03   -0.45406597E-05    0.11001568E-03
    5   -0.19517461E+03   -0.20815483E-06    0.41543921E-04
    6   -0.19517461E+03   -0.55696603E-08    0.12951777E-04
    7   -0.19517461E+03   -0.21941560E-09    0.28472730E-05
    8   -0.19517461E+03   -0.97486463E-11    0.60158304E-06
    9   -0.19517461E+03   -0.93791641E-12    0.64323125E-07
   10   -0.19517461E+03   -0.85265128E-13    0.11574728E-07
   11   -0.19517461E+03    0.28421709E-13    0.28586067E-08

Total Energy:                     -193.2503116416 H        -5258.6085 eV
Extrapolated to 0K:               -193.2503116416 H        -5258.6085 eV
Total Mermin free energy:         -193.2503116416 H        -5258.6085 eV
Force related energy:             -193.2503116416 H        -5258.6085 eV

Volume:                              0.111343E+05 au^3   0.164993E+04 A^3
Pressure:                            0.161021E-04 au     0.473741E+09 Pa
>> Charges saved for restart in charges.bin

total energy  -1.9325031E+02 H       energy change -1.3233093E-03 H
gradient norm  2.5780705E-02 H/a0    max. gradient  6.0308226E-03 H/a0
step length    1.3618250E-01 a0      max. step      2.4421087E-02 a0

--------------------------------------------------------------------------------

***  Geometry step: 24

 iSCC Total electronic   Diff electronic      SCC error    
    1   -0.19517461E+03    0.00000000E+00    0.42532567E-02
    2   -0.19516432E+03    0.10285941E-01    0.24420032E-02
    3   -0.19516435E+03   -0.24787147E-04    0.68277436E-03
    4   -0.19516435E+03   -0.41282419E-05    0.83366992E-04
    5   -0.19516435E+03   -0.13723570E-06    0.18371354E-04
    6   -0.19516435E+03   -0.72346893E-08    0.67933722E-05
    7   -0.19516435E+03   -0.10751933E-09    0.21041419E-05
    8   -0.19516435E+03   -0.37232439E-11    0.38735331E-06
    9   -0.19516435E+03   -0.45474735E-12    0.44839840E-07
   10   -0.19516435E+03    0.00000000E+00    0.73634467E-08

Total Energy:                     -193.2512230758 H        -5258.6333 eV
Extrapolated to 0K:               -193.2512230758 H        -5258.6333 eV
Total Mermin free energy:         -193.2512230758 H        -5258.6333 eV
Force related energy:             -193.2512230758 H        -5258.6333 eV

Volume:                              0.111554E+05 au^3   0.165306E+04 A^3
Pressure:                            0.108314E-04 au     0.318670E+09 Pa
>> Charges saved for restart in charges.bin

total energy  -1.9325122E+02 H       energy change -9.1143423E-04 H
gradient norm  2.0712136E-02 H/a0    max. gradient  5.2921999E-03 H/a0
step length    8.7676750E-02 a0      max. step      2.1561163E-02 a0

--------------------------------------------------------------------------------

***  Geometry step: 25

 iSCC Total electronic   Diff electronic      SCC error    
    1   -0.19516435E+03    0.00000000E+00    0.39118909E-02
    2   -0.19516151E+03    0.28385642E-02    0.14221464E-02
    3   -0.19516153E+03   -0.16679121E-04    0.49933303E-03
    4   -0.19516153E+03   -0.21125416E-05    0.87632406E-04
    5   -0.19516153E+03   -0.55233699E-07    0.23173419E-04
    6   -0.19516153E+03   -0.37084078E-08    0.79317970E-05
    7   -0.19516153E+03   -0.63693051E-10    0.11777559E-05
    8   -0.19516153E+03   -0.38937742E-11    0.24690878E-06
    9   -0.19516153E+03   -0.22737368E-12    0.44524046E-07
   10   -0.19516153E+03   -0.17053026E-12    0.11633782E-07
   11   -0.19516153E+03    0.00000000E+00    0.16366877E-08

Total Energy:                     -193.2518977930 H        -5258.6517 eV
Extrapolated to 0K:               -193.2518977930 H        -5258.6517 eV
Total Mermin free energy:         -193.2518977930 H        -5258.6517 eV
Force related energy:             -193.2518977930 H        -5258.6517 eV

Volume:                              0.111703E+05 au^3   0.165527E+04 A^3
Pressure:                            0.850540E-05 au     0.250237E+09 Pa
>> Charges saved for restart in charges.bin

total energy  -1.9325190E+02 H       energy change -6.7471715E-04 H
gradient norm  2.2603873E-02 H/a0    max. gradient  5.0911399E-03 H/a0
step length    7.0775874E-02 a0      max. step      1.9163691E-02 a0

--------------------------------------------------------------------------------

***  Geometry step: 26

 iSCC Total electronic   Diff electronic      SCC error    
    1   -0.19516153E+03    0.00000000E+00    0.64016298E-02
    2   -0.19516276E+03   -0.12263094E-02    0.26068526E-02
    3   -0.19516279E+03   -0.29889608E-04    0.87242448E-03
    4   -0.19516279E+03   -0.37706887E-05    0.13575016E-03
    5   -0.19516279E+03   -0.14126516E-06    0.40761905E-04
    6   -0.19516279E+03   -0.75435196E-08    0.12146793E-04
    7   -0.19516279E+03   -0.16831336E-09    0.11847177E-05
    8   -0.19516279E+03   -0.15631940E-10    0.26556689E-06
    9   -0.19516279E+03   -0.85265128E-12    0.94083036E-07
   10   -0.19516279E+03   -0.28421709E-13    0.16744154E-07
   11   -0.19516279E+03    0.00000000E+00    0.14176540E-08

Total Energy:                     -193.2529094623 H        -5258.6792 eV
Extrapolated to 0K:               -193.2529094623 H        -5258.6792 eV
Total Mermin free energy:         -193.2529094623 H        -5258.6792 eV
Force related energy:             -193.2529094623 H        -5258.6792 eV

Volume:                              0.111942E+05 au^3   0.165881E+04 A^3
Pressure:                            0.716992E-05 au     0.210946E+09 Pa
>> Charges saved for restart in charges.bin

total energy  -1.9325291E+02 H       energy change -1.0116693E-03 H
gradient norm  2.4839610E-02 H/a0    max. gradient  6.3185100E-03 H/a0
step length    1.2351818E-01 a0      max. step      3.3811360E-02 a0

--------------------------------------------------------------------------------

***  Geometry step: 27

 iSCC Total electronic   Diff electronic      SCC error    
    1   -0.19516279E+03    0.00000000E+00    0.62332667E-02
    2   -0.19516849E+03   -0.56990698E-02    0.30679754E-02
    3   -0.19516852E+03   -0.29390847E-04    0.10287055E-02
    4   -0.19516853E+03   -0.43561525E-05    0.18173749E-03
    5   -0.19516853E+03   -0.21356144E-06    0.55244630E-04
    6   -0.19516853E+03   -0.85572367E-08    0.15296460E-04
    7   -0.19516853E+03   -0.20796165E-09    0.18174667E-05
    8   -0.19516853E+03   -0.19582558E-10    0.33283662E-06
    9   -0.19516853E+03   -0.16768809E-11    0.10661445E-06
   10   -0.19516853E+03   -0.14210855E-12    0.15178991E-07
   11   -0.19516853E+03   -0.28421709E-13    0.26453235E-08

Total Energy:                     -193.2539035047 H        -5258.7063 eV
Extrapolated to 0K:               -193.2539035047 H        -5258.7063 eV
Total Mermin free energy:         -193.2539035047 H        -5258.7063 eV
Force related energy:             -193.2539035047 H        -5258.7063 eV

Volume:                              0.112230E+05 au^3   0.166308E+04 A^3
Pressure:                            0.735110E-05 au     0.216277E+09 Pa
>> Charges saved for restart in charges.bin

total energy  -1.9325390E+02 H       energy change -9.9404241E-04 H
gradient norm  2.3251690E-02 H/a0    max. gradient  5.4608292E-03 H/a0
step length    1.5651739E-01 a0      max. step      4.0830466E-02 a0

--------------------------------------------------------------------------------

***  Geometry step: 28

 iSCC Total electronic   Diff electronic      SCC error    
    1   -0.19516853E+03    0.00000000E+00    0.46380322E-02
    2   -0.19517488E+03   -0.63579509E-02    0.26767697E-02
    3   -0.19517490E+03   -0.17633630E-04    0.80685646E-03
    4   -0.19517490E+03   -0.31203286E-05    0.15194448E-03
    5   -0.19517490E+03   -0.17414467E-06    0.52872555E-04
    6   -0.19517490E+03   -0.48404445E-08    0.11885339E-04
    7   -0.19517490E+03   -0.12556711E-09    0.17316090E-05
    8   -0.19517490E+03   -0.10288659E-10    0.26521386E-06
    9   -0.19517490E+03   -0.14210855E-11    0.88229283E-07
   10   -0.19517490E+03   -0.85265128E-13    0.10208415E-07
   11   -0.19517490E+03    0.56843419E-13    0.22824596E-08

Total Energy:                     -193.2546635583 H        -5258.7270 eV
Extrapolated to 0K:               -193.2546635583 H        -5258.7270 eV
Total Mermin free energy:         -193.2546635583 H        -5258.7270 eV
Force related energy:             -193.2546635583 H        -5258.7270 eV

Volume:                              0.112491E+05 au^3   0.166694E+04 A^3
Pressure:                            0.828575E-05 au     0.243775E+09 Pa
>> Charges saved for restart in charges.bin

total energy  -1.9325466E+02 H       energy change -7.6005354E-04 H
gradient norm  1.8282759E-02 H/a0    max. gradient  4.5952996E-03 H/a0
step length    1.4873169E-01 a0      max. step      3.5513119E-02 a0

--------------------------------------------------------------------------------

***  Geometry step: 29

 iSCC Total electronic   Diff electronic      SCC error    
    1   -0.19517490E+03    0.00000000E+00    0.49884341E-02
    2   -0.19517906E+03   -0.41578151E-02    0.28446319E-02
    3   -0.19517907E+03   -0.10674137E-04    0.53107800E-03
    4   -0.19517907E+03   -0.20144525E-05    0.92593382E-04
    5   -0.19517908E+03   -0.10507719E-06    0.36913213E-04
    6   -0.19517908E+03   -0.21002222E-08    0.83817186E-05
    7   -0.19517908E+03   -0.51102234E-10    0.13440426E-05
    8   -0.19517908E+03   -0.41779913E-11    0.18605670E-06
    9   -0.19517908E+03   -0.54001248E-12    0.62302177E-07
   10   -0.19517908E+03    0.85265128E-13    0.57350769E-08

Total Energy:                     -193.2551866670 H        -5258.7412 eV
Extrapolated to 0K:               -193.2551866670 H        -5258.7412 eV
Total Mermin free energy:         -193.2551866670 H        -5258.7412 eV
Force related energy:             -193.2551866670 H        -5258.7412 eV

Volume:                              0.112687E+05 au^3   0.166985E+04 A^3
Pressure:                            0.906345E-05 au     0.266656E+09 Pa
>> Charges saved for restart in charges.bin

total energy  -1.9325519E+02 H       energy change -5.2310873E-04 H
gradient norm  1.5720032E-02 H/a0    max. gradient  5.7085657E-03 H/a0
step length    1.1799486E-01 a0      max. step      2.5207764E-02 a0

--------------------------------------------------------------------------------

***  Geometry step: 30

 iSCC Total electronic   Diff electronic      SCC error    
    1   -0.19517908E+03    0.00000000E+00    0.38476796E-02
    2   -0.19517891E+03    0.16022804E-03    0.21672827E-02
    3   -0.19517892E+03   -0.55180626E-05    0.36937537E-03
    4   -0.19517892E+03   -0.10869711E-05    0.45211276E-04
    5   -0.19517892E+03   -0.54298994E-07    0.17656562E-04
    6   -0.19517892E+03   -0.85557872E-09    0.42094675E-05
    7   -0.19517892E+03   -0.22907898E-10    0.64821605E-06
    8   -0.19517892E+03   -0.22737368E-11    0.88671836E-07
    9   -0.19517892E+03   -0.56843419E-13    0.30353873E-07
   10   -0.19517892E+03    0.56843419E-13    0.41753325E-08

Total Energy:                     -193.2555723811 H        -5258.7517 eV
Extrapolated to 0K:               -193.2555723811 H        -5258.7517 eV
Total Mermin free energy:         -193.2555723811 H        -5258.7517 eV
Force related energy:             -193.2555723811 H        -5258.7517 eV

Volume:                              0.112823E+05 au^3   0.167187E+04 A^3
Pressure:                            0.864026E-05 au     0.254205E+09 Pa
>> Charges saved for restart in charges.bin

total energy  -1.9325557E+02 H       energy change -3.8571414E-04 H
gradient norm  1.5944889E-02 H/a0    max. gradient  5.5140125E-03 H/a0
step length    8.2056043E-02 a0      max. step      1.6979113E-02 a0

--------------------------------------------------------------------------------

***  Geometry step: 31

 iSCC Total electronic   Diff electronic      SCC error    
    1   -0.19517892E+03    0.00000000E+00    0.27642060E-02
    2   -0.19517572E+03    0.32065291E-02    0.15289475E-02
    3   -0.19517572E+03   -0.53701620E-05    0.37645025E-03
    4   -0.19517572E+03   -0.10655421E-05    0.65266484E-04
    5   -0.19517572E+03   -0.48510174E-07    0.22127791E-04
    6   -0.19517572E+03   -0.11111467E-08    0.48763700E-05
    7   -0.19517572E+03   -0.26744829E-10    0.88684594E-06
    8   -0.19517572E+03   -0.21032065E-11    0.13520195E-06
    9   -0.19517572E+03   -0.14210855E-12    0.37291011E-07
   10   -0.19517572E+03    0.28421709E-13    0.46000093E-08

Total Energy:                     -193.2559622258 H        -5258.7623 eV
Extrapolated to 0K:               -193.2559622258 H        -5258.7623 eV
Total Mermin free energy:         -193.2559622258 H        -5258.7623 eV
Force related energy:             -193.2559622258 H        -5258.7623 eV

Volume:                              0.112938E+05 au^3   0.167357E+04 A^3
Pressure:                            0.671178E-05 au     0.197467E+09 Pa
>> Charges saved for restart in charges.bin

total energy  -1.9325596E+02 H       energy change -3.8984463E-04 H
gradient norm  1.5714824E-02 H/a0    max. gradient  4.0126092E-03 H/a0
step length    7.5619546E-02 a0      max. step      1.4223527E-02 a0

--------------------------------------------------------------------------------

***  Geometry step: 32

 iSCC Total electronic   Diff electronic      SCC error    
    1   -0.19517572E+03    0.00000000E+00    0.30345618E-02
    2   -0.19517162E+03    0.41022019E-02    0.18090796E-02
    3   -0.19517163E+03   -0.59527072E-05    0.42983432E-03
    4   -0.19517163E+03   -0.11098476E-05    0.73053462E-04
    5   -0.19517163E+03   -0.51909296E-07    0.22737165E-04
    6   -0.19517163E+03   -0.19845174E-08    0.48835994E-05
    7   -0.19517163E+03   -0.50363269E-10    0.10586216E-05
    8   -0.19517163E+03   -0.26716407E-11    0.18313095E-06
    9   -0.19517163E+03   -0.28421709E-12    0.42248268E-07
   10   -0.19517163E+03    0.56843419E-13    0.69861921E-08

Total Energy:                     -193.2564039183 H        -5258.7743 eV
Extrapolated to 0K:               -193.2564039183 H        -5258.7743 eV
Total Mermin free energy:         -193.2564039183 H        -5258.7743 eV
Force related energy:             -193.2564039183 H        -5258.7743 eV

Volume:                              0.113038E+05 au^3   0.167505E+04 A^3
Pressure:                            0.456403E-05 au     0.134278E+09 Pa
>> Charges saved for restart in charges.bin

total energy  -1.9325640E+02 H       energy change -4.4169254E-04 H
gradient norm  1.6183550E-02 H/a0    max. gradient  2.8001107E-03 H/a0
step length    8.8514424E-02 a0      max. step      1.9689752E-02 a0

--------------------------------------------------------------------------------

***  Geometry step: 33

 iSCC Total electronic   Diff electronic      SCC error    
    1   -0.19517163E+03    0.00000000E+00    0.28164136E-02
    2   -0.19516861E+03    0.30170888E-02    0.16560067E-02
    3   -0.19516862E+03   -0.70629924E-05    0.41935955E-03
    4   -0.19516862E+03   -0.12326005E-05    0.64795994E-04
    5   -0.19516862E+03   -0.53481727E-07    0.18926849E-04
    6   -0.19516862E+03   -0.21888127E-08    0.43127440E-05
    7   -0.19516862E+03   -0.61902483E-10    0.10411599E-05
    8   -0.19516862E+03   -0.28421709E-11    0.17212541E-06
    9   -0.19516862E+03   -0.36948222E-12    0.42245946E-07
   10   -0.19516862E+03   -0.28421709E-13    0.79392555E-08

Total Energy:                     -193.2568986850 H        -5258.7878 eV
Extrapolated to 0K:               -193.2568986850 H        -5258.7878 eV
Total Mermin free energy:         -193.2568986850 H        -5258.7878 eV
Force related energy:             -193.2568986850 H        -5258.7878 eV

Volume:                              0.113137E+05 au^3   0.167651E+04 A^3
Pressure:                            0.280499E-05 au     0.825258E+08 Pa
>> Charges saved for restart in charges.bin

total energy  -1.9325690E+02 H       energy change -4.9476667E-04 H
gradient norm  1.7805932E-02 H/a0    max. gradient  2.9213529E-03 H/a0
step length    1.1026928E-01 a0      max. step      2.5668086E-02 a0

--------------------------------------------------------------------------------

***  Geometry step: 34

 iSCC Total electronic   Diff electronic      SCC error    
    1   -0.19516862E+03    0.00000000E+00    0.36865744E-02
    2   -0.19516779E+03    0.82885807E-03    0.21020704E-02
    3   -0.19516780E+03   -0.86083307E-05    0.49318796E-03
    4   -0.19516780E+03   -0.14180649E-05    0.85718067E-04
    5   -0.19516780E+03   -0.68968632E-07    0.29560711E-04
    6   -0.19516780E+03   -0.20826008E-08    0.73294175E-05
    7   -0.19516780E+03   -0.63039352E-10    0.13471770E-05
    8   -0.19516780E+03   -0.36664005E-11    0.26710482E-06
    9   -0.19516780E+03   -0.45474735E-12    0.44422033E-07
   10   -0.19516780E+03    0.00000000E+00    0.68746155E-08

Total Energy:                     -193.2575065290 H        -5258.8043 eV
Extrapolated to 0K:               -193.2575065290 H        -5258.8043 eV
Total Mermin free energy:         -193.2575065290 H        -5258.8043 eV
Force related energy:             -193.2575065290 H        -5258.8043 eV

Volume:                              0.113256E+05 au^3   0.167828E+04 A^3
Pressure:                            0.172000E-05 au     0.506041E+08 Pa
>> Charges saved for restart in charges.bin

total energy  -1.9325751E+02 H       energy change -6.0784401E-04 H
gradient norm  1.9472925E-02 H/a0    max. gradient  4.0497887E-03 H/a0
step length    1.4822568E-01 a0      max. step      3.4424908E-02 a0

--------------------------------------------------------------------------------

***  Geometry step: 35

 iSCC Total electronic   Diff electronic      SCC error    
    1   -0.19516780E+03    0.00000000E+00    0.43286870E-02
    2   -0.19517131E+03   -0.35127223E-02    0.24834667E-02
    3   -0.19517132E+03   -0.96039956E-05    0.59452996E-03
    4   -0.19517132E+03   -0.15321627E-05    0.91158848E-04
    5   -0.19517132E+03   -0.80675051E-07    0.34257706E-04
    6   -0.19517132E+03   -0.21215101E-08    0.95843841E-05
    7   -0.19517132E+03   -0.53091753E-10    0.86322747E-06
    8   -0.19517132E+03   -0.55990768E-11    0.17030003E-06
    9   -0.19517132E+03   -0.25579538E-12    0.37453076E-07
   10   -0.19517132E+03    0.28421709E-13    0.47729789E-08

Total Energy:                     -193.2581712142 H        -5258.8224 eV
Extrapolated to 0K:               -193.2581712142 H        -5258.8224 eV
Total Mermin free energy:         -193.2581712142 H        -5258.8224 eV
Force related energy:             -193.2581712142 H        -5258.8224 eV

Volume:                              0.113391E+05 au^3   0.168028E+04 A^3
Pressure:                            0.175790E-05 au     0.517190E+08 Pa
>> Charges saved for restart in charges.bin

total energy  -1.9325817E+02 H       energy change -6.6468525E-04 H
gradient norm  2.0347430E-02 H/a0    max. gradient  5.9252674E-03 H/a0
step length    1.7998537E-01 a0      max. step      3.9722556E-02 a0

--------------------------------------------------------------------------------

***  Geometry step: 36

 iSCC Total electronic   Diff electronic      SCC error    
    1   -0.19517132E+03    0.00000000E+00    0.46184275E-02
    2   -0.19517874E+03   -0.74132032E-02    0.25901651E-02
    3   -0.19517875E+03   -0.16134974E-04    0.66668208E-03
    4   -0.19517875E+03   -0.25075488E-05    0.10938459E-03
    5   -0.19517875E+03   -0.90265615E-07    0.33806301E-04
    6   -0.19517875E+03   -0.46628372E-08    0.10696700E-04
    7   -0.19517875E+03   -0.10905410E-09    0.11614153E-05
    8   -0.19517875E+03   -0.70770056E-11    0.20757768E-06
    9   -0.19517875E+03   -0.42632564E-12    0.55497936E-07
   10   -0.19517875E+03    0.28421709E-13    0.77535991E-08

Total Energy:                     -193.2588286048 H        -5258.8403 eV
Extrapolated to 0K:               -193.2588286048 H        -5258.8403 eV
Total Mermin free energy:         -193.2588286048 H        -5258.8403 eV
Force related energy:             -193.2588286048 H        -5258.8403 eV

Volume:                              0.113522E+05 au^3   0.168223E+04 A^3
Pressure:                            0.347434E-05 au     0.102218E+09 Pa
>> Charges saved for restart in charges.bin

total energy  -1.9325883E+02 H       energy change -6.5739057E-04 H
gradient norm  1.7928800E-02 H/a0    max. gradient  6.0881627E-03 H/a0
step length    1.8868431E-01 a0      max. step      3.8571693E-02 a0

--------------------------------------------------------------------------------

***  Geometry step: 37

 iSCC Total electronic   Diff electronic      SCC error    
    1   -0.19517875E+03    0.00000000E+00    0.34177225E-02
    2   -0.19518586E+03   -0.71062608E-02    0.20382403E-02
    3   -0.19518588E+03   -0.14109759E-04    0.72848706E-03
    4   -0.19518588E+03   -0.22639323E-05    0.14214246E-03
    5   -0.19518588E+03   -0.74965897E-07    0.40816445E-04
    6   -0.19518588E+03   -0.52514224E-08    0.12335124E-04
    7   -0.19518588E+03   -0.13881163E-09    0.13563072E-05
    8   -0.19518588E+03   -0.73896445E-11    0.23895974E-06
    9   -0.19518588E+03   -0.39790393E-12    0.63387368E-07
   10   -0.19518588E+03   -0.56843419E-13    0.91452317E-08

Total Energy:                     -193.2593706696 H        -5258.8550 eV
Extrapolated to 0K:               -193.2593706696 H        -5258.8550 eV
Total Mermin free energy:         -193.2593706696 H        -5258.8550 eV
Force related energy:             -193.2593706696 H        -5258.8550 eV

Volume:                              0.113644E+05 au^3   0.168403E+04 A^3
Pressure:                            0.530820E-05 au     0.156173E+09 Pa
>> Charges saved for restart in charges.bin

total energy  -1.9325937E+02 H       energy change -5.4206479E-04 H
gradient norm  1.6790928E-02 H/a0    max. gradient  5.8202659E-03 H/a0
step length    1.6758237E-01 a0      max. step      3.1057670E-02 a0

--------------------------------------------------------------------------------

***  Geometry step: 38

 iSCC Total electronic   Diff electronic      SCC error    
    1   -0.19518588E+03    0.00000000E+00    0.35744685E-02
    2   -0.19518979E+03   -0.39143583E-02    0.20387172E-02
    3   -0.19518980E+03   -0.12715075E-04    0.68251933E-03
    4   -0.19518981E+03   -0.19883229E-05    0.13752932E-03
    5   -0.19518981E+03   -0.68878109E-07    0.40491509E-04
    6   -0.19518981E+03   -0.47736819E-08    0.11803010E-04
    7   -0.19518981E+03   -0.13190515E-09    0.13802940E-05
    8   -0.19518981E+03   -0.68496320E-11    0.21861054E-06
    9   -0.19518981E+03   -0.42632564E-12    0.62071994E-07
   10   -0.19518981E+03   -0.85265128E-13    0.94405532E-08

Total Energy:                     -193.2598867727 H        -5258.8691 eV
Extrapolated to 0K:               -193.2598867727 H        -5258.8691 eV
Total Mermin free energy:         -193.2598867727 H        -5258.8691 eV
Force related energy:             -193.2598867727 H        -5258.8691 eV

Volume:                              0.113754E+05 au^3   0.168566E+04 A^3
Pressure:                            0.604394E-05 au     0.177819E+09 Pa
>> Charges saved for restart in charges.bin

total energy  -1.9325989E+02 H       energy change -5.1610311E-04 H
gradient norm  1.7861275E-02 H/a0    max. gradient  4.7205065E-03 H/a0
step length    1.5096180E-01 a0      max. step      2.9893476E-02 a0

--------------------------------------------------------------------------------

***  Geometry step: 39

 iSCC Total electronic   Diff electronic      SCC error    
    1   -0.19518981E+03    0.00000000E+00    0.46503973E-02
    2   -0.19519162E+03   -0.18140141E-02    0.26472688E-02
    3   -0.19519164E+03   -0.15697082E-04    0.70264397E-03
    4   -0.19519164E+03   -0.23198019E-05    0.14374119E-03
    5   -0.19519164E+03   -0.11014063E-06    0.46158958E-04
    6   -0.19519164E+03   -0.54475322E-08    0.13169152E-04
    7   -0.19519164E+03   -0.12002488E-09    0.16887243E-05
    8   -0.19519164E+03   -0.87823082E-11    0.26868098E-06
    9   -0.19519164E+03   -0.65369932E-12    0.74071202E-07
   10   -0.19519164E+03   -0.56843419E-13    0.12477686E-07
   11   -0.19519164E+03   -0.56843419E-13    0.22035076E-08

Total Energy:                     -193.2605535972 H        -5258.8872 eV
Extrapolated to 0K:               -193.2605535972 H        -5258.8872 eV
Total Mermin free energy:         -193.2605535972 H        -5258.8872 eV
Force related energy:             -193.2605535972 H        -5258.8872 eV

Volume:                              0.113877E+05 au^3   0.168749E+04 A^3
Pressure:                            0.586704E-05 au     0.172614E+09 Pa
>> Charges saved for restart in charges.bin

total energy  -1.9326055E+02 H       energy change -6.6682450E-04 H
gradient norm  1.9196559E-02 H/a0    max. gradient  3.9243710E-03 H/a0
step length    1.8800561E-01 a0      max. step      3.7885774E-02 a0

--------------------------------------------------------------------------------

***  Geometry step: 40

 iSCC Total electronic   Diff electronic      SCC error    
    1   -0.19519164E+03    0.00000000E+00    0.43464947E-02
    2   -0.19518981E+03    0.18306717E-02    0.24872124E-02
    3   -0.19518983E+03   -0.19044173E-04    0.69668980E-03
    4   -0.19518983E+03   -0.25633648E-05    0.10064911E-03
    5   -0.19518983E+03   -0.14020415E-06    0.34302270E-04
    6   -0.19518983E+03   -0.55121063E-08    0.10249128E-04
    7   -0.19518983E+03   -0.83019813E-10    0.21527262E-05
    8   -0.19518983E+03   -0.56843419E-11    0.27829972E-06
    9   -0.19518983E+03   -0.85265128E-12    0.60517620E-07
   10   -0.19518983E+03    0.00000000E+00    0.11805937E-07
   11   -0.19518983E+03   -0.28421709E-13    0.13295725E-08

Total Energy:                     -193.2612298779 H        -5258.9056 eV
Extrapolated to 0K:               -193.2612298779 H        -5258.9056 eV
Total Mermin free energy:         -193.2612298779 H        -5258.9056 eV
Force related energy:             -193.2612298779 H        -5258.9056 eV

Volume:                              0.113992E+05 au^3   0.168918E+04 A^3
Pressure:                            0.426629E-05 au     0.125518E+09 Pa
>> Charges saved for restart in charges.bin

total energy  -1.9326123E+02 H       energy change -6.7628072E-04 H
gradient norm  1.8804619E-02 H/a0    max. gradient  3.9544003E-03 H/a0
step length    2.0273850E-01 a0      max. step      4.1279049E-02 a0

--------------------------------------------------------------------------------

***  Geometry step: 41

 iSCC Total electronic   Diff electronic      SCC error    
    1   -0.19518983E+03    0.00000000E+00    0.34078807E-02
    2   -0.19518795E+03    0.18765256E-02    0.15589862E-02
    3   -0.19518797E+03   -0.12478662E-04    0.46165787E-03
    4   -0.19518797E+03   -0.15052312E-05    0.47837054E-04
    5   -0.19518797E+03   -0.82601332E-07    0.12749872E-04
    6   -0.19518797E+03   -0.29655212E-08    0.46744851E-05
    7   -0.19518797E+03   -0.41552539E-10    0.13505368E-05
    8   -0.19518797E+03   -0.13926638E-11    0.29982154E-06
    9   -0.19518797E+03   -0.19895197E-12    0.78953635E-07
   10   -0.19518797E+03   -0.28421709E-13    0.12665736E-07
   11   -0.19518797E+03    0.00000000E+00    0.87641894E-09

Total Energy:                     -193.2617684888 H        -5258.9203 eV
Extrapolated to 0K:               -193.2617684888 H        -5258.9203 eV
Total Mermin free energy:         -193.2617684888 H        -5258.9203 eV
Force related energy:             -193.2617684888 H        -5258.9203 eV

Volume:                              0.114064E+05 au^3   0.169025E+04 A^3
Pressure:                            0.328669E-05 au     0.966976E+08 Pa
>> Charges saved for restart in charges.bin

total energy  -1.9326177E+02 H       energy change -5.3861085E-04 H
gradient norm  1.6753920E-02 H/a0    max. gradient  3.3063293E-03 H/a0
step length    1.6826444E-01 a0      max. step      3.6556991E-02 a0

--------------------------------------------------------------------------------

***  Geometry step: 42

 iSCC Total electronic   Diff electronic      SCC error    
    1   -0.19518797E+03    0.00000000E+00    0.34971869E-02
    2   -0.19518541E+03    0.25551451E-02    0.17484087E-02
    3   -0.19518542E+03   -0.12671059E-04    0.49861899E-03
    4   -0.19518543E+03   -0.15644761E-05    0.85899530E-04
    5   -0.19518543E+03   -0.72759264E-07    0.28589615E-04
    6   -0.19518543E+03   -0.36133656E-08    0.93412747E-05
    7   -0.19518543E+03   -0.61277206E-10    0.16085158E-05
    8   -0.19518543E+03   -0.36664005E-11    0.26889995E-06
    9   -0.19518543E+03   -0.19895197E-12    0.52808078E-07
   10   -0.19518543E+03   -0.56843419E-13    0.95045305E-08

Total Energy:                     -193.2622542033 H        -5258.9335 eV
Extrapolated to 0K:               -193.2622542033 H        -5258.9335 eV
Total Mermin free energy:         -193.2622542033 H        -5258.9335 eV
Force related energy:             -193.2622542033 H        -5258.9335 eV

Volume:                              0.114139E+05 au^3   0.169137E+04 A^3
Pressure:                            0.209080E-05 au     0.615135E+08 Pa
>> Charges saved for restart in charges.bin

total energy  -1.9326225E+02 H       energy change -4.8571452E-04 H
gradient norm  1.5545769E-02 H/a0    max. gradient  3.2496356E-03 H/a0
step length    1.5590827E-01 a0      max. step      3.4589054E-02 a0

--------------------------------------------------------------------------------

***  Geometry step: 43

 iSCC Total electronic   Diff electronic      SCC error    
    1   -0.19518543E+03    0.00000000E+00    0.38643550E-02
    2   -0.19518469E+03    0.74072610E-03    0.22823338E-02
    3   -0.19518470E+03   -0.10008826E-04    0.63320979E-03
    4   -0.19518470E+03   -0.15638889E-05    0.12749676E-03
    5   -0.19518470E+03   -0.70191277E-07    0.40173606E-04
    6   -0.19518470E+03   -0.45501736E-08    0.11734397E-04
    7   -0.19518470E+03   -0.87624130E-10    0.12967643E-05
    8   -0.19518470E+03   -0.67075234E-11    0.19697812E-06
    9   -0.19518470E+03   -0.42632564E-12    0.50299505E-07
   10   -0.19518470E+03    0.56843419E-13    0.87346832E-08

Total Energy:                     -193.2627020144 H        -5258.9457 eV
Extrapolated to 0K:               -193.2627020144 H        -5258.9457 eV
Total Mermin free energy:         -193.2627020144 H        -5258.9457 eV
Force related energy:             -193.2627020144 H        -5258.9457 eV

Volume:                              0.114222E+05 au^3   0.169259E+04 A^3
Pressure:                            0.142333E-05 au     0.418758E+08 Pa
>> Charges saved for restart in charges.bin

total energy  -1.9326270E+02 H       energy change -4.4781114E-04 H
gradient norm  1.5673127E-02 H/a0    max. gradient  3.9262990E-03 H/a0
step length    1.4770096E-01 a0      max. step      3.1568877E-02 a0

--------------------------------------------------------------------------------

***  Geometry step: 44

 iSCC Total electronic   Diff electronic      SCC error    
    1   -0.19518470E+03    0.00000000E+00    0.45752438E-02
    2   -0.19518618E+03   -0.14810759E-02    0.27475993E-02
    3   -0.19518619E+03   -0.10574616E-04    0.68392558E-03
    4   -0.19518619E+03   -0.19536940E-05    0.13952088E-03
    5   -0.19518619E+03   -0.82632567E-07    0.44271924E-04
    6   -0.19518619E+03   -0.54636757E-08    0.11414239E-04
    7   -0.19518619E+03   -0.11280576E-09    0.14532875E-05
    8   -0.19518619E+03   -0.86117780E-11    0.24755514E-06
    9   -0.19518619E+03   -0.42632564E-12    0.65077763E-07
   10   -0.19518619E+03    0.00000000E+00    0.77372766E-08

Total Energy:                     -193.2631244909 H        -5258.9572 eV
Extrapolated to 0K:               -193.2631244909 H        -5258.9572 eV
Total Mermin free energy:         -193.2631244909 H        -5258.9572 eV
Force related energy:             -193.2631244909 H        -5258.9572 eV

Volume:                              0.114307E+05 au^3   0.169386E+04 A^3
Pressure:                            0.142397E-05 au     0.418946E+08 Pa
>> Charges saved for restart in charges.bin

total energy  -1.9326312E+02 H       energy change -4.2247643E-04 H
gradient norm  1.4909694E-02 H/a0    max. gradient  3.6196804E-03 H/a0
step length    1.5348416E-01 a0      max. step      3.0748903E-02 a0

--------------------------------------------------------------------------------

***  Geometry step: 45

 iSCC Total electronic   Diff electronic      SCC error    
    1   -0.19518619E+03    0.00000000E+00    0.33381000E-02
    2   -0.19518971E+03   -0.35203343E-02    0.20015854E-02
    3   -0.19518972E+03   -0.10279665E-04    0.60201753E-03
    4   -0.19518972E+03   -0.16256270E-05    0.13254545E-03
    5   -0.19518972E+03   -0.68648291E-07    0.37852306E-04
    6   -0.19518972E+03   -0.45380375E-08    0.10667351E-04
    7   -0.19518972E+03   -0.10919621E-09    0.12408276E-05
    8   -0.19518972E+03   -0.71054274E-11    0.23000302E-06
    9   -0.19518972E+03   -0.39790393E-12    0.68041145E-07
   10   -0.19518972E+03    0.85265128E-13    0.57999836E-08

Total Energy:                     -193.2634670743 H        -5258.9665 eV
Extrapolated to 0K:               -193.2634670743 H        -5258.9665 eV
Total Mermin free energy:         -193.2634670743 H        -5258.9665 eV
Force related energy:             -193.2634670743 H        -5258.9665 eV

Volume:                              0.114373E+05 au^3   0.169483E+04 A^3
Pressure:                            0.223829E-05 au     0.658527E+08 Pa
>> Charges saved for restart in charges.bin

total energy  -1.9326347E+02 H       energy change -3.4258345E-04 H
gradient norm  1.3069418E-02 H/a0    max. gradient  3.7739651E-03 H/a0
step length    1.4345191E-01 a0      max. step      2.7407792E-02 a0

--------------------------------------------------------------------------------

***  Geometry step: 46

 iSCC Total electronic   Diff electronic      SCC error    
    1   -0.19518972E+03    0.00000000E+00    0.25408679E-02
    2   -0.19519307E+03   -0.33496206E-02    0.15261018E-02
    3   -0.19519308E+03   -0.92040780E-05    0.50449951E-03
    4   -0.19519308E+03   -0.12126544E-05    0.11640515E-03
    5   -0.19519308E+03   -0.39247567E-07    0.28364495E-04
    6   -0.19519308E+03   -0.29033345E-08    0.86907801E-05
    7   -0.19519308E+03   -0.75687012E-10    0.86336471E-06
    8   -0.19519308E+03   -0.42064130E-11    0.16002685E-06
    9   -0.19519308E+03   -0.28421709E-12    0.51523550E-07
   10   -0.19519308E+03    0.00000000E+00    0.61457559E-08

Total Energy:                     -193.2637518473 H        -5258.9743 eV
Extrapolated to 0K:               -193.2637518473 H        -5258.9743 eV
Total Mermin free energy:         -193.2637518473 H        -5258.9743 eV
Force related energy:             -193.2637518473 H        -5258.9743 eV

Volume:                              0.114426E+05 au^3   0.169562E+04 A^3
Pressure:                            0.307576E-05 au     0.904921E+08 Pa
>> Charges saved for restart in charges.bin

total energy  -1.9326375E+02 H       energy change -2.8477300E-04 H
gradient norm  1.2189396E-02 H/a0    max. gradient  3.4155502E-03 H/a0
step length    1.3699288E-01 a0      max. step      2.6390108E-02 a0

--------------------------------------------------------------------------------

***  Geometry step: 47

 iSCC Total electronic   Diff electronic      SCC error    
    1   -0.19519308E+03    0.00000000E+00    0.25287779E-02
    2   -0.19519522E+03   -0.21321074E-02    0.11185329E-02
    3   -0.19519522E+03   -0.79488116E-05    0.42775981E-03
    4   -0.19519522E+03   -0.94514033E-06    0.95856451E-04
    5   -0.19519522E+03   -0.35692153E-07    0.25319670E-04
    6   -0.19519522E+03   -0.25734153E-08    0.78167919E-05
    7   -0.19519522E+03   -0.59657168E-10    0.67471137E-06
    8   -0.19519522E+03   -0.33537617E-11    0.10272365E-06
    9   -0.19519522E+03   -0.28421709E-13    0.24889242E-07
   10   -0.19519522E+03   -0.85265128E-13    0.50854738E-08

Total Energy:                     -193.2640233377 H        -5258.9816 eV
Extrapolated to 0K:               -193.2640233377 H        -5258.9816 eV
Total Mermin free energy:         -193.2640233377 H        -5258.9816 eV
Force related energy:             -193.2640233377 H        -5258.9816 eV

Volume:                              0.114467E+05 au^3   0.169622E+04 A^3
Pressure:                            0.357501E-05 au     0.105180E+09 Pa
>> Charges saved for restart in charges.bin

total energy  -1.9326402E+02 H       energy change -2.7149033E-04 H
gradient norm  1.2553098E-02 H/a0    max. gradient  2.6777538E-03 H/a0
step length    1.2549883E-01 a0      max. step      2.5415671E-02 a0

--------------------------------------------------------------------------------

***  Geometry step: 48

 iSCC Total electronic   Diff electronic      SCC error    
    1   -0.19519522E+03    0.00000000E+00    0.36790533E-02
    2   -0.19519606E+03   -0.83430122E-03    0.20605617E-02
    3   -0.19519607E+03   -0.84034035E-05    0.58625730E-03
    4   -0.19519607E+03   -0.99578705E-06    0.87919324E-04
    5   -0.19519607E+03   -0.58410251E-07    0.28874892E-04
    6   -0.19519607E+03   -0.32914045E-08    0.83117070E-05
    7   -0.19519607E+03   -0.67416295E-10    0.81504378E-06
    8   -0.19519607E+03   -0.41211479E-11    0.12048908E-06
    9   -0.19519607E+03   -0.11368684E-12    0.37261925E-07
   10   -0.19519607E+03   -0.28421709E-13    0.54410871E-08

Total Energy:                     -193.2643166866 H        -5258.9896 eV
Extrapolated to 0K:               -193.2643166866 H        -5258.9896 eV
Total Mermin free energy:         -193.2643166866 H        -5258.9896 eV
Force related energy:             -193.2643166866 H        -5258.9896 eV

Volume:                              0.114484E+05 au^3   0.169648E+04 A^3
Pressure:                            0.378645E-05 au     0.111401E+09 Pa
>> Charges saved for restart in charges.bin

total energy  -1.9326432E+02 H       energy change -2.9334899E-04 H
gradient norm  1.2443964E-02 H/a0    max. gradient  2.6301389E-03 H/a0
step length    1.2384123E-01 a0      max. step      2.7950636E-02 a0

--------------------------------------------------------------------------------

***  Geometry step: 49

 iSCC Total electronic   Diff electronic      SCC error    
    1   -0.19519607E+03    0.00000000E+00    0.37617599E-02
    2   -0.19519486E+03    0.12041321E-02    0.21504358E-02
    3   -0.19519487E+03   -0.81696765E-05    0.58172292E-03
    4   -0.19519487E+03   -0.11462489E-05    0.84259406E-04
    5   -0.19519487E+03   -0.58227243E-07    0.27106442E-04
    6   -0.19519487E+03   -0.39686086E-08    0.79570153E-05
    7   -0.19519487E+03   -0.73953288E-10    0.10187864E-05
    8   -0.19519487E+03   -0.34958703E-11    0.16551120E-06
    9   -0.19519487E+03   -0.22737368E-12    0.54134182E-07
   10   -0.19519487E+03    0.28421709E-13    0.66660646E-08

Total Energy:                     -193.2645613985 H        -5258.9963 eV
Extrapolated to 0K:               -193.2645613985 H        -5258.9963 eV
Total Mermin free energy:         -193.2645613985 H        -5258.9963 eV
Force related energy:             -193.2645613985 H        -5258.9963 eV

Volume:                              0.114486E+05 au^3   0.169651E+04 A^3
Pressure:                            0.338686E-05 au     0.996450E+08 Pa
>> Charges saved for restart in charges.bin

total energy  -1.9326456E+02 H       energy change -2.4471184E-04 H
gradient norm  1.1052310E-02 H/a0    max. gradient  2.2889458E-03 H/a0
step length    9.7567877E-02 a0      max. step      2.4600741E-02 a0

--------------------------------------------------------------------------------

***  Geometry step: 50

 iSCC Total electronic   Diff electronic      SCC error    
    1   -0.19519487E+03    0.00000000E+00    0.32790068E-02
    2   -0.19519289E+03    0.19824400E-02    0.16688109E-02
    3   -0.19519290E+03   -0.63016150E-05    0.45485587E-03
    4   -0.19519290E+03   -0.98712763E-06    0.52443561E-04
    5   -0.19519290E+03   -0.30683196E-07    0.15943675E-04
    6   -0.19519290E+03   -0.22488678E-08    0.51599623E-05
    7   -0.19519290E+03   -0.45588422E-10    0.81498210E-06
    8   -0.19519290E+03   -0.15631940E-11    0.16732456E-06
    9   -0.19519290E+03   -0.14210855E-12    0.48679736E-07
   10   -0.19519290E+03   -0.85265128E-13    0.73198341E-08

Total Energy:                     -193.2647468444 H        -5259.0013 eV
Extrapolated to 0K:               -193.2647468444 H        -5259.0013 eV
Total Mermin free energy:         -193.2647468444 H        -5259.0013 eV
Force related energy:             -193.2647468444 H        -5259.0013 eV

Volume:                              0.114481E+05 au^3   0.169644E+04 A^3
Pressure:                            0.271581E-05 au     0.799018E+08 Pa
>> Charges saved for restart in charges.bin

[...]

Volume:                              0.112130E+05 au^3   0.166160E+04 A^3
Pressure:                           -0.618145E-07 au    -0.181864E+07 Pa
>> Charges saved for restart in charges.bin

total energy  -1.9327479E+02 H       energy change -6.9814459E-07 H
gradient norm  8.7374706E-04 H/a0    max. gradient  3.4663000E-04 H/a0
step length    1.5803286E-03 a0      max. step      3.8240268E-04 a0

--------------------------------------------------------------------------------

***  Geometry step: 156

 iSCC Total electronic   Diff electronic      SCC error    
    1   -0.19518117E+03    0.00000000E+00    0.31349846E-03
    2   -0.19518134E+03   -0.17485982E-03    0.17654375E-03
    3   -0.19518134E+03   -0.56913791E-07    0.46981352E-04
    4   -0.19518134E+03   -0.96923429E-08    0.57856086E-05
    5   -0.19518134E+03   -0.19582558E-09    0.17455869E-05
    6   -0.19518134E+03   -0.11027623E-10    0.50723022E-06
    7   -0.19518134E+03   -0.45474735E-12    0.61943657E-07
    8   -0.19518134E+03    0.28421709E-13    0.90042951E-08

Total Energy:                     -193.2747887161 H        -5259.2746 eV
Extrapolated to 0K:               -193.2747887161 H        -5259.2746 eV
Total Mermin free energy:         -193.2747887161 H        -5259.2746 eV
Force related energy:             -193.2747887161 H        -5259.2746 eV

Volume:                              0.112136E+05 au^3   0.166168E+04 A^3
Pressure:                            0.132860E-07 au     0.390888E+06 Pa
>> Charges saved for restart in charges.bin

total energy  -1.9327479E+02 H       energy change -1.9592268E-06 H
gradient norm  1.3067484E-03 H/a0    max. gradient  4.4536794E-04 H/a0
step length    1.0063980E-02 a0      max. step      2.0526104E-03 a0

--------------------------------------------------------------------------------

***  Geometry step: 157

 iSCC Total electronic   Diff electronic      SCC error    
    1   -0.19518134E+03    0.00000000E+00    0.26135544E-03
    2   -0.19518142E+03   -0.75385000E-04    0.11119222E-03
    3   -0.19518142E+03   -0.45497870E-07    0.29845783E-04
    4   -0.19518142E+03   -0.63513994E-08    0.76535909E-05
    5   -0.19518142E+03   -0.11161205E-09    0.16430514E-05
    6   -0.19518142E+03   -0.81001872E-11    0.41970319E-06
    7   -0.19518142E+03   -0.22737368E-12    0.54572592E-07
    8   -0.19518142E+03   -0.28421709E-13    0.65995822E-08

Total Energy:                     -193.2747905790 H        -5259.2746 eV
Extrapolated to 0K:               -193.2747905790 H        -5259.2746 eV
Total Mermin free energy:         -193.2747905790 H        -5259.2746 eV
Force related energy:             -193.2747905790 H        -5259.2746 eV

Volume:                              0.112140E+05 au^3   0.166174E+04 A^3
Pressure:                            0.335400E-07 au     0.986780E+06 Pa
>> Charges saved for restart in charges.bin

total energy  -1.9327479E+02 H       energy change -1.8629099E-06 H
gradient norm  1.3857024E-03 H/a0    max. gradient  4.0528793E-04 H/a0
step length    1.1054228E-02 a0      max. step      2.5325526E-03 a0

--------------------------------------------------------------------------------

***  Geometry step: 158

 iSCC Total electronic   Diff electronic      SCC error    
    1   -0.19518142E+03    0.00000000E+00    0.51685995E-03
    2   -0.19518155E+03   -0.12608201E-03    0.16586198E-03
    3   -0.19518155E+03   -0.13041603E-06    0.41095882E-04
    4   -0.19518155E+03   -0.17208521E-07    0.78956574E-05
    5   -0.19518155E+03   -0.24724045E-09    0.18200375E-05
    6   -0.19518155E+03   -0.16825652E-10    0.57463274E-06
    7   -0.19518155E+03   -0.39790393E-12    0.83324450E-07
    8   -0.19518155E+03   -0.56843419E-13    0.80115554E-08

Total Energy:                     -193.2747931520 H        -5259.2747 eV
Extrapolated to 0K:               -193.2747931520 H        -5259.2747 eV
Total Mermin free energy:         -193.2747931520 H        -5259.2747 eV
Force related energy:             -193.2747931520 H        -5259.2747 eV

Volume:                              0.112149E+05 au^3   0.166188E+04 A^3
Pressure:                            0.400556E-07 au     0.117848E+07 Pa
>> Charges saved for restart in charges.bin

total energy  -1.9327479E+02 H       energy change -2.5729698E-06 H
gradient norm  1.0755635E-03 H/a0    max. gradient  3.0820814E-04 H/a0
step length    2.0887516E-02 a0      max. step      4.8527595E-03 a0

--------------------------------------------------------------------------------

***  Geometry step: 159

 iSCC Total electronic   Diff electronic      SCC error    
    1   -0.19518155E+03    0.00000000E+00    0.18520836E-03
    2   -0.19518155E+03   -0.25555445E-06    0.79776122E-04
    3   -0.19518155E+03   -0.28900587E-07    0.24079855E-04
    4   -0.19518155E+03   -0.43704347E-08    0.29187466E-05
    5   -0.19518155E+03   -0.11570478E-09    0.10193236E-05
    6   -0.19518155E+03   -0.48032689E-11    0.32609550E-06
    7   -0.19518155E+03   -0.28421709E-13    0.36793944E-07
    8   -0.19518155E+03    0.28421709E-13    0.57250231E-08

Total Energy:                     -193.2747943282 H        -5259.2747 eV
Extrapolated to 0K:               -193.2747943282 H        -5259.2747 eV
Total Mermin free energy:         -193.2747943282 H        -5259.2747 eV
Force related energy:             -193.2747943282 H        -5259.2747 eV

Volume:                              0.112149E+05 au^3   0.166188E+04 A^3
Pressure:                            0.546216E-07 au     0.160702E+07 Pa
>> Charges saved for restart in charges.bin

total energy  -1.9327479E+02 H       energy change -1.1761961E-06 H
gradient norm  7.6309619E-04 H/a0    max. gradient  1.7937686E-04 H/a0
step length    4.3557852E-03 a0      max. step      9.3686185E-04 a0

--------------------------------------------------------------------------------

***  Geometry step: 160

 iSCC Total electronic   Diff electronic      SCC error    
    1   -0.19518155E+03    0.00000000E+00    0.29789490E-03
    2   -0.19518142E+03    0.12245198E-03    0.14357903E-03
    3   -0.19518142E+03   -0.55174667E-07    0.42616631E-04
    4   -0.19518142E+03   -0.84732505E-08    0.42390988E-05
    5   -0.19518142E+03   -0.26321345E-09    0.62053905E-06
    6   -0.19518142E+03   -0.97202246E-11    0.17157354E-06
    7   -0.19518142E+03   -0.17053026E-12    0.30684916E-07
    8   -0.19518142E+03    0.11368684E-12    0.76591489E-08

Total Energy:                     -193.2747955122 H        -5259.2748 eV
Extrapolated to 0K:               -193.2747955122 H        -5259.2748 eV
Total Mermin free energy:         -193.2747955122 H        -5259.2748 eV
Force related energy:             -193.2747955122 H        -5259.2748 eV

Volume:                              0.112149E+05 au^3   0.166188E+04 A^3
Pressure:                            0.619716E-08 au     0.182327E+06 Pa
>> Charges saved for restart in charges.bin

total energy  -1.9327480E+02 H       energy change -1.1840427E-06 H
gradient norm  6.6182496E-04 H/a0    max. gradient  1.6720307E-04 H/a0
step length    1.6050672E-02 a0      max. step      3.7558190E-03 a0

--------------------------------------------------------------------------------

***  Geometry step: 161

 iSCC Total electronic   Diff electronic      SCC error    
    1   -0.19518142E+03    0.00000000E+00    0.66673085E-04
    2   -0.19518146E+03   -0.34385657E-04    0.36984065E-04
    3   -0.19518146E+03   -0.49954281E-08    0.89575754E-05
    4   -0.19518146E+03   -0.93271524E-09    0.17044673E-05
    5   -0.19518146E+03   -0.20833113E-10    0.49185099E-06
    6   -0.19518146E+03   -0.96633812E-12    0.11379105E-06
    7   -0.19518146E+03    0.28421709E-13    0.16579195E-07
    8   -0.19518146E+03   -0.56843419E-13    0.25426705E-08

Total Energy:                     -193.2747959000 H        -5259.2748 eV
Extrapolated to 0K:               -193.2747959000 H        -5259.2748 eV
Total Mermin free energy:         -193.2747959000 H        -5259.2748 eV
Force related energy:             -193.2747959000 H        -5259.2748 eV

Volume:                              0.112149E+05 au^3   0.166188E+04 A^3
Pressure:                           -0.738131E-08 au    -0.217165E+06 Pa
>> Charges saved for restart in charges.bin

total energy  -1.9327480E+02 H       energy change -3.8773322E-07 H
gradient norm  5.4822573E-04 H/a0    max. gradient  1.3252130E-04 H/a0
step length    9.8129559E-04 a0      max. step      2.3707099E-04 a0

--------------------------------------------------------------------------------

***  Geometry step: 162

 iSCC Total electronic   Diff electronic      SCC error    
    1   -0.19518146E+03    0.00000000E+00    0.14103088E-03
    2   -0.19518155E+03   -0.90886040E-04    0.72110587E-04
    3   -0.19518155E+03   -0.19451079E-07    0.22270548E-04
    4   -0.19518155E+03   -0.35257131E-08    0.39594149E-05
    5   -0.19518155E+03   -0.74720674E-10    0.11182343E-05
    6   -0.19518155E+03   -0.40927262E-11    0.23616671E-06
    7   -0.19518155E+03   -0.17053026E-12    0.22553475E-07
    8   -0.19518155E+03    0.11368684E-12    0.39585677E-08

Total Energy:                     -193.2747964913 H        -5259.2748 eV
Extrapolated to 0K:               -193.2747964913 H        -5259.2748 eV
Total Mermin free energy:         -193.2747964913 H        -5259.2748 eV
Force related energy:             -193.2747964913 H        -5259.2748 eV

Volume:                              0.112149E+05 au^3   0.166187E+04 A^3
Pressure:                            0.626037E-08 au     0.184186E+06 Pa
>> Charges saved for restart in charges.bin

total energy  -1.9327480E+02 H       energy change -5.9130628E-07 H
gradient norm  7.3213307E-04 H/a0    max. gradient  2.4454502E-04 H/a0
step length    2.3277665E-03 a0      max. step      6.2183967E-04 a0

--------------------------------------------------------------------------------

***  Geometry step: 163

 iSCC Total electronic   Diff electronic      SCC error    
    1   -0.19518155E+03    0.00000000E+00    0.10283577E-03
    2   -0.19518164E+03   -0.88280396E-04    0.58485431E-04
    3   -0.19518164E+03   -0.10133618E-07    0.17919105E-04
    4   -0.19518164E+03   -0.16823378E-08    0.31238066E-05
    5   -0.19518164E+03   -0.48203219E-10    0.86913611E-06
    6   -0.19518164E+03   -0.26716407E-11    0.16528563E-06
    7   -0.19518164E+03    0.11368684E-12    0.14598173E-07
    8   -0.19518164E+03   -0.56843419E-13    0.28821039E-08

Total Energy:                     -193.2747971069 H        -5259.2748 eV
Extrapolated to 0K:               -193.2747971069 H        -5259.2748 eV
Total Mermin free energy:         -193.2747971069 H        -5259.2748 eV
Force related energy:             -193.2747971069 H        -5259.2748 eV

Volume:                              0.112149E+05 au^3   0.166187E+04 A^3
Pressure:                            0.280473E-07 au     0.825180E+06 Pa
>> Charges saved for restart in charges.bin

total energy  -1.9327480E+02 H       energy change -6.1564347E-07 H
gradient norm  7.3324763E-04 H/a0    max. gradient  2.4512822E-04 H/a0
step length    2.5815596E-03 a0      max. step      6.9858715E-04 a0

--------------------------------------------------------------------------------

***  Geometry step: 164

 iSCC Total electronic   Diff electronic      SCC error    
    1   -0.19518164E+03    0.00000000E+00    0.16200362E-03
    2   -0.19518178E+03   -0.13782536E-03    0.94075274E-04
    3   -0.19518178E+03   -0.23424178E-07    0.28327178E-04
    4   -0.19518178E+03   -0.33718379E-08    0.43123530E-05
    5   -0.19518178E+03   -0.10538770E-09    0.13042909E-05
    6   -0.19518178E+03   -0.58264504E-11    0.29108947E-06
    7   -0.19518178E+03   -0.11368684E-12    0.26034694E-07
    8   -0.19518178E+03   -0.28421709E-13    0.66515118E-08

Total Energy:                     -193.2747980972 H        -5259.2748 eV
Extrapolated to 0K:               -193.2747980972 H        -5259.2748 eV
Total Mermin free energy:         -193.2747980972 H        -5259.2748 eV
Force related energy:             -193.2747980972 H        -5259.2748 eV

Volume:                              0.112149E+05 au^3   0.166188E+04 A^3
Pressure:                            0.117604E-06 au     0.346004E+07 Pa
>> Charges saved for restart in charges.bin

total energy  -1.9327480E+02 H       energy change -9.9030410E-07 H
gradient norm  8.1593941E-04 H/a0    max. gradient  2.6570221E-04 H/a0
step length    6.0357141E-03 a0      max. step      1.5418625E-03 a0

--------------------------------------------------------------------------------

***  Geometry step: 165

 iSCC Total electronic   Diff electronic      SCC error    
    1   -0.19518178E+03    0.00000000E+00    0.22016660E-03
    2   -0.19518177E+03    0.97442611E-06    0.85073321E-04
    3   -0.19518177E+03   -0.34379639E-07    0.30415742E-04
    4   -0.19518177E+03   -0.40445798E-08    0.38079455E-05
    5   -0.19518177E+03   -0.12263968E-09    0.11586361E-05
    6   -0.19518177E+03   -0.61959327E-11    0.36238601E-06
    7   -0.19518177E+03   -0.56843419E-13    0.35205205E-07
    8   -0.19518177E+03   -0.28421709E-13    0.65398096E-08

Total Energy:                     -193.2747992345 H        -5259.2749 eV
Extrapolated to 0K:               -193.2747992345 H        -5259.2749 eV
Total Mermin free energy:         -193.2747992345 H        -5259.2749 eV
Force related energy:             -193.2747992345 H        -5259.2749 eV

Volume:                              0.112153E+05 au^3   0.166194E+04 A^3
Pressure:                            0.618426E-07 au     0.181947E+07 Pa
>> Charges saved for restart in charges.bin

total energy  -1.9327480E+02 H       energy change -1.1372641E-06 H
gradient norm  8.3110902E-04 H/a0    max. gradient  1.6849955E-04 H/a0
step length    1.4177291E-02 a0      max. step      3.2688748E-03 a0

--------------------------------------------------------------------------------

***  Geometry step: 166

 iSCC Total electronic   Diff electronic      SCC error    
    1   -0.19518177E+03    0.00000000E+00    0.27163277E-03
    2   -0.19518175E+03    0.24804784E-04    0.82658526E-04
    3   -0.19518175E+03   -0.53348543E-07    0.28188229E-04
    4   -0.19518175E+03   -0.60745720E-08    0.43196550E-05
    5   -0.19518175E+03   -0.12747137E-09    0.84543494E-06
    6   -0.19518175E+03   -0.79296569E-11    0.29993658E-06
    7   -0.19518175E+03   -0.31263880E-12    0.69270949E-07
    8   -0.19518175E+03   -0.56843419E-13    0.62759931E-08

Total Energy:                     -193.2748003000 H        -5259.2749 eV
Extrapolated to 0K:               -193.2748003000 H        -5259.2749 eV
Total Mermin free energy:         -193.2748003000 H        -5259.2749 eV
Force related energy:             -193.2748003000 H        -5259.2749 eV

Volume:                              0.112160E+05 au^3   0.166204E+04 A^3
Pressure:                            0.490042E-07 au     0.144175E+07 Pa
>> Charges saved for restart in charges.bin

total energy  -1.9327480E+02 H       energy change -1.0655505E-06 H
gradient norm  7.9024426E-04 H/a0    max. gradient  1.3313388E-04 H/a0
step length    1.4259097E-02 a0      max. step      2.8318351E-03 a0

--------------------------------------------------------------------------------

***  Geometry step: 167

 iSCC Total electronic   Diff electronic      SCC error    
    1   -0.19518175E+03    0.00000000E+00    0.17323139E-03
    2   -0.19518170E+03    0.44719527E-04    0.98551490E-04
    3   -0.19518170E+03   -0.11427375E-07    0.21632543E-04
    4   -0.19518170E+03   -0.22118627E-08    0.22100984E-05
    5   -0.19518170E+03   -0.71395334E-10    0.55919569E-06
    6   -0.19518170E+03   -0.26432190E-11    0.19467116E-06
    7   -0.19518170E+03   -0.56843419E-13    0.25378735E-07
    8   -0.19518170E+03    0.00000000E+00    0.32354541E-08

Total Energy:                     -193.2748011497 H        -5259.2749 eV
Extrapolated to 0K:               -193.2748011497 H        -5259.2749 eV
Total Mermin free energy:         -193.2748011497 H        -5259.2749 eV
Force related energy:             -193.2748011497 H        -5259.2749 eV

Volume:                              0.112161E+05 au^3   0.166205E+04 A^3
Pressure:                            0.436844E-07 au     0.128524E+07 Pa
>> Charges saved for restart in charges.bin

total energy  -1.9327480E+02 H       energy change -8.4960658E-07 H
gradient norm  6.2408024E-04 H/a0    max. gradient  1.2600470E-04 H/a0
step length    3.1600035E-03 a0      max. step      5.9338889E-04 a0

--------------------------------------------------------------------------------

***  Geometry step: 168

 iSCC Total electronic   Diff electronic      SCC error    
    1   -0.19518170E+03    0.00000000E+00    0.25716980E-03
    2   -0.19518162E+03    0.82139435E-04    0.14516883E-03
    3   -0.19518162E+03   -0.22384967E-07    0.29969422E-04
    4   -0.19518162E+03   -0.42019224E-08    0.32597020E-05
    5   -0.19518162E+03   -0.16206059E-09    0.77288844E-06
    6   -0.19518162E+03   -0.40074610E-11    0.21586728E-06
    7   -0.19518162E+03   -0.56843419E-13    0.23219385E-07
    8   -0.19518162E+03    0.00000000E+00    0.47212576E-08

Total Energy:                     -193.2748018549 H        -5259.2749 eV
Extrapolated to 0K:               -193.2748018549 H        -5259.2749 eV
Total Mermin free energy:         -193.2748018549 H        -5259.2749 eV
Force related energy:             -193.2748018549 H        -5259.2749 eV

Volume:                              0.112161E+05 au^3   0.166206E+04 A^3
Pressure:                            0.216454E-07 au     0.636830E+06 Pa
>> Charges saved for restart in charges.bin

total energy  -1.9327480E+02 H       energy change -7.0525172E-07 H
gradient norm  4.8593974E-04 H/a0    max. gradient  1.4364725E-04 H/a0
step length    4.3953924E-03 a0      max. step      9.2520706E-04 a0

--------------------------------------------------------------------------------

***  Geometry step: 169

 iSCC Total electronic   Diff electronic      SCC error    
    1   -0.19518162E+03    0.00000000E+00    0.58215843E-04
    2   -0.19518154E+03    0.87206853E-04    0.32718541E-04
    3   -0.19518154E+03   -0.26421674E-08    0.71278830E-05
    4   -0.19518154E+03   -0.50971494E-09    0.81136977E-06
    5   -0.19518154E+03   -0.18474111E-10    0.32516695E-06
    6   -0.19518154E+03   -0.42632564E-12    0.85887773E-07
    7   -0.19518154E+03   -0.56843419E-13    0.96319206E-08

Total Energy:                     -193.2748020638 H        -5259.2750 eV
Extrapolated to 0K:               -193.2748020638 H        -5259.2750 eV
Total Mermin free energy:         -193.2748020638 H        -5259.2750 eV
Force related energy:             -193.2748020638 H        -5259.2750 eV

Volume:                              0.112162E+05 au^3   0.166207E+04 A^3
Pressure:                           -0.242929E-07 au    -0.714722E+06 Pa
>> Charges saved for restart in charges.bin

total energy  -1.9327480E+02 H       energy change -2.0894620E-07 H
gradient norm  3.9553882E-04 H/a0    max. gradient  8.9336366E-05 H/a0
step length    9.5837422E-04 a0      max. step      2.1420014E-04 a0

Geometry converged

--------------------------------------------------------------------------------
DFTB+ running times                          cpu [s]             wall clock [s]
--------------------------------------------------------------------------------
Pre-SCC initialisation                 +      18.01 (  1.1%)       2.27 (  1.2%)
SCC                                    +    1401.04 ( 89.1%)     176.77 ( 90.2%)
Post-SCC processing                    +     153.46 (  9.8%)      16.82 (  8.6%)
--------------------------------------------------------------------------------
Missing                                +       0.04 (  0.0%)       0.01 (  0.0%)
Total                                  =    1572.55 (100.0%)     195.87 (100.0%)
--------------------------------------------------------------------------------
