|===============================================================================
|
|  DFTB+ release 24.1
|
|  Copyright (C) 2006 - 2024  DFTB+ developers group
|
|===============================================================================
|
|  When publishing results obtained with DFTB+, please cite the following
|  reference:
|
|  * DFTB+, a software package for efficient approximate density functional
|    theory based atomistic simulations, J. Chem. Phys. 152, 124101 (2020).
|    [doi: 10.1063/1.5143190]
|
|  You should also cite additional publications crediting the parametrization
|  data you use. Please consult the documentation of the SK-files for the
|  references.
|
|===============================================================================

Reading input file 'dftb_in.hsd'
Parser version: 14

--------------------------------------------------------------------------------
Reading SK-files:
./SKFiles/Si-Si.skf
./SKFiles/Si-Ge.skf
./SKFiles/Si-O.skf
./SKFiles/Ge-Ge.skf
./SKFiles/Ge-O.skf
./SKFiles/O-O.skf
Done.


Processed input in HSD format written to 'dftb_pin.hsd'

Starting initialization...
--------------------------------------------------------------------------------
WARNING!
-> Dipole printed for extended system : value printed is not well defined
MPI processes:               1
OpenMP threads:              8
BLACS orbital grid size:     1 x 1
BLACS atom grid size:        1 x 1
Chosen random seed:          153000105
Current stacksize:           unlimited
Mode:                        Static calculation
Self consistent charges:     Yes
SCC-tolerance:                 0.100000E-07
Max. scc iterations:                    500
Shell resolved Hubbard:      No
Spin polarisation:           No
Nr. of up electrons:           192.000000
Nr. of down electrons:         192.000000
Periodic boundaries:         Yes
Electronic solver:           Relatively robust
Mixer:                       Broyden mixer
Mixing parameter:                  0.200000
Maximal SCC-cycles:                     500
Nr. of chrg. vec. in memory:            500
Electronic temperature:              0.100000E-07 H      0.272114E-06 eV
Initial charges:             Set automatically (system chrg:   0.000E+00)
Included shells:            Si:  s, p, d
                            Ge:  s, p, d
                             O:  s, p
K-points and weights:           1:  0.500000  0.500000  0.500000     1.000000

K-points in absolute space:     1:  0.025319  0.017606  0.037774

Extra options:
                             Mulliken analysis
Force type                   original

--------------------------------------------------------------------------------

***  Geometry step: 0

 iSCC Total electronic   Diff electronic      SCC error    
    1    0.00000000E+00    0.00000000E+00    0.14261721E+01
    2   -0.19732407E+03   -0.19732407E+03    0.97894545E+00
    3   -0.19766696E+03   -0.34288852E+00    0.40435208E-01
    4   -0.19795563E+03   -0.28867383E+00    0.32657813E-01
    5   -0.19795725E+03   -0.16228130E-02    0.53434554E-02
    6   -0.19795737E+03   -0.11266778E-03    0.14611923E-02
    7   -0.19795737E+03   -0.35362751E-05    0.34243307E-03
    8   -0.19795737E+03   -0.62416782E-06    0.69121964E-04
    9   -0.19795737E+03   -0.44443112E-07    0.19395867E-04
   10   -0.19795737E+03   -0.28234126E-09    0.45643188E-05
   11   -0.19795737E+03   -0.97145403E-10    0.54126042E-06
   12   -0.19795737E+03   -0.50306426E-11    0.13437576E-06
   13   -0.19795737E+03   -0.28421709E-13    0.19998396E-07
   14   -0.19795737E+03    0.28421709E-13    0.64471473E-08

Total Energy:                     -190.4252515933 H        -5181.7347 eV
Extrapolated to 0K:               -190.4252515933 H        -5181.7347 eV
Total Mermin free energy:         -190.4252515933 H        -5181.7347 eV
Force related energy:             -190.4252515933 H        -5181.7347 eV

Volume:                              0.913789E+04 au^3   0.135410E+04 A^3
Pressure:                            0.249380E-02 au     0.733700E+11 Pa
>> Charges saved for restart in charges.bin

total energy  -1.9042525E+02 H       energy change -1.9042525E+02 H
gradient norm  2.2476992E+00 H/a0    max. gradient  1.3916506E+00 H/a0
step length    0.0000000E+00 a0      max. step      0.0000000E+00 a0

--------------------------------------------------------------------------------

***  Geometry step: 1

 iSCC Total electronic   Diff electronic      SCC error    
    1   -0.19795737E+03    0.00000000E+00    0.13619978E+00
    2   -0.19728447E+03    0.67290032E+00    0.63471751E-01
    3   -0.19730032E+03   -0.15851411E-01    0.20253859E-01
    4   -0.19730320E+03   -0.28771476E-02    0.22395357E-02
    5   -0.19730327E+03   -0.74311004E-04    0.74985322E-03
    6   -0.19730328E+03   -0.44146475E-05    0.23701471E-03
    7   -0.19730328E+03   -0.15500672E-06    0.30282142E-04
    8   -0.19730328E+03   -0.17617481E-07    0.72977861E-05
    9   -0.19730328E+03   -0.10237784E-08    0.28948680E-05
   10   -0.19730328E+03   -0.18275159E-10    0.80570254E-06
   11   -0.19730328E+03   -0.59685590E-12    0.98178627E-07
   12   -0.19730328E+03   -0.25579538E-12    0.25041084E-07
   13   -0.19730328E+03    0.85265128E-13    0.37979873E-08

Total Energy:                     -191.1440325863 H        -5201.2938 eV
Extrapolated to 0K:               -191.1440325863 H        -5201.2938 eV
Total Mermin free energy:         -191.1440325863 H        -5201.2938 eV
Force related energy:             -191.1440325863 H        -5201.2938 eV

Volume:                              0.969257E+04 au^3   0.143629E+04 A^3
Pressure:                            0.178369E-02 au     0.524781E+11 Pa
>> Charges saved for restart in charges.bin

total energy  -1.9114403E+02 H       energy change -7.1878099E-01 H
gradient norm  1.4684748E+00 H/a0    max. gradient  2.5843955E-01 H/a0
step length    8.0199351E-01 a0      max. step      4.9654986E-01 a0

--------------------------------------------------------------------------------

***  Geometry step: 2

 iSCC Total electronic   Diff electronic      SCC error    
    1   -0.19730328E+03    0.00000000E+00    0.53252658E-01
    2   -0.19694567E+03    0.35761018E+00    0.26087412E-01
    3   -0.19694921E+03   -0.35424973E-02    0.65267293E-02
    4   -0.19694992E+03   -0.71397166E-03    0.10481437E-02
    5   -0.19694994E+03   -0.19436584E-04    0.32591658E-03
    6   -0.19694994E+03   -0.12707325E-05    0.12769121E-03
    7   -0.19694994E+03   -0.22295580E-07    0.32010257E-04
    8   -0.19694994E+03   -0.25013378E-08    0.64176945E-05
    9   -0.19694994E+03   -0.24343194E-09    0.18263403E-05
   10   -0.19694994E+03   -0.32684966E-11    0.42863399E-06
   11   -0.19694994E+03   -0.14210855E-12    0.72554916E-07
   12   -0.19694994E+03    0.00000000E+00    0.93991774E-08

Total Energy:                     -191.9432795835 H        -5223.0424 eV
Extrapolated to 0K:               -191.9432795835 H        -5223.0424 eV
Total Mermin free energy:         -191.9432795835 H        -5223.0424 eV
Force related energy:             -191.9432795835 H        -5223.0424 eV

Volume:                              0.984840E+04 au^3   0.145938E+04 A^3
Pressure:                            0.131050E-02 au     0.385561E+11 Pa
>> Charges saved for restart in charges.bin

total energy  -1.9194328E+02 H       energy change -7.9924700E-01 H
gradient norm  9.4436820E-01 H/a0    max. gradient  1.7267701E-01 H/a0
step length    7.5146350E-01 a0      max. step      1.3652203E-01 a0

--------------------------------------------------------------------------------

***  Geometry step: 3

 iSCC Total electronic   Diff electronic      SCC error    
    1   -0.19694994E+03    0.00000000E+00    0.73873779E-01
    2   -0.19657034E+03    0.37960158E+00    0.29775614E-01
    3   -0.19657474E+03   -0.44002762E-02    0.10498021E-01
    4   -0.19657551E+03   -0.76621249E-03    0.11084909E-02
    5   -0.19657554E+03   -0.35202726E-04    0.30745954E-03
    6   -0.19657555E+03   -0.19744136E-05    0.12548856E-03
    7   -0.19657555E+03   -0.29952417E-07    0.17225856E-04
    8   -0.19657555E+03   -0.30561296E-08    0.35024712E-05
    9   -0.19657555E+03   -0.37837822E-09    0.12190588E-05
   10   -0.19657555E+03   -0.97202246E-11    0.39175799E-06
   11   -0.19657555E+03   -0.31263880E-12    0.92577914E-07
   12   -0.19657555E+03    0.28421709E-13    0.17156731E-07
   13   -0.19657555E+03   -0.56843419E-13    0.29284717E-08

Total Energy:                     -192.4911812050 H        -5237.9515 eV
Extrapolated to 0K:               -192.4911812050 H        -5237.9515 eV
Total Mermin free energy:         -192.4911812050 H        -5237.9515 eV
Force related energy:             -192.4911812050 H        -5237.9515 eV

Volume:                              0.997413E+04 au^3   0.147801E+04 A^3
Pressure:                            0.939722E-03 au     0.276476E+11 Pa
>> Charges saved for restart in charges.bin

total energy  -1.9249118E+02 H       energy change -5.4790162E-01 H
gradient norm  5.8697644E-01 H/a0    max. gradient  1.3159133E-01 H/a0
step length    7.8561703E-01 a0      max. step      1.5498517E-01 a0

--------------------------------------------------------------------------------

***  Geometry step: 4

 iSCC Total electronic   Diff electronic      SCC error    
    1   -0.19657555E+03    0.00000000E+00    0.60758679E-01
    2   -0.19617937E+03    0.39617617E+00    0.34446799E-01
    3   -0.19618184E+03   -0.24716012E-02    0.66810921E-02
    4   -0.19618242E+03   -0.57688046E-03    0.12722321E-02
    5   -0.19618245E+03   -0.32999304E-04    0.44187237E-03
    6   -0.19618245E+03   -0.16304024E-05    0.15708271E-03
    7   -0.19618245E+03   -0.31373816E-07    0.52224077E-04
    8   -0.19618245E+03   -0.23529196E-08    0.11755666E-04
    9   -0.19618245E+03   -0.39074166E-09    0.27710088E-05
   10   -0.19618245E+03   -0.10913936E-10    0.35672943E-06
   11   -0.19618245E+03   -0.54001248E-12    0.87998000E-07
   12   -0.19618245E+03   -0.11368684E-12    0.22355989E-07
   13   -0.19618245E+03   -0.85265128E-13    0.27191214E-08

Total Energy:                     -192.8056278009 H        -5246.5081 eV
Extrapolated to 0K:               -192.8056278009 H        -5246.5081 eV
Total Mermin free energy:         -192.8056278009 H        -5246.5081 eV
Force related energy:             -192.8056278009 H        -5246.5081 eV

Volume:                              0.101071E+05 au^3   0.149771E+04 A^3
Pressure:                            0.652715E-03 au     0.192035E+11 Pa
>> Charges saved for restart in charges.bin

total energy  -1.9280563E+02 H       energy change -3.1444660E-01 H
gradient norm  4.4377734E-01 H/a0    max. gradient  2.2569632E-01 H/a0
step length    7.3612879E-01 a0      max. step      1.3186050E-01 a0

--------------------------------------------------------------------------------

***  Geometry step: 5

 iSCC Total electronic   Diff electronic      SCC error    
    1   -0.19618245E+03    0.00000000E+00    0.67912072E-01
    2   -0.19573119E+03    0.45126310E+00    0.41564142E-01
    3   -0.19573322E+03   -0.20287151E-02    0.78752392E-02
    4   -0.19573372E+03   -0.49977933E-03    0.13639323E-02
    5   -0.19573375E+03   -0.30018073E-04    0.26554403E-03
    6   -0.19573375E+03   -0.88977475E-06    0.82319842E-04
    7   -0.19573375E+03   -0.17148722E-07    0.28939026E-04
    8   -0.19573375E+03   -0.14302941E-08    0.77317359E-05
    9   -0.19573375E+03   -0.13980639E-09    0.20088255E-05
   10   -0.19573375E+03   -0.78728135E-11    0.24944780E-06
   11   -0.19573375E+03   -0.51159077E-12    0.36186226E-07
   12   -0.19573375E+03    0.28421709E-13    0.19043650E-07
   13   -0.19573375E+03   -0.85265128E-13    0.54627720E-08

Total Energy:                     -192.9912575119 H        -5251.5593 eV
Extrapolated to 0K:               -192.9912575119 H        -5251.5593 eV
Total Mermin free energy:         -192.9912575119 H        -5251.5593 eV
Force related energy:             -192.9912575119 H        -5251.5593 eV

Volume:                              0.103159E+05 au^3   0.152866E+04 A^3
Pressure:                            0.392123E-03 au     0.115366E+11 Pa
>> Charges saved for restart in charges.bin

total energy  -1.9299126E+02 H       energy change -1.8562971E-01 H
gradient norm  3.2093312E-01 H/a0    max. gradient  1.5684311E-01 H/a0
step length    7.0668420E-01 a0      max. step      2.3636441E-01 a0

--------------------------------------------------------------------------------

***  Geometry step: 6

 iSCC Total electronic   Diff electronic      SCC error    
    1   -0.19573375E+03    0.00000000E+00    0.50495054E-01
    2   -0.19540452E+03    0.32922560E+00    0.27505674E-01
    3   -0.19540596E+03   -0.14339156E-02    0.40305502E-02
    4   -0.19540628E+03   -0.31879141E-03    0.75681998E-03
    5   -0.19540629E+03   -0.14471491E-04    0.27798776E-03
    6   -0.19540629E+03   -0.58043668E-06    0.11380786E-03
    7   -0.19540629E+03   -0.75921207E-08    0.24832412E-04
    8   -0.19540629E+03   -0.74791728E-09    0.48753950E-05
    9   -0.19540629E+03   -0.12491341E-09    0.11980313E-05
   10   -0.19540629E+03   -0.35527137E-11    0.16395924E-06
   11   -0.19540629E+03   -0.25579538E-12    0.24166324E-07
   12   -0.19540629E+03    0.56843419E-13    0.95665493E-08

Total Energy:                     -193.0784762937 H        -5253.9327 eV
Extrapolated to 0K:               -193.0784762937 H        -5253.9327 eV
Total Mermin free energy:         -193.0784762937 H        -5253.9327 eV
Force related energy:             -193.0784762937 H        -5253.9327 eV

Volume:                              0.104609E+05 au^3   0.155015E+04 A^3
Pressure:                            0.223104E-03 au     0.656394E+10 Pa
>> Charges saved for restart in charges.bin

total energy  -1.9307848E+02 H       energy change -8.7218782E-02 H
gradient norm  1.9040547E-01 H/a0    max. gradient  9.2820596E-02 H/a0
step length    5.7520414E-01 a0      max. step      1.0978336E-01 a0

--------------------------------------------------------------------------------

***  Geometry step: 7

 iSCC Total electronic   Diff electronic      SCC error    
    1   -0.19540629E+03    0.00000000E+00    0.37805146E-01
    2   -0.19521583E+03    0.19045970E+00    0.18677414E-01
    3   -0.19521678E+03   -0.94972790E-03    0.37199572E-02
    4   -0.19521695E+03   -0.17107217E-03    0.88089733E-03
    5   -0.19521696E+03   -0.52418119E-05    0.33610041E-03
    6   -0.19521696E+03   -0.30147717E-06    0.10226956E-03
    7   -0.19521696E+03   -0.78398728E-08    0.19216267E-04
    8   -0.19521696E+03   -0.59628746E-09    0.25987500E-05
    9   -0.19521696E+03   -0.73413275E-10    0.76191364E-06
   10   -0.19521696E+03   -0.38937742E-11    0.13190465E-06
   11   -0.19521696E+03    0.28421709E-13    0.14029852E-07
   12   -0.19521696E+03   -0.14210855E-12    0.36911665E-08

Total Energy:                     -193.1158190515 H        -5254.9488 eV
Extrapolated to 0K:               -193.1158190515 H        -5254.9488 eV
Total Mermin free energy:         -193.1158190515 H        -5254.9488 eV
Force related energy:             -193.1158190515 H        -5254.9488 eV

Volume:                              0.105422E+05 au^3   0.156220E+04 A^3
Pressure:                            0.136560E-03 au     0.401772E+10 Pa
>> Charges saved for restart in charges.bin

total energy  -1.9311582E+02 H       energy change -3.7342758E-02 H
gradient norm  1.4050155E-01 H/a0    max. gradient  5.0060203E-02 H/a0
step length    4.3917233E-01 a0      max. step      7.5753675E-02 a0

--------------------------------------------------------------------------------

***  Geometry step: 8

 iSCC Total electronic   Diff electronic      SCC error    
    1   -0.19521696E+03    0.00000000E+00    0.19010288E-01
    2   -0.19510425E+03    0.11270546E+00    0.98391289E-02
    3   -0.19510452E+03   -0.26499178E-03    0.16646743E-02
    4   -0.19510457E+03   -0.50423270E-04    0.33416534E-03
    5   -0.19510457E+03   -0.16160423E-05    0.11532918E-03
    6   -0.19510457E+03   -0.75634631E-07    0.33109499E-04
    7   -0.19510457E+03   -0.45091895E-08    0.93121997E-05
    8   -0.19510457E+03   -0.16629542E-09    0.24678070E-05
    9   -0.19510457E+03   -0.12960300E-10    0.52511322E-06
   10   -0.19510457E+03   -0.14495072E-11    0.73826956E-07
   11   -0.19510457E+03    0.00000000E+00    0.15345075E-07
   12   -0.19510457E+03   -0.56843419E-13    0.25761673E-08

Total Energy:                     -193.1380342618 H        -5255.5533 eV
Extrapolated to 0K:               -193.1380342618 H        -5255.5533 eV
Total Mermin free energy:         -193.1380342618 H        -5255.5533 eV
Force related energy:             -193.1380342618 H        -5255.5533 eV

Volume:                              0.106064E+05 au^3   0.157170E+04 A^3
Pressure:                            0.785748E-04 au     0.231175E+10 Pa
>> Charges saved for restart in charges.bin

total energy  -1.9313803E+02 H       energy change -2.2215210E-02 H
gradient norm  1.1401521E-01 H/a0    max. gradient  2.6757959E-02 H/a0
step length    3.6083165E-01 a0      max. step      8.0090045E-02 a0

--------------------------------------------------------------------------------

***  Geometry step: 9

 iSCC Total electronic   Diff electronic      SCC error    
    1   -0.19510457E+03    0.00000000E+00    0.21065237E-01
    2   -0.19508852E+03    0.16046290E-01    0.12438019E-01
    3   -0.19508891E+03   -0.39075031E-03    0.36366700E-02
    4   -0.19508898E+03   -0.61872766E-04    0.46680063E-03
    5   -0.19508898E+03   -0.22551023E-05    0.84093050E-04
    6   -0.19508898E+03   -0.26018856E-06    0.32490871E-04
    7   -0.19508898E+03   -0.40666066E-08    0.98824700E-05
    8   -0.19508898E+03   -0.12715873E-09    0.23794129E-05
    9   -0.19508898E+03   -0.10857093E-10    0.50809077E-06
   10   -0.19508898E+03   -0.99475983E-12    0.11991651E-06
   11   -0.19508898E+03   -0.85265128E-13    0.19892108E-07
   12   -0.19508898E+03    0.28421709E-13    0.21057236E-08

Total Energy:                     -193.1584693938 H        -5256.1094 eV
Extrapolated to 0K:               -193.1584693938 H        -5256.1094 eV
Total Mermin free energy:         -193.1584693938 H        -5256.1094 eV
Force related energy:             -193.1584693938 H        -5256.1094 eV

Volume:                              0.106306E+05 au^3   0.157529E+04 A^3
Pressure:                            0.587862E-04 au     0.172955E+10 Pa
>> Charges saved for restart in charges.bin

total energy  -1.9315847E+02 H       energy change -2.0435132E-02 H
gradient norm  9.9887522E-02 H/a0    max. gradient  2.2937291E-02 H/a0
step length    3.6472142E-01 a0      max. step      6.4467249E-02 a0

--------------------------------------------------------------------------------

***  Geometry step: 10

 iSCC Total electronic   Diff electronic      SCC error    
    1   -0.19508898E+03    0.00000000E+00    0.30011418E-01
    2   -0.19512880E+03   -0.39821113E-01    0.17632024E-01
    3   -0.19512935E+03   -0.55347520E-03    0.29211214E-02
    4   -0.19512947E+03   -0.11793263E-03    0.39358877E-03
    5   -0.19512948E+03   -0.64074605E-05    0.11832602E-03
    6   -0.19512948E+03   -0.16999255E-06    0.42648799E-04
    7   -0.19512948E+03   -0.44186663E-08    0.87348447E-05
    8   -0.19512948E+03   -0.19608137E-09    0.23020864E-05
    9   -0.19512948E+03   -0.18644641E-10    0.55403836E-06
   10   -0.19512948E+03   -0.17337243E-11    0.12373773E-06
   11   -0.19512948E+03   -0.56843419E-13    0.13119824E-07
   12   -0.19512948E+03    0.28421709E-13    0.29448386E-08

Total Energy:                     -193.1780718164 H        -5256.6428 eV
Extrapolated to 0K:               -193.1780718164 H        -5256.6428 eV
Total Mermin free energy:         -193.1780718164 H        -5256.6428 eV
Force related energy:             -193.1780718164 H        -5256.6428 eV

Volume:                              0.106465E+05 au^3   0.157765E+04 A^3
Pressure:                            0.636123E-04 au     0.187154E+10 Pa
>> Charges saved for restart in charges.bin

total energy  -1.9317807E+02 H       energy change -1.9602423E-02 H
gradient norm  9.6849684E-02 H/a0    max. gradient  3.9793425E-02 H/a0
step length    4.3199059E-01 a0      max. step      6.6917526E-02 a0

--------------------------------------------------------------------------------

***  Geometry step: 11

 iSCC Total electronic   Diff electronic      SCC error    
    1   -0.19512948E+03    0.00000000E+00    0.22708359E-01
    2   -0.19517747E+03   -0.47991946E-01    0.13829192E-01
    3   -0.19517787E+03   -0.39806380E-03    0.26604834E-02
    4   -0.19517795E+03   -0.86895201E-04    0.59530430E-03
    5   -0.19517796E+03   -0.43631848E-05    0.21363522E-03
    6   -0.19517796E+03   -0.20527850E-06    0.65103638E-04
    7   -0.19517796E+03   -0.57994214E-08    0.12092130E-04
    8   -0.19517796E+03   -0.22129143E-09    0.20396111E-05
    9   -0.19517796E+03   -0.24584779E-10    0.26688853E-06
   10   -0.19517796E+03   -0.22168933E-11    0.75868665E-07
   11   -0.19517796E+03   -0.85265128E-13    0.10706509E-07
   12   -0.19517796E+03   -0.28421709E-13    0.22068467E-08

Total Energy:                     -193.1899430868 H        -5256.9658 eV
Extrapolated to 0K:               -193.1899430868 H        -5256.9658 eV
Total Mermin free energy:         -193.1899430868 H        -5256.9658 eV
Force related energy:             -193.1899430868 H        -5256.9658 eV

Volume:                              0.106543E+05 au^3   0.157880E+04 A^3
Pressure:                            0.733143E-04 au     0.215698E+10 Pa
>> Charges saved for restart in charges.bin

total energy  -1.9318994E+02 H       energy change -1.1871270E-02 H
gradient norm  8.3874134E-02 H/a0    max. gradient  1.8201552E-02 H/a0
step length    3.2156397E-01 a0      max. step      4.6418626E-02 a0

--------------------------------------------------------------------------------

***  Geometry step: 12

 iSCC Total electronic   Diff electronic      SCC error    
    1   -0.19517796E+03    0.00000000E+00    0.22341808E-01
    2   -0.19520885E+03   -0.30890485E-01    0.13326741E-01
    3   -0.19520903E+03   -0.17890038E-03    0.21648268E-02
    4   -0.19520908E+03   -0.48207833E-04    0.60903494E-03
    5   -0.19520908E+03   -0.24693414E-05    0.23534500E-03
    6   -0.19520908E+03   -0.44407614E-07    0.46500201E-04
    7   -0.19520908E+03   -0.19730066E-08    0.55534509E-05
    8   -0.19520908E+03   -0.18570745E-09    0.98956185E-06
    9   -0.19520908E+03   -0.11283419E-10    0.23564750E-06
   10   -0.19520908E+03   -0.51159077E-12    0.35184242E-07
   11   -0.19520908E+03   -0.28421709E-13    0.42902055E-08

Total Energy:                     -193.2006208005 H        -5257.2564 eV
Extrapolated to 0K:               -193.2006208005 H        -5257.2564 eV
Total Mermin free energy:         -193.2006208005 H        -5257.2564 eV
Force related energy:             -193.2006208005 H        -5257.2564 eV

Volume:                              0.106762E+05 au^3   0.158205E+04 A^3
Pressure:                            0.756782E-04 au     0.222653E+10 Pa
>> Charges saved for restart in charges.bin

total energy  -1.9320062E+02 H       energy change -1.0677714E-02 H
gradient norm  7.3651040E-02 H/a0    max. gradient  1.4359720E-02 H/a0
step length    3.1231703E-01 a0      max. step      5.0299266E-02 a0

--------------------------------------------------------------------------------

***  Geometry step: 13

 iSCC Total electronic   Diff electronic      SCC error    
    1   -0.19520908E+03    0.00000000E+00    0.22289118E-01
    2   -0.19522043E+03   -0.11348131E-01    0.12740143E-01
    3   -0.19522057E+03   -0.14358617E-03    0.23844820E-02
    4   -0.19522061E+03   -0.40957177E-04    0.63142065E-03
    5   -0.19522061E+03   -0.20284020E-05    0.19525146E-03
    6   -0.19522061E+03   -0.42752390E-07    0.43601855E-04
    7   -0.19522061E+03   -0.12719852E-08    0.46542786E-05
    8   -0.19522061E+03   -0.17075763E-09    0.72404668E-06
    9   -0.19522061E+03   -0.11226575E-10    0.13782092E-06
   10   -0.19522061E+03   -0.22737368E-12    0.27271772E-07
   11   -0.19522061E+03   -0.28421709E-13    0.36288421E-08

Total Energy:                     -193.2107433684 H        -5257.5318 eV
Extrapolated to 0K:               -193.2107433684 H        -5257.5318 eV
Total Mermin free energy:         -193.2107433684 H        -5257.5318 eV
Force related energy:             -193.2107433684 H        -5257.5318 eV

Volume:                              0.107155E+05 au^3   0.158788E+04 A^3
Pressure:                            0.715394E-04 au     0.210476E+10 Pa
>> Charges saved for restart in charges.bin

total energy  -1.9321074E+02 H       energy change -1.0122568E-02 H
gradient norm  6.6563272E-02 H/a0    max. gradient  1.4634625E-02 H/a0
step length    3.2618939E-01 a0      max. step      5.6726490E-02 a0

--------------------------------------------------------------------------------

***  Geometry step: 14

 iSCC Total electronic   Diff electronic      SCC error    
    1   -0.19522061E+03    0.00000000E+00    0.17139061E-01
    2   -0.19520128E+03    0.19336188E-01    0.98287085E-02
    3   -0.19520138E+03   -0.10708234E-03    0.20494544E-02
    4   -0.19520141E+03   -0.27365724E-04    0.46926170E-03
    5   -0.19520141E+03   -0.13516187E-05    0.16965977E-03
    6   -0.19520141E+03   -0.44112340E-07    0.42083013E-04
    7   -0.19520141E+03   -0.94411234E-09    0.51375759E-05
    8   -0.19520141E+03   -0.11590373E-09    0.76729441E-06
    9   -0.19520141E+03   -0.98339115E-11    0.24673746E-06
   10   -0.19520141E+03   -0.36948222E-12    0.35840373E-07
   11   -0.19520141E+03   -0.28421709E-13    0.57415814E-08

Total Energy:                     -193.2178534413 H        -5257.7253 eV
Extrapolated to 0K:               -193.2178534413 H        -5257.7253 eV
Total Mermin free energy:         -193.2178534413 H        -5257.7253 eV
Force related energy:             -193.2178534413 H        -5257.7253 eV

Volume:                              0.107676E+05 au^3   0.159560E+04 A^3
Pressure:                            0.580548E-04 au     0.170803E+10 Pa
>> Charges saved for restart in charges.bin

total energy  -1.9321785E+02 H       energy change -7.1100729E-03 H
gradient norm  5.6486736E-02 H/a0    max. gradient  1.2017723E-02 H/a0
step length    2.8264620E-01 a0      max. step      5.0550361E-02 a0

--------------------------------------------------------------------------------

***  Geometry step: 15

 iSCC Total electronic   Diff electronic      SCC error    
    1   -0.19520141E+03    0.00000000E+00    0.10920355E-01
    2   -0.19517125E+03    0.30164445E-01    0.63964221E-02
    3   -0.19517131E+03   -0.57555518E-04    0.16477356E-02
    4   -0.19517132E+03   -0.12506224E-04    0.34635642E-03
    5   -0.19517132E+03   -0.62602038E-06    0.13012033E-03
    6   -0.19517132E+03   -0.33078692E-07    0.37009935E-04
    7   -0.19517132E+03   -0.66935968E-09    0.42488429E-05
    8   -0.19517132E+03   -0.78813400E-10    0.67996489E-06
    9   -0.19517132E+03   -0.49453774E-11    0.25000257E-06
   10   -0.19517132E+03   -0.14210855E-12    0.30213888E-07
   11   -0.19517132E+03   -0.56843419E-13    0.44678026E-08

Total Energy:                     -193.2227931458 H        -5257.8597 eV
Extrapolated to 0K:               -193.2227931458 H        -5257.8597 eV
Total Mermin free energy:         -193.2227931458 H        -5257.8597 eV
Force related energy:             -193.2227931458 H        -5257.8597 eV

Volume:                              0.108205E+05 au^3   0.160344E+04 A^3
Pressure:                            0.406953E-04 au     0.119730E+10 Pa
>> Charges saved for restart in charges.bin

total energy  -1.9322279E+02 H       energy change -4.9397045E-03 H
gradient norm  5.0507365E-02 H/a0    max. gradient  8.3656298E-03 H/a0
step length    2.5372192E-01 a0      max. step      4.8777667E-02 a0

--------------------------------------------------------------------------------

***  Geometry step: 16

 iSCC Total electronic   Diff electronic      SCC error    
    1   -0.19517132E+03    0.00000000E+00    0.59074243E-02
    2   -0.19514710E+03    0.24216646E-01    0.33971487E-02
    3   -0.19514714E+03   -0.35397221E-04    0.10520342E-02
    4   -0.19514714E+03   -0.61825956E-05    0.24213432E-03
    5   -0.19514714E+03   -0.25955575E-06    0.86021266E-04
    6   -0.19514714E+03   -0.19117522E-07    0.25900099E-04
    7   -0.19514714E+03   -0.54029670E-09    0.34696789E-05
    8   -0.19514714E+03   -0.36095571E-10    0.46737387E-06
    9   -0.19514714E+03   -0.26432190E-11    0.16636108E-06
   10   -0.19514714E+03   -0.17053026E-12    0.23710186E-07
   11   -0.19514714E+03    0.28421709E-13    0.33085623E-08

Total Energy:                     -193.2270181376 H        -5257.9747 eV
Extrapolated to 0K:               -193.2270181376 H        -5257.9747 eV
Total Mermin free energy:         -193.2270181376 H        -5257.9747 eV
Force related energy:             -193.2270181376 H        -5257.9747 eV

Volume:                              0.108665E+05 au^3   0.161025E+04 A^3
Pressure:                            0.255422E-04 au     0.751478E+09 Pa
>> Charges saved for restart in charges.bin

total energy  -1.9322702E+02 H       energy change -4.2249918E-03 H
gradient norm  4.8952027E-02 H/a0    max. gradient  8.9481480E-03 H/a0
step length    2.2853370E-01 a0      max. step      4.2976954E-02 a0

--------------------------------------------------------------------------------

***  Geometry step: 17

 iSCC Total electronic   Diff electronic      SCC error    
    1   -0.19514714E+03    0.00000000E+00    0.10105211E-01
    2   -0.19514199E+03    0.51506412E-02    0.55281411E-02
    3   -0.19514204E+03   -0.44577880E-04    0.13630464E-02
    4   -0.19514205E+03   -0.67759633E-05    0.15221281E-03
    5   -0.19514205E+03   -0.38639524E-06    0.59049237E-04
    6   -0.19514205E+03   -0.20809750E-07    0.18257927E-04
    7   -0.19514205E+03   -0.52187943E-09    0.31486551E-05
    8   -0.19514205E+03   -0.30581759E-10    0.76624627E-06
    9   -0.19514205E+03   -0.21600499E-11    0.16388984E-06
   10   -0.19514205E+03   -0.25579538E-12    0.28341634E-07
   11   -0.19514205E+03   -0.28421709E-13    0.19826034E-08

Total Energy:                     -193.2317309140 H        -5258.1029 eV
Extrapolated to 0K:               -193.2317309140 H        -5258.1029 eV
Total Mermin free energy:         -193.2317309140 H        -5258.1029 eV
Force related energy:             -193.2317309140 H        -5258.1029 eV

Volume:                              0.109059E+05 au^3   0.161609E+04 A^3
Pressure:                            0.186265E-04 au     0.548011E+09 Pa
>> Charges saved for restart in charges.bin

total energy  -1.9323173E+02 H       energy change -4.7127764E-03 H
gradient norm  5.3720294E-02 H/a0    max. gradient  1.1775611E-02 H/a0
step length    2.5653163E-01 a0      max. step      4.4321570E-02 a0

--------------------------------------------------------------------------------

***  Geometry step: 18

 iSCC Total electronic   Diff electronic      SCC error    
    1   -0.19514205E+03    0.00000000E+00    0.14297913E-01
    2   -0.19515276E+03   -0.10713231E-01    0.83675398E-02
    3   -0.19515285E+03   -0.89716216E-04    0.22609312E-02
    4   -0.19515286E+03   -0.13252868E-04    0.21006100E-03
    5   -0.19515286E+03   -0.76138710E-06    0.67086280E-04
    6   -0.19515286E+03   -0.36944897E-07    0.24215949E-04
    7   -0.19515286E+03   -0.83466034E-09    0.50688234E-05
    8   -0.19515286E+03   -0.41126214E-10    0.15377267E-05
    9   -0.19515286E+03   -0.25011104E-11    0.32727126E-06
   10   -0.19515286E+03   -0.31263880E-12    0.37508127E-07
   11   -0.19515286E+03    0.85265128E-13    0.49603357E-08

Total Energy:                     -193.2369976121 H        -5258.2462 eV
Extrapolated to 0K:               -193.2369976121 H        -5258.2462 eV
Total Mermin free energy:         -193.2369976121 H        -5258.2462 eV
Force related energy:             -193.2369976121 H        -5258.2462 eV

Volume:                              0.109426E+05 au^3   0.162152E+04 A^3
Pressure:                            0.189944E-04 au     0.558835E+09 Pa
>> Charges saved for restart in charges.bin

total energy  -1.9323700E+02 H       energy change -5.2666981E-03 H
gradient norm  5.4343062E-02 H/a0    max. gradient  1.0233364E-02 H/a0
step length    3.0196924E-01 a0      max. step      4.9140667E-02 a0

--------------------------------------------------------------------------------

***  Geometry step: 19

 iSCC Total electronic   Diff electronic      SCC error    
    1   -0.19515286E+03    0.00000000E+00    0.13353867E-01
    2   -0.19517008E+03   -0.17219367E-01    0.78150092E-02
    3   -0.19517021E+03   -0.12300692E-03    0.23983204E-02
    4   -0.19517022E+03   -0.16653263E-04    0.28106204E-03
    5   -0.19517022E+03   -0.84347457E-06    0.97256259E-04
    6   -0.19517022E+03   -0.54001191E-07    0.35240812E-04
    7   -0.19517022E+03   -0.13037038E-08    0.65240910E-05
    8   -0.19517022E+03   -0.62186700E-10    0.14975257E-05
    9   -0.19517022E+03   -0.42916781E-11    0.32404320E-06
   10   -0.19517022E+03   -0.59685590E-12    0.30299879E-07
   11   -0.19517022E+03    0.00000000E+00    0.60466849E-08

Total Energy:                     -193.2419078219 H        -5258.3799 eV
Extrapolated to 0K:               -193.2419078219 H        -5258.3799 eV
Total Mermin free energy:         -193.2419078219 H        -5258.3799 eV
Force related energy:             -193.2419078219 H        -5258.3799 eV

Volume:                              0.109770E+05 au^3   0.162663E+04 A^3
Pressure:                            0.221807E-04 au     0.652578E+09 Pa
>> Charges saved for restart in charges.bin

total energy  -1.9324191E+02 H       energy change -4.9102099E-03 H
gradient norm  4.9660085E-02 H/a0    max. gradient  8.5611638E-03 H/a0
step length    3.2282220E-01 a0      max. step      5.7115527E-02 a0

--------------------------------------------------------------------------------

***  Geometry step: 20

 iSCC Total electronic   Diff electronic      SCC error    
    1   -0.19517022E+03    0.00000000E+00    0.10622307E-01
    2   -0.19518504E+03   -0.14815395E-01    0.51296570E-02
    3   -0.19518517E+03   -0.13210721E-03    0.19577214E-02
    4   -0.19518519E+03   -0.15435807E-04    0.40119263E-03
    5   -0.19518519E+03   -0.68648515E-06    0.11619700E-03
    6   -0.19518519E+03   -0.47378876E-07    0.39285092E-04
    7   -0.19518519E+03   -0.12058763E-08    0.64608958E-05
    8   -0.19518519E+03   -0.68695272E-10    0.11711987E-05
    9   -0.19518519E+03   -0.48032689E-11    0.31464657E-06
   10   -0.19518519E+03   -0.54001248E-12    0.34300593E-07
   11   -0.19518519E+03   -0.28421709E-13    0.47785114E-08

Total Energy:                     -193.2463803494 H        -5258.5016 eV
Extrapolated to 0K:               -193.2463803494 H        -5258.5016 eV
Total Mermin free energy:         -193.2463803494 H        -5258.5016 eV
Force related energy:             -193.2463803494 H        -5258.5016 eV

Volume:                              0.110134E+05 au^3   0.163202E+04 A^3
Pressure:                            0.245323E-04 au     0.721765E+09 Pa
>> Charges saved for restart in charges.bin

total energy  -1.9324638E+02 H       energy change -4.4725274E-03 H
gradient norm  4.2868086E-02 H/a0    max. gradient  9.5297185E-03 H/a0
step length    3.2799256E-01 a0      max. step      5.8552136E-02 a0

--------------------------------------------------------------------------------

***  Geometry step: 21

 iSCC Total electronic   Diff electronic      SCC error    
    1   -0.19518519E+03    0.00000000E+00    0.92201518E-02
    2   -0.19519177E+03   -0.65806206E-02    0.49120501E-02
    3   -0.19519189E+03   -0.12196730E-03    0.20245376E-02
    4   -0.19519190E+03   -0.14163377E-04    0.42540465E-03
    5   -0.19519190E+03   -0.64218909E-06    0.11916588E-03
    6   -0.19519190E+03   -0.40553630E-07    0.37194943E-04
    7   -0.19519190E+03   -0.88843422E-09    0.53047500E-05
    8   -0.19519190E+03   -0.71452178E-10    0.98797593E-06
    9   -0.19519190E+03   -0.42064130E-11    0.27882047E-06
   10   -0.19519190E+03   -0.34106051E-12    0.32300099E-07
   11   -0.19519190E+03   -0.14210855E-12    0.56264184E-08

Total Energy:                     -193.2501259568 H        -5258.6035 eV
Extrapolated to 0K:               -193.2501259568 H        -5258.6035 eV
Total Mermin free energy:         -193.2501259568 H        -5258.6035 eV
Force related energy:             -193.2501259568 H        -5258.6035 eV

Volume:                              0.110547E+05 au^3   0.163814E+04 A^3
Pressure:                            0.241116E-04 au     0.709387E+09 Pa
>> Charges saved for restart in charges.bin

total energy  -1.9325013E+02 H       energy change -3.7456075E-03 H
gradient norm  3.6873567E-02 H/a0    max. gradient  9.5398586E-03 H/a0
step length    3.2161531E-01 a0      max. step      5.9382268E-02 a0

--------------------------------------------------------------------------------

***  Geometry step: 22

 iSCC Total electronic   Diff electronic      SCC error    
    1   -0.19519190E+03    0.00000000E+00    0.91760526E-02
    2   -0.19518660E+03    0.53047232E-02    0.50262752E-02
    3   -0.19518666E+03   -0.57054715E-04    0.11835154E-02
    4   -0.19518667E+03   -0.89696307E-05    0.23483958E-03
    5   -0.19518667E+03   -0.44521832E-06    0.77218509E-04
    6   -0.19518667E+03   -0.22045157E-07    0.24946685E-04
    7   -0.19518667E+03   -0.56019189E-09    0.50762018E-05
    8   -0.19518667E+03   -0.33566039E-10    0.96440580E-06
    9   -0.19518667E+03   -0.26716407E-11    0.14794083E-06
   10   -0.19518667E+03   -0.25579538E-12    0.22271487E-07
   11   -0.19518667E+03    0.00000000E+00    0.26499642E-08

Total Energy:                     -193.2523407803 H        -5258.6638 eV
Extrapolated to 0K:               -193.2523407803 H        -5258.6638 eV
Total Mermin free energy:         -193.2523407803 H        -5258.6638 eV
Force related energy:             -193.2523407803 H        -5258.6638 eV

Volume:                              0.110920E+05 au^3   0.164366E+04 A^3
Pressure:                            0.200875E-04 au     0.590994E+09 Pa
>> Charges saved for restart in charges.bin

total energy  -1.9325234E+02 H       energy change -2.2148235E-03 H
gradient norm  3.3549151E-02 H/a0    max. gradient  7.6619274E-03 H/a0
step length    2.3442549E-01 a0      max. step      4.4611756E-02 a0

--------------------------------------------------------------------------------

***  Geometry step: 23

 iSCC Total electronic   Diff electronic      SCC error    
    1   -0.19518667E+03    0.00000000E+00    0.68766289E-02
    2   -0.19517676E+03    0.99017325E-02    0.37629680E-02
    3   -0.19517679E+03   -0.24095326E-04    0.75328315E-03
    4   -0.19517679E+03   -0.51010172E-05    0.10278252E-03
    5   -0.19517679E+03   -0.19883271E-06    0.18751806E-04
    6   -0.19517679E+03   -0.62906054E-08    0.68234836E-05
    7   -0.19517679E+03   -0.25306690E-09    0.22230794E-05
    8   -0.19517679E+03   -0.58548721E-11    0.52449563E-06
    9   -0.19517679E+03   -0.42632564E-12    0.80615779E-07
   10   -0.19517679E+03   -0.56843419E-13    0.11765823E-07
   11   -0.19517679E+03    0.00000000E+00    0.29105043E-08

Total Energy:                     -193.2535673144 H        -5258.6971 eV
Extrapolated to 0K:               -193.2535673144 H        -5258.6971 eV
Total Mermin free energy:         -193.2535673144 H        -5258.6971 eV
Force related energy:             -193.2535673144 H        -5258.6971 eV

Volume:                              0.111185E+05 au^3   0.164759E+04 A^3
Pressure:                            0.147026E-04 au     0.432566E+09 Pa
>> Charges saved for restart in charges.bin

total energy  -1.9325357E+02 H       energy change -1.2265340E-03 H
gradient norm  2.6691237E-02 H/a0    max. gradient  7.3064131E-03 H/a0
step length    1.3085057E-01 a0      max. step      2.3825378E-02 a0

--------------------------------------------------------------------------------

***  Geometry step: 24

 iSCC Total electronic   Diff electronic      SCC error    
    1   -0.19517679E+03    0.00000000E+00    0.48237125E-02
    2   -0.19516822E+03    0.85731544E-02    0.27361531E-02
    3   -0.19516825E+03   -0.25918571E-04    0.73121999E-03
    4   -0.19516825E+03   -0.44721618E-05    0.11538498E-03
    5   -0.19516825E+03   -0.13811021E-06    0.25852261E-04
    6   -0.19516825E+03   -0.73883086E-08    0.91147823E-05
    7   -0.19516825E+03   -0.13980639E-09    0.24955933E-05
    8   -0.19516825E+03   -0.42916781E-11    0.39676069E-06
    9   -0.19516825E+03   -0.71054274E-12    0.59419902E-07
   10   -0.19516825E+03   -0.56843419E-13    0.10930936E-07
   11   -0.19516825E+03    0.85265128E-13    0.30663405E-08

Total Energy:                     -193.2544969935 H        -5258.7224 eV
Extrapolated to 0K:               -193.2544969935 H        -5258.7224 eV
Total Mermin free energy:         -193.2544969935 H        -5258.7224 eV
Force related energy:             -193.2544969935 H        -5258.7224 eV

Volume:                              0.111383E+05 au^3   0.165053E+04 A^3
Pressure:                            0.971868E-05 au     0.285933E+09 Pa
>> Charges saved for restart in charges.bin

total energy  -1.9325450E+02 H       energy change -9.2967907E-04 H
gradient norm  2.1938207E-02 H/a0    max. gradient  5.9124174E-03 H/a0
step length    8.7296082E-02 a0      max. step      1.8408909E-02 a0

--------------------------------------------------------------------------------

***  Geometry step: 25

 iSCC Total electronic   Diff electronic      SCC error    
    1   -0.19516825E+03    0.00000000E+00    0.35988916E-02
    2   -0.19516635E+03    0.18958781E-02    0.20215951E-02
    3   -0.19516637E+03   -0.17594243E-04    0.67465233E-03
    4   -0.19516637E+03   -0.22878311E-05    0.97854551E-04
    5   -0.19516637E+03   -0.73196645E-07    0.26709508E-04
    6   -0.19516637E+03   -0.51007873E-08    0.78274013E-05
    7   -0.19516637E+03   -0.10840040E-09    0.10441046E-05
    8   -0.19516637E+03   -0.60254024E-11    0.21258723E-06
    9   -0.19516637E+03   -0.51159077E-12    0.55063163E-07
   10   -0.19516637E+03   -0.14210855E-12    0.12290231E-07
   11   -0.19516637E+03    0.28421709E-13    0.31767016E-08

Total Energy:                     -193.2552054218 H        -5258.7417 eV
Extrapolated to 0K:               -193.2552054218 H        -5258.7417 eV
Total Mermin free energy:         -193.2552054218 H        -5258.7417 eV
Force related energy:             -193.2552054218 H        -5258.7417 eV

Volume:                              0.111517E+05 au^3   0.165251E+04 A^3
Pressure:                            0.767863E-05 au     0.225913E+09 Pa
>> Charges saved for restart in charges.bin

total energy  -1.9325521E+02 H       energy change -7.0842836E-04 H
gradient norm  2.3615004E-02 H/a0    max. gradient  6.9747605E-03 H/a0
step length    7.1399150E-02 a0      max. step      2.0099619E-02 a0

--------------------------------------------------------------------------------

***  Geometry step: 26

 iSCC Total electronic   Diff electronic      SCC error    
    1   -0.19516637E+03    0.00000000E+00    0.55282560E-02
    2   -0.19516967E+03   -0.32989310E-02    0.31505413E-02
    3   -0.19516970E+03   -0.29912693E-04    0.10501838E-02
    4   -0.19516971E+03   -0.35464263E-05    0.15978513E-03
    5   -0.19516971E+03   -0.12833394E-06    0.43753181E-04
    6   -0.19516971E+03   -0.76650508E-08    0.11514463E-04
    7   -0.19516971E+03   -0.14472334E-09    0.12777733E-05
    8   -0.19516971E+03   -0.14608759E-10    0.30933368E-06
    9   -0.19516971E+03   -0.76738615E-12    0.90786455E-07
   10   -0.19516971E+03   -0.28421709E-13    0.22993825E-07
   11   -0.19516971E+03    0.28421709E-13    0.38383283E-08

Total Energy:                     -193.2561582882 H        -5258.7676 eV
Extrapolated to 0K:               -193.2561582882 H        -5258.7676 eV
Total Mermin free energy:         -193.2561582882 H        -5258.7676 eV
Force related energy:             -193.2561582882 H        -5258.7676 eV

Volume:                              0.111710E+05 au^3   0.165536E+04 A^3
Pressure:                            0.706245E-05 au     0.207784E+09 Pa
>> Charges saved for restart in charges.bin

total energy  -1.9325616E+02 H       energy change -9.5286639E-04 H
gradient norm  2.4224001E-02 H/a0    max. gradient  4.9477232E-03 H/a0
step length    1.1253038E-01 a0      max. step      3.2758451E-02 a0

--------------------------------------------------------------------------------

***  Geometry step: 27

 iSCC Total electronic   Diff electronic      SCC error    
    1   -0.19516971E+03    0.00000000E+00    0.49951504E-02
    2   -0.19517722E+03   -0.75125486E-02    0.26662351E-02
    3   -0.19517724E+03   -0.23892181E-04    0.10007609E-02
    4   -0.19517725E+03   -0.34070765E-05    0.16459934E-03
    5   -0.19517725E+03   -0.16728589E-06    0.50613549E-04
    6   -0.19517725E+03   -0.66916641E-08    0.11671305E-04
    7   -0.19517725E+03   -0.14972557E-09    0.15092668E-05
    8   -0.19517725E+03   -0.14580337E-10    0.39969951E-06
    9   -0.19517725E+03   -0.11937118E-11    0.95557130E-07
   10   -0.19517725E+03    0.56843419E-13    0.17591750E-07
   11   -0.19517725E+03   -0.56843419E-13    0.45793938E-08

Total Energy:                     -193.2570292248 H        -5258.7913 eV
Extrapolated to 0K:               -193.2570292248 H        -5258.7913 eV
Total Mermin free energy:         -193.2570292248 H        -5258.7913 eV
Force related energy:             -193.2570292248 H        -5258.7913 eV

Volume:                              0.111949E+05 au^3   0.165891E+04 A^3
Pressure:                            0.813696E-05 au     0.239398E+09 Pa
>> Charges saved for restart in charges.bin

total energy  -1.9325703E+02 H       energy change -8.7093656E-04 H
gradient norm  2.0901216E-02 H/a0    max. gradient  5.1542184E-03 H/a0
step length    1.4019375E-01 a0      max. step      3.5683934E-02 a0

--------------------------------------------------------------------------------

***  Geometry step: 28

 iSCC Total electronic   Diff electronic      SCC error    
    1   -0.19517725E+03    0.00000000E+00    0.38479491E-02
    2   -0.19518368E+03   -0.64357471E-02    0.22550588E-02
    3   -0.19518370E+03   -0.15092148E-04    0.60670712E-03
    4   -0.19518370E+03   -0.27602078E-05    0.11452167E-03
    5   -0.19518370E+03   -0.12705024E-06    0.38308363E-04
    6   -0.19518370E+03   -0.45586432E-08    0.93190093E-05
    7   -0.19518370E+03   -0.91887387E-10    0.16221537E-05
    8   -0.19518370E+03   -0.57980287E-11    0.23886649E-06
    9   -0.19518370E+03   -0.10231815E-11    0.52502580E-07
   10   -0.19518370E+03   -0.28421709E-13    0.11386441E-07
   11   -0.19518370E+03   -0.28421709E-13    0.30055647E-08

Total Energy:                     -193.2576617711 H        -5258.8085 eV
Extrapolated to 0K:               -193.2576617711 H        -5258.8085 eV
Total Mermin free energy:         -193.2576617711 H        -5258.8085 eV
Force related energy:             -193.2576617711 H        -5258.8085 eV

Volume:                              0.112169E+05 au^3   0.166217E+04 A^3
Pressure:                            0.927741E-05 au     0.272951E+09 Pa
>> Charges saved for restart in charges.bin

total energy  -1.9325766E+02 H       energy change -6.3254632E-04 H
gradient norm  1.7387302E-02 H/a0    max. gradient  3.4949604E-03 H/a0
step length    1.2883944E-01 a0      max. step      3.0411120E-02 a0

--------------------------------------------------------------------------------

***  Geometry step: 29

 iSCC Total electronic   Diff electronic      SCC error    
    1   -0.19518370E+03    0.00000000E+00    0.37257264E-02
    2   -0.19518637E+03   -0.26653251E-02    0.21399032E-02
    3   -0.19518638E+03   -0.95647247E-05    0.42886017E-03
    4   -0.19518638E+03   -0.18976662E-05    0.51028710E-04
    5   -0.19518638E+03   -0.84040266E-07    0.20419403E-04
    6   -0.19518638E+03   -0.19193180E-08    0.66499475E-05
    7   -0.19518638E+03   -0.39420911E-10    0.16385383E-05
    8   -0.19518638E+03   -0.14210855E-11    0.19560217E-06
    9   -0.19518638E+03   -0.54001248E-12    0.37045038E-07
   10   -0.19518638E+03    0.11368684E-12    0.78973175E-08

Total Energy:                     -193.2581224443 H        -5258.8211 eV
Extrapolated to 0K:               -193.2581224443 H        -5258.8211 eV
Total Mermin free energy:         -193.2581224443 H        -5258.8211 eV
Force related energy:             -193.2581224443 H        -5258.8211 eV

Volume:                              0.112354E+05 au^3   0.166492E+04 A^3
Pressure:                            0.960927E-05 au     0.282714E+09 Pa
>> Charges saved for restart in charges.bin

total energy  -1.9325812E+02 H       energy change -4.6067322E-04 H
gradient norm  1.5642640E-02 H/a0    max. gradient  4.5807805E-03 H/a0
step length    1.0589764E-01 a0      max. step      2.2406964E-02 a0

--------------------------------------------------------------------------------

***  Geometry step: 30

 iSCC Total electronic   Diff electronic      SCC error    
    1   -0.19518638E+03    0.00000000E+00    0.33987648E-02
    2   -0.19518481E+03    0.15708153E-02    0.19548199E-02
    3   -0.19518481E+03   -0.61434178E-05    0.35173651E-03
    4   -0.19518481E+03   -0.12666636E-05    0.29299042E-04
    5   -0.19518481E+03   -0.57976820E-07    0.62281442E-05
    6   -0.19518481E+03   -0.85751140E-09    0.26509938E-05
    7   -0.19518481E+03   -0.11169732E-10    0.91323528E-06
    8   -0.19518481E+03   -0.48316906E-12    0.16354739E-06
    9   -0.19518481E+03   -0.56843419E-13    0.27273260E-07
   10   -0.19518481E+03    0.28421709E-13    0.49340847E-08

Total Energy:                     -193.2585020191 H        -5258.8314 eV
Extrapolated to 0K:               -193.2585020191 H        -5258.8314 eV
Total Mermin free energy:         -193.2585020191 H        -5258.8314 eV
Force related energy:             -193.2585020191 H        -5258.8314 eV

Volume:                              0.112505E+05 au^3   0.166715E+04 A^3
Pressure:                            0.854912E-05 au     0.251524E+09 Pa
>> Charges saved for restart in charges.bin

total energy  -1.9325850E+02 H       energy change -3.7957480E-04 H
gradient norm  1.4860321E-02 H/a0    max. gradient  5.0336226E-03 H/a0
step length    8.3392692E-02 a0      max. step      1.7016772E-02 a0

--------------------------------------------------------------------------------

***  Geometry step: 31

 iSCC Total electronic   Diff electronic      SCC error    
    1   -0.19518481E+03    0.00000000E+00    0.44009461E-02
    2   -0.19518044E+03    0.43751561E-02    0.25322790E-02
    3   -0.19518044E+03   -0.51928281E-05    0.42707021E-03
    4   -0.19518045E+03   -0.10321370E-05    0.42629752E-04
    5   -0.19518045E+03   -0.57507293E-07    0.16757482E-04
    6   -0.19518045E+03   -0.12682619E-08    0.39962063E-05
    7   -0.19518045E+03   -0.26233238E-10    0.74805743E-06
    8   -0.19518045E+03   -0.16200374E-11    0.10240626E-06
    9   -0.19518045E+03   -0.19895197E-12    0.20930301E-07
   10   -0.19518045E+03   -0.11368684E-12    0.46181707E-08

Total Energy:                     -193.2588682820 H        -5258.8414 eV
Extrapolated to 0K:               -193.2588682820 H        -5258.8414 eV
Total Mermin free energy:         -193.2588682820 H        -5258.8414 eV
Force related energy:             -193.2588682820 H        -5258.8414 eV

Volume:                              0.112625E+05 au^3   0.166894E+04 A^3
Pressure:                            0.676439E-05 au     0.199015E+09 Pa
>> Charges saved for restart in charges.bin

total energy  -1.9325887E+02 H       energy change -3.6626292E-04 H
gradient norm  1.4265080E-02 H/a0    max. gradient  4.3937951E-03 H/a0
step length    7.6633393E-02 a0      max. step      1.4312317E-02 a0

--------------------------------------------------------------------------------

***  Geometry step: 32

 iSCC Total electronic   Diff electronic      SCC error    
    1   -0.19518045E+03    0.00000000E+00    0.40561049E-02
    2   -0.19517493E+03    0.55179737E-02    0.23448068E-02
    3   -0.19517493E+03   -0.44882198E-05    0.42393709E-03
    4   -0.19517493E+03   -0.85486869E-06    0.67019023E-04
    5   -0.19517493E+03   -0.48738428E-07    0.22044133E-04
    6   -0.19517493E+03   -0.17461446E-08    0.42392005E-05
    7   -0.19517493E+03   -0.41552539E-10    0.66967699E-06
    8   -0.19517493E+03   -0.34674486E-11    0.14135322E-06
    9   -0.19517493E+03   -0.17053026E-12    0.28775637E-07
   10   -0.19517493E+03   -0.28421709E-13    0.65024648E-08

Total Energy:                     -193.2592176131 H        -5258.8509 eV
Extrapolated to 0K:               -193.2592176131 H        -5258.8509 eV
Total Mermin free energy:         -193.2592176131 H        -5258.8509 eV
Force related energy:             -193.2592176131 H        -5258.8509 eV

Volume:                              0.112722E+05 au^3   0.167037E+04 A^3
Pressure:                            0.423433E-05 au     0.124578E+09 Pa
>> Charges saved for restart in charges.bin

total energy  -1.9325922E+02 H       energy change -3.4933110E-04 H
gradient norm  1.5275100E-02 H/a0    max. gradient  3.3056953E-03 H/a0
step length    7.8675610E-02 a0      max. step      1.6940116E-02 a0

--------------------------------------------------------------------------------

***  Geometry step: 33

 iSCC Total electronic   Diff electronic      SCC error    
    1   -0.19517493E+03    0.00000000E+00    0.30014517E-02
    2   -0.19517152E+03    0.34119075E-02    0.15841394E-02
    3   -0.19517153E+03   -0.50191959E-05    0.38491229E-03
    4   -0.19517153E+03   -0.88938384E-06    0.70594636E-04
    5   -0.19517153E+03   -0.42250946E-07    0.21434271E-04
    6   -0.19517153E+03   -0.19261961E-08    0.47864853E-05
    7   -0.19517153E+03   -0.49396931E-10    0.80134173E-06
    8   -0.19517153E+03   -0.32400749E-11    0.17227914E-06
    9   -0.19517153E+03   -0.19895197E-12    0.34726366E-07
   10   -0.19517153E+03    0.00000000E+00    0.68807928E-08

Total Energy:                     -193.2596363240 H        -5258.8623 eV
Extrapolated to 0K:               -193.2596363240 H        -5258.8623 eV
Total Mermin free energy:         -193.2596363240 H        -5258.8623 eV
Force related energy:             -193.2596363240 H        -5258.8623 eV

Volume:                              0.112801E+05 au^3   0.167153E+04 A^3
Pressure:                            0.250647E-05 au     0.737429E+08 Pa
>> Charges saved for restart in charges.bin

total energy  -1.9325964E+02 H       energy change -4.1871092E-04 H
gradient norm  1.6583108E-02 H/a0    max. gradient  2.9781556E-03 H/a0
step length    9.4478414E-02 a0      max. step      2.2039738E-02 a0

--------------------------------------------------------------------------------

***  Geometry step: 34

 iSCC Total electronic   Diff electronic      SCC error    
    1   -0.19517153E+03    0.00000000E+00    0.27473701E-02
    2   -0.19517091E+03    0.61957928E-03    0.15389688E-02
    3   -0.19517092E+03   -0.98001483E-05    0.41077097E-03
    4   -0.19517092E+03   -0.16726393E-05    0.81862311E-04
    5   -0.19517092E+03   -0.56803259E-07    0.22373907E-04
    6   -0.19517092E+03   -0.29534419E-08    0.60515306E-05
    7   -0.19517092E+03   -0.74777518E-10    0.13302954E-05
    8   -0.19517092E+03   -0.33537617E-11    0.25081857E-06
    9   -0.19517092E+03   -0.36948222E-12    0.43619544E-07
   10   -0.19517092E+03   -0.85265128E-13    0.85153471E-08

Total Energy:                     -193.2601845259 H        -5258.8772 eV
Extrapolated to 0K:               -193.2601845259 H        -5258.8772 eV
Total Mermin free energy:         -193.2601845259 H        -5258.8772 eV
Force related energy:             -193.2601845259 H        -5258.8772 eV

Volume:                              0.112897E+05 au^3   0.167295E+04 A^3
Pressure:                            0.140199E-05 au     0.412480E+08 Pa
>> Charges saved for restart in charges.bin

total energy  -1.9326018E+02 H       energy change -5.4820187E-04 H
gradient norm  1.7971821E-02 H/a0    max. gradient  2.9447921E-03 H/a0
step length    1.3929286E-01 a0      max. step      3.2798523E-02 a0

--------------------------------------------------------------------------------

***  Geometry step: 35

 iSCC Total electronic   Diff electronic      SCC error    
    1   -0.19517092E+03    0.00000000E+00    0.34714251E-02
    2   -0.19517542E+03   -0.44966447E-02    0.17728917E-02
    3   -0.19517542E+03   -0.89481747E-05    0.49774827E-03
    4   -0.19517543E+03   -0.14769128E-05    0.46379567E-04
    5   -0.19517543E+03   -0.45575234E-07    0.90163591E-05
    6   -0.19517543E+03   -0.18420110E-08    0.32312616E-05
    7   -0.19517543E+03   -0.35015546E-10    0.10009750E-05
    8   -0.19517543E+03   -0.96633812E-12    0.24859589E-06
    9   -0.19517543E+03   -0.11368684E-12    0.36842260E-07
   10   -0.19517543E+03   -0.28421709E-13    0.58907399E-08

Total Energy:                     -193.2607132074 H        -5258.8916 eV
Extrapolated to 0K:               -193.2607132074 H        -5258.8916 eV
Total Mermin free energy:         -193.2607132074 H        -5258.8916 eV
Force related energy:             -193.2607132074 H        -5258.8916 eV

Volume:                              0.112985E+05 au^3   0.167426E+04 A^3
Pressure:                            0.234053E-05 au     0.688608E+08 Pa
>> Charges saved for restart in charges.bin

total energy  -1.9326071E+02 H       energy change -5.2868152E-04 H
gradient norm  1.7763932E-02 H/a0    max. gradient  4.3460983E-03 H/a0
step length    1.4696044E-01 a0      max. step      3.3431316E-02 a0

--------------------------------------------------------------------------------

***  Geometry step: 36

 iSCC Total electronic   Diff electronic      SCC error    
    1   -0.19517543E+03    0.00000000E+00    0.40475997E-02
    2   -0.19518272E+03   -0.72965163E-02    0.23051776E-02
    3   -0.19518273E+03   -0.12079782E-04    0.63903515E-03
    4   -0.19518274E+03   -0.17823936E-05    0.55021102E-04
    5   -0.19518274E+03   -0.62828121E-07    0.56218516E-05
    6   -0.19518274E+03   -0.26452369E-08    0.22506833E-05
    7   -0.19518274E+03   -0.25892177E-10    0.69519746E-06
    8   -0.19518274E+03   -0.10516032E-11    0.22115643E-06
    9   -0.19518274E+03   -0.28421709E-13    0.49948485E-07
   10   -0.19518274E+03   -0.28421709E-13    0.90575902E-08

Total Energy:                     -193.2612350462 H        -5258.9058 eV
Extrapolated to 0K:               -193.2612350462 H        -5258.9058 eV
Total Mermin free energy:         -193.2612350462 H        -5258.9058 eV
Force related energy:             -193.2612350462 H        -5258.9058 eV

Volume:                              0.113088E+05 au^3   0.167580E+04 A^3
Pressure:                            0.418822E-05 au     0.123221E+09 Pa
>> Charges saved for restart in charges.bin

total energy  -1.9326124E+02 H       energy change -5.2183874E-04 H
gradient norm  1.6122304E-02 H/a0    max. gradient  5.3470181E-03 H/a0
step length    1.6591264E-01 a0      max. step      3.5072765E-02 a0

--------------------------------------------------------------------------------

***  Geometry step: 37

 iSCC Total electronic   Diff electronic      SCC error    
    1   -0.19518274E+03    0.00000000E+00    0.38536044E-02
    2   -0.19518898E+03   -0.62386806E-02    0.22570317E-02
    3   -0.19518898E+03   -0.94007847E-05    0.63008086E-03
    4   -0.19518899E+03   -0.14440497E-05    0.46699018E-04
    5   -0.19518899E+03   -0.58388764E-07    0.15685161E-04
    6   -0.19518899E+03   -0.26343514E-08    0.64568834E-05
    7   -0.19518899E+03   -0.32031267E-10    0.12713208E-05
    8   -0.19518899E+03   -0.14779289E-11    0.24711596E-06
    9   -0.19518899E+03   -0.14210855E-12    0.38244063E-07
   10   -0.19518899E+03    0.28421709E-13    0.38091246E-08

Total Energy:                     -193.2616546241 H        -5258.9172 eV
Extrapolated to 0K:               -193.2616546241 H        -5258.9172 eV
Total Mermin free energy:         -193.2616546241 H        -5258.9172 eV
Force related energy:             -193.2616546241 H        -5258.9172 eV

Volume:                              0.113174E+05 au^3   0.167707E+04 A^3
Pressure:                            0.597083E-05 au     0.175668E+09 Pa
>> Charges saved for restart in charges.bin

total energy  -1.9326165E+02 H       energy change -4.1957796E-04 H
gradient norm  1.4932170E-02 H/a0    max. gradient  4.9468441E-03 H/a0
step length    1.3740492E-01 a0      max. step      2.7271787E-02 a0

--------------------------------------------------------------------------------

***  Geometry step: 38

 iSCC Total electronic   Diff electronic      SCC error    
    1   -0.19518899E+03    0.00000000E+00    0.38818925E-02
    2   -0.19519243E+03   -0.34445789E-02    0.21162402E-02
    3   -0.19519244E+03   -0.10146358E-04    0.52357587E-03
    4   -0.19519244E+03   -0.17769653E-05    0.60782612E-04
    5   -0.19519244E+03   -0.67087228E-07    0.17961194E-04
    6   -0.19519244E+03   -0.34667949E-08    0.72836085E-05
    7   -0.19519244E+03   -0.54200200E-10    0.16911276E-05
    8   -0.19519244E+03   -0.20747848E-11    0.40270368E-06
    9   -0.19519244E+03   -0.22737368E-12    0.53109663E-07
   10   -0.19519244E+03   -0.56843419E-13    0.49432205E-08

Total Energy:                     -193.2620743040 H        -5258.9286 eV
Extrapolated to 0K:               -193.2620743040 H        -5258.9286 eV
Total Mermin free energy:         -193.2620743040 H        -5258.9286 eV
Force related energy:             -193.2620743040 H        -5258.9286 eV

Volume:                              0.113256E+05 au^3   0.167828E+04 A^3
Pressure:                            0.662501E-05 au     0.194915E+09 Pa
>> Charges saved for restart in charges.bin

total energy  -1.9326207E+02 H       energy change -4.1967991E-04 H
gradient norm  1.5280693E-02 H/a0    max. gradient  3.9268444E-03 H/a0
step length    1.3016150E-01 a0      max. step      2.5162005E-02 a0

--------------------------------------------------------------------------------

***  Geometry step: 39

 iSCC Total electronic   Diff electronic      SCC error    
    1   -0.19519244E+03    0.00000000E+00    0.40811127E-02
    2   -0.19519259E+03   -0.15009597E-03    0.23108848E-02
    3   -0.19519260E+03   -0.10204163E-04    0.50789945E-03
    4   -0.19519260E+03   -0.17852855E-05    0.76159088E-04
    5   -0.19519261E+03   -0.78584065E-07    0.11381374E-04
    6   -0.19519261E+03   -0.38214978E-08    0.45771615E-05
    7   -0.19519261E+03   -0.57184479E-10    0.12000343E-05
    8   -0.19519261E+03   -0.20463631E-11    0.31610791E-06
    9   -0.19519261E+03   -0.19895197E-12    0.59897995E-07
   10   -0.19519261E+03   -0.28421709E-13    0.86416847E-08

Total Energy:                     -193.2625156380 H        -5258.9406 eV
Extrapolated to 0K:               -193.2625156380 H        -5258.9406 eV
Total Mermin free energy:         -193.2625156380 H        -5258.9406 eV
Force related energy:             -193.2625156380 H        -5258.9406 eV

Volume:                              0.113333E+05 au^3   0.167943E+04 A^3
Pressure:                            0.600886E-05 au     0.176787E+09 Pa
>> Charges saved for restart in charges.bin

total energy  -1.9326252E+02 H       energy change -4.4133399E-04 H
gradient norm  1.6126249E-02 H/a0    max. gradient  3.0603780E-03 H/a0
step length    1.3224159E-01 a0      max. step      2.6721027E-02 a0

--------------------------------------------------------------------------------

***  Geometry step: 40

 iSCC Total electronic   Diff electronic      SCC error    
    1   -0.19519261E+03    0.00000000E+00    0.39950943E-02
    2   -0.19519046E+03    0.21472960E-02    0.22393462E-02
    3   -0.19519047E+03   -0.12411832E-04    0.58904549E-03
    4   -0.19519047E+03   -0.18889663E-05    0.72185551E-04
    5   -0.19519047E+03   -0.10831840E-06    0.20337316E-04
    6   -0.19519047E+03   -0.39748613E-08    0.69885148E-05
    7   -0.19519047E+03   -0.55052851E-10    0.19175336E-05
    8   -0.19519047E+03   -0.22168933E-11    0.37901913E-06
    9   -0.19519047E+03   -0.39790393E-12    0.79877271E-07
   10   -0.19519047E+03    0.00000000E+00    0.11163598E-07
   11   -0.19519047E+03    0.00000000E+00    0.10968186E-08

Total Energy:                     -193.2629986605 H        -5258.9538 eV
Extrapolated to 0K:               -193.2629986605 H        -5258.9538 eV
Total Mermin free energy:         -193.2629986605 H        -5258.9538 eV
Force related energy:             -193.2629986605 H        -5258.9538 eV

Volume:                              0.113407E+05 au^3   0.168052E+04 A^3
Pressure:                            0.470794E-05 au     0.138512E+09 Pa
>> Charges saved for restart in charges.bin

total energy  -1.9326300E+02 H       energy change -4.8302244E-04 H
gradient norm  1.6369849E-02 H/a0    max. gradient  4.1826698E-03 H/a0
step length    1.4928996E-01 a0      max. step      3.2357556E-02 a0

--------------------------------------------------------------------------------

***  Geometry step: 41

 iSCC Total electronic   Diff electronic      SCC error    
    1   -0.19519047E+03    0.00000000E+00    0.37278617E-02
    2   -0.19518752E+03    0.29560396E-02    0.18279462E-02
    3   -0.19518753E+03   -0.12890622E-04    0.58452306E-03
    4   -0.19518753E+03   -0.15143223E-05    0.70149210E-04
    5   -0.19518753E+03   -0.82839250E-07    0.23440124E-04
    6   -0.19518753E+03   -0.29104683E-08    0.64857152E-05
    7   -0.19518753E+03   -0.34873437E-10    0.13674674E-05
    8   -0.19518753E+03   -0.22737368E-11    0.21904632E-06
    9   -0.19518753E+03   -0.31263880E-12    0.45471552E-07
   10   -0.19518753E+03   -0.56843419E-13    0.40660364E-08

Total Energy:                     -193.2634434863 H        -5258.9659 eV
Extrapolated to 0K:               -193.2634434863 H        -5258.9659 eV
Total Mermin free energy:         -193.2634434863 H        -5258.9659 eV
Force related energy:             -193.2634434863 H        -5258.9659 eV

Volume:                              0.113473E+05 au^3   0.168150E+04 A^3
Pressure:                            0.317628E-05 au     0.934495E+08 Pa
>> Charges saved for restart in charges.bin

total energy  -1.9326344E+02 H       energy change -4.4482582E-04 H
gradient norm  1.5407381E-02 H/a0    max. gradient  4.1821373E-03 H/a0
step length    1.4345276E-01 a0      max. step      3.2179219E-02 a0

--------------------------------------------------------------------------------

***  Geometry step: 42

 iSCC Total electronic   Diff electronic      SCC error    
    1   -0.19518753E+03    0.00000000E+00    0.35615644E-02
    2   -0.19518614E+03    0.13882797E-02    0.16466146E-02
    3   -0.19518616E+03   -0.12977731E-04    0.50780793E-03
    4   -0.19518616E+03   -0.15057662E-05    0.68935612E-04
    5   -0.19518616E+03   -0.46442267E-07    0.19575225E-04
    6   -0.19518616E+03   -0.31126035E-08    0.67243477E-05
    7   -0.19518616E+03   -0.48828497E-10    0.13917411E-05
    8   -0.19518616E+03   -0.20463631E-11    0.19933043E-06
    9   -0.19518616E+03   -0.34106051E-12    0.50973637E-07
   10   -0.19518616E+03    0.56843419E-13    0.96211510E-08

Total Energy:                     -193.2638608058 H        -5258.9772 eV
Extrapolated to 0K:               -193.2638608058 H        -5258.9772 eV
Total Mermin free energy:         -193.2638608058 H        -5258.9772 eV
Force related energy:             -193.2638608058 H        -5258.9772 eV

Volume:                              0.113546E+05 au^3   0.168257E+04 A^3
Pressure:                            0.252871E-05 au     0.743973E+08 Pa
>> Charges saved for restart in charges.bin

total energy  -1.9326386E+02 H       energy change -4.1731956E-04 H
gradient norm  1.4367673E-02 H/a0    max. gradient  2.5315847E-03 H/a0
step length    1.4216756E-01 a0      max. step      3.1883250E-02 a0

--------------------------------------------------------------------------------

***  Geometry step: 43

 iSCC Total electronic   Diff electronic      SCC error    
    1   -0.19518616E+03    0.00000000E+00    0.33557703E-02
    2   -0.19518660E+03   -0.44369094E-03    0.17883681E-02
    3   -0.19518661E+03   -0.10440311E-04    0.56431998E-03
    4   -0.19518661E+03   -0.15269280E-05    0.57287352E-04
    5   -0.19518661E+03   -0.40201371E-07    0.12076637E-04
    6   -0.19518661E+03   -0.26968792E-08    0.47702606E-05
    7   -0.19518661E+03   -0.59060312E-10    0.12739948E-05
    8   -0.19518661E+03   -0.18189894E-11    0.26488737E-06
    9   -0.19518661E+03   -0.14210855E-12    0.40461946E-07
   10   -0.19518661E+03    0.56843419E-13    0.10411815E-07
   11   -0.19518661E+03   -0.85265128E-13    0.86222540E-09

Total Energy:                     -193.2642291940 H        -5258.9873 eV
Extrapolated to 0K:               -193.2642291940 H        -5258.9873 eV
Total Mermin free energy:         -193.2642291940 H        -5258.9873 eV
Force related energy:             -193.2642291940 H        -5258.9873 eV

Volume:                              0.113638E+05 au^3   0.168394E+04 A^3
Pressure:                            0.221511E-05 au     0.651706E+08 Pa
>> Charges saved for restart in charges.bin

total energy  -1.9326423E+02 H       energy change -3.6838815E-04 H
gradient norm  1.3759342E-02 H/a0    max. gradient  2.8596133E-03 H/a0
step length    1.3648663E-01 a0      max. step      2.9358157E-02 a0

--------------------------------------------------------------------------------

***  Geometry step: 44

 iSCC Total electronic   Diff electronic      SCC error    
    1   -0.19518661E+03    0.00000000E+00    0.38970522E-02
    2   -0.19518994E+03   -0.33314910E-02    0.22508403E-02
    3   -0.19518995E+03   -0.79807694E-05    0.55622419E-03
    4   -0.19518995E+03   -0.14554218E-05    0.49727717E-04
    5   -0.19518995E+03   -0.48691220E-07    0.88398195E-05
    6   -0.19518995E+03   -0.25056295E-08    0.25135149E-05
    7   -0.19518995E+03   -0.67728934E-10    0.79767704E-06
    8   -0.19518995E+03   -0.15347723E-11    0.28168758E-06
    9   -0.19518995E+03   -0.85265128E-13    0.58617355E-07
   10   -0.19518995E+03    0.28421709E-13    0.11260670E-07
   11   -0.19518995E+03   -0.56843419E-13    0.10094716E-08

Total Energy:                     -193.2645550336 H        -5258.9961 eV
Extrapolated to 0K:               -193.2645550336 H        -5258.9961 eV
Total Mermin free energy:         -193.2645550336 H        -5258.9961 eV
Force related energy:             -193.2645550336 H        -5258.9961 eV

Volume:                              0.113733E+05 au^3   0.168536E+04 A^3
Pressure:                            0.284519E-05 au     0.837083E+08 Pa
>> Charges saved for restart in charges.bin

total energy  -1.9326456E+02 H       energy change -3.2583964E-04 H
gradient norm  1.2723317E-02 H/a0    max. gradient  2.9272675E-03 H/a0
step length    1.3859230E-01 a0      max. step      2.7873264E-02 a0

--------------------------------------------------------------------------------

***  Geometry step: 45

 iSCC Total electronic   Diff electronic      SCC error    
    1   -0.19518995E+03    0.00000000E+00    0.27979579E-02
    2   -0.19519367E+03   -0.37190024E-02    0.16054510E-02
    3   -0.19519368E+03   -0.57443380E-05    0.37924243E-03
    4   -0.19519368E+03   -0.10100126E-05    0.53727808E-04
    5   -0.19519368E+03   -0.44127120E-07    0.83282952E-05
    6   -0.19519368E+03   -0.20172877E-08    0.30485756E-05
    7   -0.19519368E+03   -0.47833737E-10    0.81102643E-06
    8   -0.19519368E+03   -0.12221335E-11    0.26641107E-06
    9   -0.19519368E+03   -0.14210855E-12    0.53671600E-07
   10   -0.19519368E+03    0.00000000E+00    0.86146272E-08

Total Energy:                     -193.2648178519 H        -5259.0033 eV
Extrapolated to 0K:               -193.2648178519 H        -5259.0033 eV
Total Mermin free energy:         -193.2648178519 H        -5259.0033 eV
Force related energy:             -193.2648178519 H        -5259.0033 eV

Volume:                              0.113817E+05 au^3   0.168659E+04 A^3
Pressure:                            0.374760E-05 au     0.110258E+09 Pa
>> Charges saved for restart in charges.bin

total energy  -1.9326482E+02 H       energy change -2.6281825E-04 H
gradient norm  1.1681489E-02 H/a0    max. gradient  3.3815162E-03 H/a0
step length    1.2319343E-01 a0      max. step      2.3427155E-02 a0

--------------------------------------------------------------------------------

***  Geometry step: 46

 iSCC Total electronic   Diff electronic      SCC error    
    1   -0.19519368E+03    0.00000000E+00    0.29823211E-02
    2   -0.19519638E+03   -0.26985295E-02    0.17361290E-02
    3   -0.19519638E+03   -0.58784288E-05    0.42684413E-03
    4   -0.19519638E+03   -0.94030909E-06    0.56494961E-04
    5   -0.19519638E+03   -0.46681237E-07    0.13996974E-04
    6   -0.19519638E+03   -0.22671998E-08    0.49562297E-05
    7   -0.19519638E+03   -0.38255621E-10    0.83913780E-06
    8   -0.19519638E+03   -0.17621460E-11    0.20939128E-06
    9   -0.19519638E+03   -0.28421709E-13    0.39976428E-07
   10   -0.19519638E+03    0.00000000E+00    0.49317799E-08

Total Energy:                     -193.2650709850 H        -5259.0102 eV
Extrapolated to 0K:               -193.2650709850 H        -5259.0102 eV
Total Mermin free energy:         -193.2650709850 H        -5259.0102 eV
Force related energy:             -193.2650709850 H        -5259.0102 eV

Volume:                              0.113897E+05 au^3   0.168778E+04 A^3
Pressure:                            0.434775E-05 au     0.127915E+09 Pa
>> Charges saved for restart in charges.bin

total energy  -1.9326507E+02 H       energy change -2.5313311E-04 H
gradient norm  1.1330138E-02 H/a0    max. gradient  3.4714539E-03 H/a0
step length    1.2478511E-01 a0      max. step      2.3569555E-02 a0

--------------------------------------------------------------------------------

***  Geometry step: 47

 iSCC Total electronic   Diff electronic      SCC error    
    1   -0.19519638E+03    0.00000000E+00    0.29989556E-02
    2   -0.19519693E+03   -0.54103654E-03    0.15839339E-02
    3   -0.19519693E+03   -0.66904131E-05    0.44082566E-03
    4   -0.19519693E+03   -0.96267621E-06    0.56898569E-04
    5   -0.19519693E+03   -0.50429350E-07    0.18430577E-04
    6   -0.19519693E+03   -0.26881253E-08    0.63128201E-05
    7   -0.19519693E+03   -0.43712589E-10    0.89965670E-06
    8   -0.19519693E+03   -0.22168933E-11    0.16203893E-06
    9   -0.19519693E+03   -0.56843419E-13    0.39443791E-07
   10   -0.19519693E+03   -0.28421709E-13    0.50263216E-08

Total Energy:                     -193.2653102021 H        -5259.0167 eV
Extrapolated to 0K:               -193.2653102021 H        -5259.0167 eV
Total Mermin free energy:         -193.2653102021 H        -5259.0167 eV
Force related energy:             -193.2653102021 H        -5259.0167 eV

Volume:                              0.113963E+05 au^3   0.168877E+04 A^3
Pressure:                            0.420905E-05 au     0.123835E+09 Pa
>> Charges saved for restart in charges.bin

total energy  -1.9326531E+02 H       energy change -2.3921708E-04 H
gradient norm  1.1544163E-02 H/a0    max. gradient  3.1690215E-03 H/a0
step length    1.1687797E-01 a0      max. step      2.3222599E-02 a0

--------------------------------------------------------------------------------

***  Geometry step: 48

 iSCC Total electronic   Diff electronic      SCC error    
    1   -0.19519693E+03    0.00000000E+00    0.31519251E-02
    2   -0.19519559E+03    0.13388199E-02    0.17396449E-02
    3   -0.19519560E+03   -0.61241078E-05    0.40448570E-03
    4   -0.19519560E+03   -0.99906546E-06    0.73805673E-04
    5   -0.19519560E+03   -0.52019402E-07    0.21598052E-04
    6   -0.19519560E+03   -0.28386751E-08    0.66277720E-05
    7   -0.19519560E+03   -0.50249582E-10    0.10576855E-05
    8   -0.19519560E+03   -0.22453150E-11    0.17522119E-06
    9   -0.19519560E+03   -0.19895197E-12    0.38623468E-07
   10   -0.19519560E+03   -0.85265128E-13    0.58375198E-08

Total Energy:                     -193.2655346659 H        -5259.0228 eV
Extrapolated to 0K:               -193.2655346659 H        -5259.0228 eV
Total Mermin free energy:         -193.2655346659 H        -5259.0228 eV
Force related energy:             -193.2655346659 H        -5259.0228 eV

Volume:                              0.114004E+05 au^3   0.168936E+04 A^3
Pressure:                            0.342734E-05 au     0.100836E+09 Pa
>> Charges saved for restart in charges.bin

total energy  -1.9326553E+02 H       energy change -2.2446382E-04 H
gradient norm  1.0704823E-02 H/a0    max. gradient  2.4207150E-03 H/a0
step length    9.4247160E-02 a0      max. step      2.2337472E-02 a0

--------------------------------------------------------------------------------

***  Geometry step: 49

 iSCC Total electronic   Diff electronic      SCC error    
    1   -0.19519560E+03    0.00000000E+00    0.28903824E-02
    2   -0.19519382E+03    0.17854754E-02    0.16247320E-02
    3   -0.19519382E+03   -0.52475041E-05    0.38166028E-03
    4   -0.19519382E+03   -0.86392490E-06    0.57006008E-04
    5   -0.19519382E+03   -0.36905078E-07    0.18076438E-04
    6   -0.19519382E+03   -0.27016540E-08    0.56366818E-05
    7   -0.19519382E+03   -0.48856919E-10    0.10415310E-05
    8   -0.19519382E+03   -0.18474111E-11    0.20134885E-06
    9   -0.19519382E+03   -0.17053026E-12    0.28863078E-07
   10   -0.19519382E+03    0.56843419E-13    0.54413998E-08

Total Energy:                     -193.2657085851 H        -5259.0275 eV
Extrapolated to 0K:               -193.2657085851 H        -5259.0275 eV
Total Mermin free energy:         -193.2657085851 H        -5259.0275 eV
Force related energy:             -193.2657085851 H        -5259.0275 eV

Volume:                              0.114019E+05 au^3   0.168959E+04 A^3
Pressure:                            0.264975E-05 au     0.779582E+08 Pa
>> Charges saved for restart in charges.bin

total energy  -1.9326571E+02 H       energy change -1.7391918E-04 H
gradient norm  9.5708239E-03 H/a0    max. gradient  2.3148710E-03 H/a0
step length    6.9068515E-02 a0      max. step      1.8145741E-02 a0

--------------------------------------------------------------------------------

***  Geometry step: 50

 iSCC Total electronic   Diff electronic      SCC error    
    1   -0.19519382E+03    0.00000000E+00    0.19173910E-02
    2   -0.19519242E+03    0.13979070E-02    0.11055972E-02
    3   -0.19519243E+03   -0.28708521E-05    0.31057052E-03
    4   -0.19519243E+03   -0.53021279E-06    0.38707918E-04
    5   -0.19519243E+03   -0.16662142E-07    0.11809798E-04
    6   -0.19519243E+03   -0.13035617E-08    0.38193381E-05
    7   -0.19519243E+03   -0.24016344E-10    0.69984291E-06
    8   -0.19519243E+03   -0.10231815E-11    0.17373024E-06
    9   -0.19519243E+03    0.28421709E-13    0.33271075E-07
   10   -0.19519243E+03   -0.11368684E-12    0.32885259E-08

Total Energy:                     -193.2658424965 H        -5259.0312 eV
Extrapolated to 0K:               -193.2658424965 H        -5259.0312 eV
Total Mermin free energy:         -193.2658424965 H        -5259.0312 eV
Force related energy:             -193.2658424965 H        -5259.0312 eV

Volume:                              0.114036E+05 au^3   0.168984E+04 A^3
Pressure:                            0.206170E-05 au     0.606573E+08 Pa
>> Charges saved for restart in charges.bin

total energy  -1.9326584E+02 H       energy change -1.3391142E-04 H
[...]
gradient norm  1.3050803E-03 H/a0    max. gradient  5.1123671E-04 H/a0
step length    9.6052584E-03 a0      max. step      2.5558819E-03 a0

--------------------------------------------------------------------------------

***  Geometry step: 165

 iSCC Total electronic   Diff electronic      SCC error    
    1   -0.19518227E+03    0.00000000E+00    0.37610191E-03
    2   -0.19518217E+03    0.10781229E-03    0.16058168E-03
    3   -0.19518217E+03   -0.14623146E-06    0.49044009E-04
    4   -0.19518217E+03   -0.21036442E-07    0.50588802E-05
    5   -0.19518217E+03   -0.44428816E-09    0.70150607E-06
    6   -0.19518217E+03   -0.23533175E-10    0.29045956E-06
    7   -0.19518217E+03   -0.36948222E-12    0.73231907E-07
    8   -0.19518217E+03    0.00000000E+00    0.18238302E-07
    9   -0.19518217E+03    0.56843419E-13    0.62302647E-08

Total Energy:                     -193.2751321520 H        -5259.2839 eV
Extrapolated to 0K:               -193.2751321520 H        -5259.2839 eV
Total Mermin free energy:         -193.2751321520 H        -5259.2839 eV
Force related energy:             -193.2751321520 H        -5259.2839 eV

Volume:                              0.111909E+05 au^3   0.165832E+04 A^3
Pressure:                           -0.242947E-07 au    -0.714773E+06 Pa
>> Charges saved for restart in charges.bin

total energy  -1.9327513E+02 H       energy change -3.6228571E-06 H
gradient norm  1.5047309E-03 H/a0    max. gradient  3.9587736E-04 H/a0
step length    2.0130833E-02 a0      max. step      5.2461117E-03 a0

--------------------------------------------------------------------------------

***  Geometry step: 166

 iSCC Total electronic   Diff electronic      SCC error    
    1   -0.19518217E+03    0.00000000E+00    0.37741817E-03
    2   -0.19518215E+03    0.13405008E-04    0.13168253E-03
    3   -0.19518215E+03   -0.81169333E-07    0.45531458E-04
    4   -0.19518215E+03   -0.99176418E-08    0.48739692E-05
    5   -0.19518215E+03   -0.26676616E-09    0.10670438E-05
    6   -0.19518215E+03   -0.14381385E-10    0.37287758E-06
    7   -0.19518215E+03   -0.56843419E-12    0.78984307E-07
    8   -0.19518215E+03    0.11368684E-12    0.11261922E-07
    9   -0.19518215E+03    0.28421709E-13    0.32800842E-08

Total Energy:                     -193.2751352307 H        -5259.2840 eV
Extrapolated to 0K:               -193.2751352307 H        -5259.2840 eV
Total Mermin free energy:         -193.2751352307 H        -5259.2840 eV
Force related energy:             -193.2751352307 H        -5259.2840 eV

Volume:                              0.111908E+05 au^3   0.165831E+04 A^3
Pressure:                           -0.346956E-07 au    -0.102078E+07 Pa
>> Charges saved for restart in charges.bin

total energy  -1.9327514E+02 H       energy change -3.0786437E-06 H
gradient norm  1.4862871E-03 H/a0    max. gradient  3.0802962E-04 H/a0
step length    2.0893543E-02 a0      max. step      5.4996001E-03 a0

--------------------------------------------------------------------------------

***  Geometry step: 167

 iSCC Total electronic   Diff electronic      SCC error    
    1   -0.19518215E+03    0.00000000E+00    0.66909077E-03
    2   -0.19518192E+03    0.23338727E-03    0.21811952E-03
    3   -0.19518192E+03   -0.16893549E-06    0.31233091E-04
    4   -0.19518192E+03   -0.20701265E-07    0.62376526E-05
    5   -0.19518192E+03   -0.34481218E-09    0.80382735E-06
    6   -0.19518192E+03   -0.17877255E-10    0.23467432E-06
    7   -0.19518192E+03   -0.79580786E-12    0.72988460E-07
    8   -0.19518192E+03    0.00000000E+00    0.13832836E-07
    9   -0.19518192E+03    0.28421709E-13    0.45024837E-08

Total Energy:                     -193.2751390641 H        -5259.2841 eV
Extrapolated to 0K:               -193.2751390641 H        -5259.2841 eV
Total Mermin free energy:         -193.2751390641 H        -5259.2841 eV
Force related energy:             -193.2751390641 H        -5259.2841 eV

Volume:                              0.111890E+05 au^3   0.165804E+04 A^3
Pressure:                           -0.122810E-06 au    -0.361321E+07 Pa
>> Charges saved for restart in charges.bin

total energy  -1.9327514E+02 H       energy change -3.8334232E-06 H
gradient norm  1.2930781E-03 H/a0    max. gradient  3.3231887E-04 H/a0
step length    3.7240091E-02 a0      max. step      9.5499604E-03 a0

--------------------------------------------------------------------------------

***  Geometry step: 168

 iSCC Total electronic   Diff electronic      SCC error    
    1   -0.19518192E+03    0.00000000E+00    0.37831233E-03
    2   -0.19518222E+03   -0.29781590E-03    0.13234711E-03
    3   -0.19518222E+03   -0.87761322E-07    0.31879350E-04
    4   -0.19518222E+03   -0.12993581E-07    0.43021778E-05
    5   -0.19518222E+03   -0.24874680E-09    0.66474083E-06
    6   -0.19518222E+03   -0.16740387E-10    0.17135992E-06
    7   -0.19518222E+03   -0.39790393E-12    0.36440097E-07
    8   -0.19518222E+03    0.28421709E-13    0.53603042E-08

Total Energy:                     -193.2751410225 H        -5259.2842 eV
Extrapolated to 0K:               -193.2751410225 H        -5259.2842 eV
Total Mermin free energy:         -193.2751410225 H        -5259.2842 eV
Force related energy:             -193.2751410225 H        -5259.2842 eV

Volume:                              0.111883E+05 au^3   0.165793E+04 A^3
Pressure:                            0.936179E-08 au     0.275433E+06 Pa
>> Charges saved for restart in charges.bin

total energy  -1.9327514E+02 H       energy change -1.9583920E-06 H
gradient norm  9.9906346E-04 H/a0    max. gradient  2.5858661E-04 H/a0
step length    7.9479637E-03 a0      max. step      1.7340966E-03 a0

--------------------------------------------------------------------------------

***  Geometry step: 169

 iSCC Total electronic   Diff electronic      SCC error    
    1   -0.19518222E+03    0.00000000E+00    0.13603676E-03
    2   -0.19518227E+03   -0.52982487E-04    0.75332039E-04
    3   -0.19518227E+03   -0.93912433E-08    0.13973892E-04
    4   -0.19518227E+03   -0.18023059E-08    0.14389749E-05
    5   -0.19518227E+03   -0.84895646E-10    0.30162139E-06
    6   -0.19518227E+03   -0.15916157E-11    0.11484945E-06
    7   -0.19518227E+03   -0.28421709E-13    0.24539026E-07
    8   -0.19518227E+03   -0.85265128E-13    0.45901327E-08

Total Energy:                     -193.2751419385 H        -5259.2842 eV
Extrapolated to 0K:               -193.2751419385 H        -5259.2842 eV
Total Mermin free energy:         -193.2751419385 H        -5259.2842 eV
Force related energy:             -193.2751419385 H        -5259.2842 eV

Volume:                              0.111882E+05 au^3   0.165792E+04 A^3
Pressure:                            0.274138E-07 au     0.806542E+06 Pa
>> Charges saved for restart in charges.bin

total energy  -1.9327514E+02 H       energy change -9.1600930E-07 H
gradient norm  7.7794246E-04 H/a0    max. gradient  1.8363080E-04 H/a0
step length    1.5155397E-03 a0      max. step      3.4775565E-04 a0

--------------------------------------------------------------------------------

***  Geometry step: 170

 iSCC Total electronic   Diff electronic      SCC error    
    1   -0.19518227E+03    0.00000000E+00    0.20424154E-03
    2   -0.19518231E+03   -0.37235797E-04    0.11523361E-03
    3   -0.19518231E+03   -0.36872137E-07    0.30214858E-04
    4   -0.19518231E+03   -0.64142398E-08    0.23846687E-05
    5   -0.19518231E+03   -0.23388225E-09    0.61129454E-06
    6   -0.19518231E+03   -0.64233063E-11    0.16470293E-06
    7   -0.19518231E+03   -0.22737368E-12    0.18472912E-07
    8   -0.19518231E+03    0.00000000E+00    0.47844471E-08

Total Energy:                     -193.2751433221 H        -5259.2842 eV
Extrapolated to 0K:               -193.2751433221 H        -5259.2842 eV
Total Mermin free energy:         -193.2751433221 H        -5259.2842 eV
Force related energy:             -193.2751433221 H        -5259.2842 eV

Volume:                              0.111881E+05 au^3   0.165790E+04 A^3
Pressure:                            0.766686E-07 au     0.225567E+07 Pa
>> Charges saved for restart in charges.bin

total energy  -1.9327514E+02 H       energy change -1.3836564E-06 H
gradient norm  8.2906735E-04 H/a0    max. gradient  3.2147040E-04 H/a0
step length    4.2093834E-03 a0      max. step      1.1424213E-03 a0

--------------------------------------------------------------------------------

***  Geometry step: 171

 iSCC Total electronic   Diff electronic      SCC error    
    1   -0.19518231E+03    0.00000000E+00    0.28367115E-03
    2   -0.19518191E+03    0.40002541E-03    0.16610087E-03
    3   -0.19518191E+03   -0.42359915E-07    0.43131409E-04
    4   -0.19518191E+03   -0.72578814E-08    0.36134611E-05
    5   -0.19518191E+03   -0.26355451E-09    0.70149879E-06
    6   -0.19518191E+03   -0.11027623E-10    0.22193156E-06
    7   -0.19518191E+03   -0.31263880E-12    0.53299765E-07
    8   -0.19518191E+03    0.28421709E-13    0.10279182E-07
    9   -0.19518191E+03    0.28421709E-13    0.33709147E-08

Total Energy:                     -193.2751444664 H        -5259.2843 eV
Extrapolated to 0K:               -193.2751444664 H        -5259.2843 eV
Total Mermin free energy:         -193.2751444664 H        -5259.2843 eV
Force related energy:             -193.2751444664 H        -5259.2843 eV

Volume:                              0.111862E+05 au^3   0.165762E+04 A^3
Pressure:                           -0.199665E-07 au    -0.587434E+06 Pa
>> Charges saved for restart in charges.bin

total energy  -1.9327514E+02 H       energy change -1.1442408E-06 H
gradient norm  1.0199474E-03 H/a0    max. gradient  2.6762985E-04 H/a0
step length    1.9303731E-02 a0      max. step      3.8176439E-03 a0

--------------------------------------------------------------------------------

***  Geometry step: 172

 iSCC Total electronic   Diff electronic      SCC error    
    1   -0.19518191E+03    0.00000000E+00    0.87299446E-04
    2   -0.19518205E+03   -0.13989110E-03    0.36244388E-04
    3   -0.19518205E+03   -0.60751972E-08    0.11024758E-04
    4   -0.19518205E+03   -0.97094244E-09    0.12668130E-05
    5   -0.19518205E+03   -0.23334223E-10    0.35699420E-06
    6   -0.19518205E+03   -0.12221335E-11    0.11875335E-06
    7   -0.19518205E+03   -0.56843419E-13    0.23577279E-07
    8   -0.19518205E+03    0.56843419E-13    0.22325080E-08

Total Energy:                     -193.2751452913 H        -5259.2843 eV
Extrapolated to 0K:               -193.2751452913 H        -5259.2843 eV
Total Mermin free energy:         -193.2751452913 H        -5259.2843 eV
Force related energy:             -193.2751452913 H        -5259.2843 eV

Volume:                              0.111861E+05 au^3   0.165761E+04 A^3
Pressure:                            0.399790E-07 au     0.117622E+07 Pa
>> Charges saved for restart in charges.bin

total energy  -1.9327515E+02 H       energy change -8.2496180E-07 H
gradient norm  8.8554690E-04 H/a0    max. gradient  2.4261740E-04 H/a0
step length    1.3657637E-03 a0      max. step      2.6644978E-04 a0

--------------------------------------------------------------------------------

***  Geometry step: 173

 iSCC Total electronic   Diff electronic      SCC error    
    1   -0.19518205E+03    0.00000000E+00    0.33771628E-03
    2   -0.19518239E+03   -0.34095626E-03    0.18988739E-03
    3   -0.19518239E+03   -0.10428025E-06    0.56349228E-04
    4   -0.19518239E+03   -0.15187283E-07    0.12456499E-04
    5   -0.19518239E+03   -0.38417625E-09    0.29087553E-05
    6   -0.19518239E+03   -0.29814373E-10    0.79849013E-06
    7   -0.19518239E+03   -0.79580786E-12    0.79449412E-07
    8   -0.19518239E+03   -0.56843419E-13    0.72530453E-08

Total Energy:                     -193.2751488212 H        -5259.2844 eV
Extrapolated to 0K:               -193.2751488212 H        -5259.2844 eV
Total Mermin free energy:         -193.2751488212 H        -5259.2844 eV
Force related energy:             -193.2751488212 H        -5259.2844 eV

Volume:                              0.111853E+05 au^3   0.165750E+04 A^3
Pressure:                            0.203560E-06 au     0.598895E+07 Pa
>> Charges saved for restart in charges.bin

total energy  -1.9327515E+02 H       energy change -3.5298198E-06 H
gradient norm  9.8684683E-04 H/a0    max. gradient  4.3079857E-04 H/a0
step length    2.4028671E-02 a0      max. step      5.0447632E-03 a0

--------------------------------------------------------------------------------

***  Geometry step: 174

 iSCC Total electronic   Diff electronic      SCC error    
    1   -0.19518239E+03    0.00000000E+00    0.19143861E-03
    2   -0.19518244E+03   -0.46843310E-04    0.10288015E-03
    3   -0.19518244E+03   -0.50541502E-07    0.34748647E-04
    4   -0.19518244E+03   -0.62240417E-08    0.50749042E-05
    5   -0.19518244E+03   -0.13130830E-09    0.13008562E-05
    6   -0.19518244E+03   -0.84980911E-11    0.38628959E-06
    7   -0.19518244E+03   -0.28421709E-12    0.32453104E-07
    8   -0.19518244E+03   -0.56843419E-13    0.61032002E-08

Total Energy:                     -193.2751505294 H        -5259.2844 eV
Extrapolated to 0K:               -193.2751505294 H        -5259.2844 eV
Total Mermin free energy:         -193.2751505294 H        -5259.2844 eV
Force related energy:             -193.2751505294 H        -5259.2844 eV

Volume:                              0.111854E+05 au^3   0.165751E+04 A^3
Pressure:                            0.263929E-06 au     0.776505E+07 Pa
>> Charges saved for restart in charges.bin

total energy  -1.9327515E+02 H       energy change -1.7082274E-06 H
gradient norm  1.1221015E-03 H/a0    max. gradient  4.2312653E-04 H/a0
step length    9.4085598E-03 a0      max. step      2.5804848E-03 a0

--------------------------------------------------------------------------------

***  Geometry step: 175

 iSCC Total electronic   Diff electronic      SCC error    
    1   -0.19518244E+03    0.00000000E+00    0.25709533E-03
    2   -0.19518224E+03    0.19118321E-03    0.11227486E-03
    3   -0.19518224E+03   -0.96538571E-07    0.41904404E-04
    4   -0.19518224E+03   -0.12174041E-07    0.74362146E-05
    5   -0.19518224E+03   -0.28336444E-09    0.18758713E-05
    6   -0.19518224E+03   -0.18900437E-10    0.56321749E-06
    7   -0.19518224E+03   -0.51159077E-12    0.51531720E-07
    8   -0.19518224E+03   -0.28421709E-13    0.81064937E-08

Total Energy:                     -193.2751521955 H        -5259.2845 eV
Extrapolated to 0K:               -193.2751521955 H        -5259.2845 eV
Total Mermin free energy:         -193.2751521955 H        -5259.2845 eV
Force related energy:             -193.2751521955 H        -5259.2845 eV

Volume:                              0.111859E+05 au^3   0.165758E+04 A^3
Pressure:                            0.158127E-06 au     0.465227E+07 Pa
>> Charges saved for restart in charges.bin

total energy  -1.9327515E+02 H       energy change -1.6661113E-06 H
gradient norm  9.1397516E-04 H/a0    max. gradient  2.6844803E-04 H/a0
step length    1.4595015E-02 a0      max. step      4.1477943E-03 a0

--------------------------------------------------------------------------------

***  Geometry step: 176

 iSCC Total electronic   Diff electronic      SCC error    
    1   -0.19518224E+03    0.00000000E+00    0.16847875E-03
    2   -0.19518197E+03    0.27340545E-03    0.57416476E-04
    3   -0.19518197E+03   -0.16335377E-07    0.16866682E-04
    4   -0.19518197E+03   -0.23204905E-08    0.21957767E-05
    5   -0.19518197E+03   -0.53063332E-10    0.50092420E-06
    6   -0.19518197E+03   -0.33537617E-11    0.15496338E-06
    7   -0.19518197E+03   -0.17053026E-12    0.19983869E-07
    8   -0.19518197E+03    0.56843419E-13    0.34726306E-08

Total Energy:                     -193.2751530024 H        -5259.2845 eV
Extrapolated to 0K:               -193.2751530024 H        -5259.2845 eV
Total Mermin free energy:         -193.2751530024 H        -5259.2845 eV
Force related energy:             -193.2751530024 H        -5259.2845 eV

Volume:                              0.111862E+05 au^3   0.165762E+04 A^3
Pressure:                            0.392994E-07 au     0.115623E+07 Pa
>> Charges saved for restart in charges.bin

total energy  -1.9327515E+02 H       energy change -8.0694946E-07 H
gradient norm  5.7105060E-04 H/a0    max. gradient  1.1631914E-04 H/a0
step length    2.7937789E-03 a0      max. step      6.4539844E-04 a0

--------------------------------------------------------------------------------

***  Geometry step: 177

 iSCC Total electronic   Diff electronic      SCC error    
    1   -0.19518197E+03    0.00000000E+00    0.21388790E-03
    2   -0.19518187E+03    0.99384905E-04    0.74626155E-04
    3   -0.19518187E+03   -0.41415291E-07    0.25739758E-04
    4   -0.19518187E+03   -0.51927600E-08    0.33081191E-05
    5   -0.19518187E+03   -0.11289103E-09    0.89258451E-06
    6   -0.19518187E+03   -0.67359451E-11    0.31396854E-06
    7   -0.19518187E+03   -0.17053026E-12    0.47888336E-07
    8   -0.19518187E+03   -0.56843419E-13    0.36178998E-08

Total Energy:                     -193.2751538759 H        -5259.2845 eV
Extrapolated to 0K:               -193.2751538759 H        -5259.2845 eV
Total Mermin free energy:         -193.2751538759 H        -5259.2845 eV
Force related energy:             -193.2751538759 H        -5259.2845 eV

Volume:                              0.111872E+05 au^3   0.165777E+04 A^3
Pressure:                           -0.487262E-07 au    -0.143357E+07 Pa
>> Charges saved for restart in charges.bin

total energy  -1.9327515E+02 H       energy change -8.7342133E-07 H
gradient norm  5.2036001E-04 H/a0    max. gradient  1.0708950E-04 H/a0
step length    1.3812814E-02 a0      max. step      2.9378810E-03 a0

--------------------------------------------------------------------------------

***  Geometry step: 178

 iSCC Total electronic   Diff electronic      SCC error    
    1   -0.19518187E+03    0.00000000E+00    0.14502614E-03
    2   -0.19518186E+03    0.10503578E-04    0.63730510E-04
    3   -0.19518186E+03   -0.89101491E-08    0.19398131E-04
    4   -0.19518186E+03   -0.15203341E-08    0.10942600E-05
    5   -0.19518186E+03   -0.41296744E-10    0.30757638E-06
    6   -0.19518186E+03   -0.13926638E-11    0.10366688E-06
    7   -0.19518186E+03   -0.85265128E-13    0.24315028E-07
    8   -0.19518186E+03   -0.56843419E-13    0.46948703E-08

Total Energy:                     -193.2751543795 H        -5259.2845 eV
Extrapolated to 0K:               -193.2751543795 H        -5259.2845 eV
Total Mermin free energy:         -193.2751543795 H        -5259.2845 eV
Force related energy:             -193.2751543795 H        -5259.2845 eV

Volume:                              0.111872E+05 au^3   0.165778E+04 A^3
Pressure:                           -0.728541E-07 au    -0.214344E+07 Pa
>> Charges saved for restart in charges.bin

total energy  -1.9327515E+02 H       energy change -5.0367655E-07 H
gradient norm  5.0736756E-04 H/a0    max. gradient  8.8966271E-05 H/a0
step length    1.2432224E-03 a0      max. step      2.8303459E-04 a0

Geometry converged

--------------------------------------------------------------------------------
DFTB+ running times                          cpu [s]             wall clock [s]
--------------------------------------------------------------------------------
Pre-SCC initialisation                 +       6.13 (  0.2%)       2.92 (  0.8%)
SCC                                    +    2429.76 ( 92.3%)     316.14 ( 90.3%)
Post-SCC processing                    +     197.42 (  7.5%)      30.88 (  8.8%)
--------------------------------------------------------------------------------
Missing                                +       0.14 (  0.0%)       0.01 (  0.0%)
Total                                  =    2633.45 (100.0%)     349.95 (100.0%)
--------------------------------------------------------------------------------
