|===============================================================================
|
|  DFTB+ release 24.1
|
|  Copyright (C) 2006 - 2024  DFTB+ developers group
|
|===============================================================================
|
|  When publishing results obtained with DFTB+, please cite the following
|  reference:
|
|  * DFTB+, a software package for efficient approximate density functional
|    theory based atomistic simulations, J. Chem. Phys. 152, 124101 (2020).
|    [doi: 10.1063/1.5143190]
|
|  You should also cite additional publications crediting the parametrization
|  data you use. Please consult the documentation of the SK-files for the
|  references.
|
|===============================================================================

Reading input file 'dftb_in.hsd'
Parser version: 14

--------------------------------------------------------------------------------
Reading SK-files:
./SKFiles/Si-Si.skf
./SKFiles/Si-Ge.skf
./SKFiles/Si-O.skf
./SKFiles/Ge-Ge.skf
./SKFiles/Ge-O.skf
./SKFiles/O-O.skf
Done.


Processed input in HSD format written to 'dftb_pin.hsd'

Starting initialization...
--------------------------------------------------------------------------------
WARNING!
-> Dipole printed for extended system : value printed is not well defined
MPI processes:               1
OpenMP threads:              8
BLACS orbital grid size:     1 x 1
BLACS atom grid size:        1 x 1
Chosen random seed:          145675774
Current stacksize:           unlimited
Mode:                        Static calculation
Self consistent charges:     Yes
SCC-tolerance:                 0.100000E-07
Max. scc iterations:                    500
Shell resolved Hubbard:      No
Spin polarisation:           No
Nr. of up electrons:           192.000000
Nr. of down electrons:         192.000000
Periodic boundaries:         Yes
Electronic solver:           Relatively robust
Mixer:                       Broyden mixer
Mixing parameter:                  0.200000
Maximal SCC-cycles:                     500
Nr. of chrg. vec. in memory:            500
Electronic temperature:              0.100000E-07 H      0.272114E-06 eV
Initial charges:             Set automatically (system chrg:   0.000E+00)
Included shells:            Si:  s, p, d
                            Ge:  s, p, d
                             O:  s, p
K-points and weights:           1:  0.500000  0.500000  0.500000     1.000000

K-points in absolute space:     1:  0.025319  0.017606  0.037774

Extra options:
                             Mulliken analysis
Force type                   original

--------------------------------------------------------------------------------

***  Geometry step: 0

 iSCC Total electronic   Diff electronic      SCC error    
    1    0.00000000E+00    0.00000000E+00    0.14338115E+01
    2   -0.19732192E+03   -0.19732192E+03    0.98377417E+00
    3   -0.19766509E+03   -0.34317073E+00    0.38592818E-01
    4   -0.19795375E+03   -0.28865870E+00    0.33052121E-01
    5   -0.19795546E+03   -0.17192315E-02    0.49896733E-02
    6   -0.19795558E+03   -0.11944943E-03    0.14940053E-02
    7   -0.19795559E+03   -0.48151578E-05    0.33988986E-03
    8   -0.19795559E+03   -0.72567050E-06    0.58565940E-04
    9   -0.19795559E+03   -0.51398843E-07    0.21417466E-04
   10   -0.19795559E+03   -0.47586468E-09    0.50354422E-05
   11   -0.19795559E+03   -0.95980113E-10    0.21801511E-06
   12   -0.19795559E+03   -0.86117780E-11    0.14384106E-06
   13   -0.19795559E+03   -0.28421709E-13    0.16338717E-07
   14   -0.19795559E+03    0.85265128E-13    0.26541711E-08

Total Energy:                     -190.4255282796 H        -5181.7423 eV
Extrapolated to 0K:               -190.4255282796 H        -5181.7423 eV
Total Mermin free energy:         -190.4255282796 H        -5181.7423 eV
Force related energy:             -190.4255282796 H        -5181.7423 eV

Volume:                              0.913789E+04 au^3   0.135410E+04 A^3
Pressure:                            0.249160E-02 au     0.733053E+11 Pa
>> Charges saved for restart in charges.bin

total energy  -1.9042553E+02 H       energy change -1.9042553E+02 H
gradient norm  2.2364647E+00 H/a0    max. gradient  1.3942003E+00 H/a0
step length    0.0000000E+00 a0      max. step      0.0000000E+00 a0

--------------------------------------------------------------------------------

***  Geometry step: 1

 iSCC Total electronic   Diff electronic      SCC error    
    1   -0.19795559E+03    0.00000000E+00    0.13671111E+00
    2   -0.19727355E+03    0.68203466E+00    0.63517040E-01
    3   -0.19729098E+03   -0.17425612E-01    0.21049087E-01
    4   -0.19729408E+03   -0.31023467E-02    0.23080961E-02
    5   -0.19729417E+03   -0.82884375E-04    0.79698042E-03
    6   -0.19729417E+03   -0.47178299E-05    0.26153068E-03
    7   -0.19729417E+03   -0.21303657E-06    0.46563123E-04
    8   -0.19729417E+03   -0.20573481E-07    0.88719248E-05
    9   -0.19729417E+03   -0.12016130E-08    0.35194632E-05
   10   -0.19729417E+03   -0.24982683E-10    0.85371190E-06
   11   -0.19729417E+03   -0.11937118E-11    0.12825434E-06
   12   -0.19729417E+03   -0.45474735E-12    0.31054995E-07
   13   -0.19729417E+03    0.56843419E-13    0.39096917E-08

Total Energy:                     -191.1073928734 H        -5200.2967 eV
Extrapolated to 0K:               -191.1073928734 H        -5200.2967 eV
Total Mermin free energy:         -191.1073928734 H        -5200.2967 eV
Force related energy:             -191.1073928734 H        -5200.2967 eV

Volume:                              0.969550E+04 au^3   0.143673E+04 A^3
Pressure:                            0.179291E-02 au     0.527493E+11 Pa
>> Charges saved for restart in charges.bin

total energy  -1.9110739E+02 H       energy change -6.8186459E-01 H
gradient norm  1.4467412E+00 H/a0    max. gradient  2.6701432E-01 H/a0
step length    8.0111929E-01 a0      max. step      4.9941355E-01 a0

--------------------------------------------------------------------------------

***  Geometry step: 2

 iSCC Total electronic   Diff electronic      SCC error    
    1   -0.19729417E+03    0.00000000E+00    0.52009773E-01
    2   -0.19693982E+03    0.35434795E+00    0.25889571E-01
    3   -0.19694343E+03   -0.36076479E-02    0.62859911E-02
    4   -0.19694414E+03   -0.71409186E-03    0.97779154E-03
    5   -0.19694416E+03   -0.17883943E-04    0.22580809E-03
    6   -0.19694416E+03   -0.12549575E-05    0.12791128E-03
    7   -0.19694416E+03   -0.21369402E-07    0.18697097E-04
    8   -0.19694416E+03   -0.23530333E-08    0.21403260E-05
    9   -0.19694416E+03   -0.20281732E-09    0.70161001E-06
   10   -0.19694416E+03   -0.28137492E-11    0.23993679E-06
   11   -0.19694416E+03    0.00000000E+00    0.59896408E-07
   12   -0.19694416E+03    0.28421709E-13    0.17371869E-07
   13   -0.19694416E+03   -0.11368684E-12    0.25701734E-08

Total Energy:                     -191.8868737805 H        -5221.5075 eV
Extrapolated to 0K:               -191.8868737805 H        -5221.5075 eV
Total Mermin free energy:         -191.8868737805 H        -5221.5075 eV
Force related energy:             -191.8868737805 H        -5221.5075 eV

Volume:                              0.984553E+04 au^3   0.145896E+04 A^3
Pressure:                            0.133018E-02 au     0.391353E+11 Pa
>> Charges saved for restart in charges.bin

total energy  -1.9188687E+02 H       energy change -7.7948091E-01 H
gradient norm  9.4238292E-01 H/a0    max. gradient  1.8578423E-01 H/a0
step length    7.4152591E-01 a0      max. step      1.2939280E-01 a0

--------------------------------------------------------------------------------

***  Geometry step: 3

 iSCC Total electronic   Diff electronic      SCC error    
    1   -0.19694416E+03    0.00000000E+00    0.74690397E-01
    2   -0.19657127E+03    0.37288979E+00    0.28614871E-01
    3   -0.19657559E+03   -0.43176848E-02    0.97194716E-02
    4   -0.19657630E+03   -0.70651686E-03    0.11504452E-02
    5   -0.19657633E+03   -0.35792352E-04    0.26455977E-03
    6   -0.19657634E+03   -0.17573796E-05    0.11497681E-03
    7   -0.19657634E+03   -0.33925318E-07    0.18213959E-04
    8   -0.19657634E+03   -0.35376786E-08    0.33051113E-05
    9   -0.19657634E+03   -0.37545078E-09    0.67349305E-06
   10   -0.19657634E+03   -0.11056045E-10    0.31734290E-06
   11   -0.19657634E+03   -0.28421709E-13    0.80222947E-07
   12   -0.19657634E+03    0.00000000E+00    0.19218361E-07
   13   -0.19657634E+03    0.00000000E+00    0.38810888E-08

Total Energy:                     -192.4481325229 H        -5236.7801 eV
Extrapolated to 0K:               -192.4481325229 H        -5236.7801 eV
Total Mermin free energy:         -192.4481325229 H        -5236.7801 eV
Force related energy:             -192.4481325229 H        -5236.7801 eV

Volume:                              0.996447E+04 au^3   0.147658E+04 A^3
Pressure:                            0.956195E-03 au     0.281322E+11 Pa
>> Charges saved for restart in charges.bin

total energy  -1.9244813E+02 H       energy change -5.6125874E-01 H
gradient norm  6.0742895E-01 H/a0    max. gradient  1.1590122E-01 H/a0
step length    7.9265096E-01 a0      max. step      1.5291281E-01 a0

--------------------------------------------------------------------------------

***  Geometry step: 4

 iSCC Total electronic   Diff electronic      SCC error    
    1   -0.19657634E+03    0.00000000E+00    0.57533690E-01
    2   -0.19618507E+03    0.39126655E+00    0.34710562E-01
    3   -0.19618791E+03   -0.28439388E-02    0.62267311E-02
    4   -0.19618858E+03   -0.67023336E-03    0.17173224E-02
    5   -0.19618862E+03   -0.37836826E-04    0.30314512E-03
    6   -0.19618862E+03   -0.15204228E-05    0.95198459E-04
    7   -0.19618862E+03   -0.28591330E-07    0.20581796E-04
    8   -0.19618862E+03   -0.20114044E-08    0.29973691E-05
    9   -0.19618862E+03   -0.27034730E-09    0.10786626E-05
   10   -0.19618862E+03   -0.60254024E-11    0.31485731E-06
   11   -0.19618862E+03   -0.85265128E-13    0.75105062E-07
   12   -0.19618862E+03   -0.56843419E-13    0.19328390E-07
   13   -0.19618862E+03   -0.28421709E-13    0.49063202E-08

Total Energy:                     -192.7888209296 H        -5246.0507 eV
Extrapolated to 0K:               -192.7888209296 H        -5246.0507 eV
Total Mermin free energy:         -192.7888209296 H        -5246.0507 eV
Force related energy:             -192.7888209296 H        -5246.0507 eV

Volume:                              0.100838E+05 au^3   0.149426E+04 A^3
Pressure:                            0.664798E-03 au     0.195590E+11 Pa
>> Charges saved for restart in charges.bin

total energy  -1.9278882E+02 H       energy change -3.4068841E-01 H
gradient norm  4.5884307E-01 H/a0    max. gradient  2.2798324E-01 H/a0
step length    7.6112399E-01 a0      max. step      1.4004568E-01 a0

--------------------------------------------------------------------------------

***  Geometry step: 5

 iSCC Total electronic   Diff electronic      SCC error    
    1   -0.19618862E+03    0.00000000E+00    0.66782502E-01
    2   -0.19574722E+03    0.44140228E+00    0.40809904E-01
    3   -0.19574928E+03   -0.20597467E-02    0.70716496E-02
    4   -0.19574980E+03   -0.51516757E-03    0.13341899E-02
    5   -0.19574983E+03   -0.31532019E-04    0.32083331E-03
    6   -0.19574983E+03   -0.83921495E-06    0.89278774E-04
    7   -0.19574983E+03   -0.15904021E-07    0.22559429E-04
    8   -0.19574983E+03   -0.14286172E-08    0.54052706E-05
    9   -0.19574983E+03   -0.14944135E-09    0.15194486E-05
   10   -0.19574983E+03   -0.60822458E-11    0.27716712E-06
   11   -0.19574983E+03   -0.28421709E-12    0.31896113E-07
   12   -0.19574983E+03   -0.56843419E-13    0.93828261E-08

Total Energy:                     -192.9904457091 H        -5251.5372 eV
Extrapolated to 0K:               -192.9904457091 H        -5251.5372 eV
Total Mermin free energy:         -192.9904457091 H        -5251.5372 eV
Force related energy:             -192.9904457091 H        -5251.5372 eV

Volume:                              0.102768E+05 au^3   0.152286E+04 A^3
Pressure:                            0.402391E-03 au     0.118387E+11 Pa
>> Charges saved for restart in charges.bin

total energy  -1.9299045E+02 H       energy change -2.0162478E-01 H
gradient norm  3.1565009E-01 H/a0    max. gradient  1.4692749E-01 H/a0
step length    7.2174744E-01 a0      max. step      2.2715319E-01 a0

--------------------------------------------------------------------------------

***  Geometry step: 6

 iSCC Total electronic   Diff electronic      SCC error    
    1   -0.19574983E+03    0.00000000E+00    0.54916167E-01
    2   -0.19541991E+03    0.32991581E+00    0.30319019E-01
    3   -0.19542159E+03   -0.16776823E-02    0.38409895E-02
    4   -0.19542198E+03   -0.39179525E-03    0.11600474E-02
    5   -0.19542200E+03   -0.15178591E-04    0.19638455E-03
    6   -0.19542200E+03   -0.70320769E-06    0.65511777E-04
    7   -0.19542200E+03   -0.97817008E-08    0.18485438E-04
    8   -0.19542200E+03   -0.65398353E-09    0.44947144E-05
    9   -0.19542200E+03   -0.77989171E-10    0.15105120E-05
   10   -0.19542200E+03   -0.38653525E-11    0.27052989E-06
   11   -0.19542200E+03   -0.85265128E-13    0.31934788E-07
   12   -0.19542200E+03   -0.56843419E-13    0.71080928E-08

Total Energy:                     -193.0832987337 H        -5254.0639 eV
Extrapolated to 0K:               -193.0832987337 H        -5254.0639 eV
Total Mermin free energy:         -193.0832987337 H        -5254.0639 eV
Force related energy:             -193.0832987337 H        -5254.0639 eV

Volume:                              0.104130E+05 au^3   0.154305E+04 A^3
Pressure:                            0.229003E-03 au     0.673750E+10 Pa
>> Charges saved for restart in charges.bin

total energy  -1.9308330E+02 H       energy change -9.2853025E-02 H
gradient norm  1.9194485E-01 H/a0    max. gradient  1.0300276E-01 H/a0
step length    5.9034620E-01 a0      max. step      1.0670396E-01 a0

--------------------------------------------------------------------------------

***  Geometry step: 7

 iSCC Total electronic   Diff electronic      SCC error    
    1   -0.19542200E+03    0.00000000E+00    0.42375896E-01
    2   -0.19521221E+03    0.20978812E+00    0.20116774E-01
    3   -0.19521320E+03   -0.98856255E-03    0.33268730E-02
    4   -0.19521340E+03   -0.20139569E-03    0.61686872E-03
    5   -0.19521341E+03   -0.68079180E-05    0.17632858E-03
    6   -0.19521341E+03   -0.31528103E-06    0.66443110E-04
    7   -0.19521341E+03   -0.74954016E-08    0.18836688E-04
    8   -0.19521341E+03   -0.39554493E-09    0.46189301E-05
    9   -0.19521341E+03   -0.47890580E-10    0.12533559E-05
   10   -0.19521341E+03   -0.38653525E-11    0.13269494E-06
   11   -0.19521341E+03   -0.85265128E-13    0.18670495E-07
   12   -0.19521341E+03   -0.28421709E-13    0.47877702E-08

Total Energy:                     -193.1182587302 H        -5255.0152 eV
Extrapolated to 0K:               -193.1182587302 H        -5255.0152 eV
Total Mermin free energy:         -193.1182587302 H        -5255.0152 eV
Force related energy:             -193.1182587302 H        -5255.0152 eV

Volume:                              0.105018E+05 au^3   0.155620E+04 A^3
Pressure:                            0.136059E-03 au     0.400299E+10 Pa
>> Charges saved for restart in charges.bin

total energy  -1.9311826E+02 H       energy change -3.4959997E-02 H
gradient norm  1.5963149E-01 H/a0    max. gradient  8.8990348E-02 H/a0
step length    4.5255249E-01 a0      max. step      8.9625010E-02 a0

--------------------------------------------------------------------------------

***  Geometry step: 8

 iSCC Total electronic   Diff electronic      SCC error    
    1   -0.19521341E+03    0.00000000E+00    0.20506951E-01
    2   -0.19510257E+03    0.11083658E+00    0.10209701E-01
    3   -0.19510291E+03   -0.33685834E-03    0.20426327E-02
    4   -0.19510297E+03   -0.60088162E-04    0.36782046E-03
    5   -0.19510297E+03   -0.20837007E-05    0.98609744E-04
    6   -0.19510297E+03   -0.87376293E-07    0.31398549E-04
    7   -0.19510297E+03   -0.40188013E-08    0.98424558E-05
    8   -0.19510297E+03   -0.19753088E-09    0.28806693E-05
    9   -0.19510297E+03   -0.11681323E-10    0.67519696E-06
   10   -0.19510297E+03   -0.15916157E-11    0.98716359E-07
   11   -0.19510297E+03   -0.28421709E-13    0.19410365E-07
   12   -0.19510297E+03    0.00000000E+00    0.40330708E-08

Total Energy:                     -193.1378669133 H        -5255.5488 eV
Extrapolated to 0K:               -193.1378669133 H        -5255.5488 eV
Total Mermin free energy:         -193.1378669133 H        -5255.5488 eV
Force related energy:             -193.1378669133 H        -5255.5488 eV

Volume:                              0.105600E+05 au^3   0.156482E+04 A^3
Pressure:                            0.788856E-04 au     0.232089E+10 Pa
>> Charges saved for restart in charges.bin

total energy  -1.9313787E+02 H       energy change -1.9608183E-02 H
gradient norm  1.1955219E-01 H/a0    max. gradient  3.4588584E-02 H/a0
step length    3.3316883E-01 a0      max. step      7.2560267E-02 a0

--------------------------------------------------------------------------------

***  Geometry step: 9

 iSCC Total electronic   Diff electronic      SCC error    
    1   -0.19510297E+03    0.00000000E+00    0.19364468E-01
    2   -0.19509154E+03    0.11425744E-01    0.95911220E-02
    3   -0.19509192E+03   -0.37838614E-03    0.33086847E-02
    4   -0.19509198E+03   -0.54277250E-04    0.45331255E-03
    5   -0.19509198E+03   -0.20019137E-05    0.52232456E-04
    6   -0.19509198E+03   -0.21449765E-06    0.22191817E-04
    7   -0.19509198E+03   -0.37724703E-08    0.64729469E-05
    8   -0.19509198E+03   -0.14543389E-09    0.15677264E-05
    9   -0.19509198E+03   -0.79580786E-11    0.32661772E-06
   10   -0.19509198E+03   -0.79580786E-12    0.80647407E-07
   11   -0.19509198E+03    0.00000000E+00    0.13991303E-07
   12   -0.19509198E+03   -0.28421709E-13    0.25360150E-08

Total Energy:                     -193.1550902614 H        -5256.0174 eV
Extrapolated to 0K:               -193.1550902614 H        -5256.0174 eV
Total Mermin free energy:         -193.1550902614 H        -5256.0174 eV
Force related energy:             -193.1550902614 H        -5256.0174 eV

Volume:                              0.105777E+05 au^3   0.156746E+04 A^3
Pressure:                            0.624449E-04 au     0.183719E+10 Pa
>> Charges saved for restart in charges.bin

total energy  -1.9315509E+02 H       energy change -1.7223348E-02 H
gradient norm  1.0635015E-01 H/a0    max. gradient  2.8399464E-02 H/a0
step length    3.0425099E-01 a0      max. step      5.5458957E-02 a0

--------------------------------------------------------------------------------

***  Geometry step: 10

 iSCC Total electronic   Diff electronic      SCC error    
    1   -0.19509198E+03    0.00000000E+00    0.28293409E-01
    2   -0.19513447E+03   -0.42496801E-01    0.16626143E-01
    3   -0.19513508E+03   -0.60469805E-03    0.30628225E-02
    4   -0.19513521E+03   -0.12624937E-03    0.42895425E-03
    5   -0.19513521E+03   -0.61371357E-05    0.90142884E-04
    6   -0.19513521E+03   -0.23330156E-06    0.31505654E-04
    7   -0.19513521E+03   -0.48632955E-08    0.69201507E-05
    8   -0.19513521E+03   -0.17760726E-09    0.22422784E-05
    9   -0.19513521E+03   -0.19298341E-10    0.72742812E-06
   10   -0.19513521E+03   -0.15631940E-11    0.19478032E-06
   11   -0.19513521E+03   -0.56843419E-13    0.25605826E-07
   12   -0.19513521E+03    0.85265128E-13    0.49603166E-08

Total Energy:                     -193.1777980352 H        -5256.6353 eV
Extrapolated to 0K:               -193.1777980352 H        -5256.6353 eV
Total Mermin free energy:         -193.1777980352 H        -5256.6353 eV
Force related energy:             -193.1777980352 H        -5256.6353 eV

Volume:                              0.105921E+05 au^3   0.156959E+04 A^3
Pressure:                            0.671461E-04 au     0.197551E+10 Pa
>> Charges saved for restart in charges.bin

total energy  -1.9317780E+02 H       energy change -2.2707774E-02 H
gradient norm  9.9548691E-02 H/a0    max. gradient  4.4510846E-02 H/a0
step length    4.3824808E-01 a0      max. step      7.0377200E-02 a0

--------------------------------------------------------------------------------

***  Geometry step: 11

 iSCC Total electronic   Diff electronic      SCC error    
    1   -0.19513521E+03    0.00000000E+00    0.28255192E-01
    2   -0.19518201E+03   -0.46798603E-01    0.15408873E-01
    3   -0.19518248E+03   -0.47374613E-03    0.25234362E-02
    4   -0.19518260E+03   -0.11184337E-03    0.42348528E-03
    5   -0.19518260E+03   -0.51710543E-05    0.87507098E-04
    6   -0.19518260E+03   -0.18708792E-06    0.22106349E-04
    7   -0.19518260E+03   -0.54435816E-08    0.51285086E-05
    8   -0.19518260E+03   -0.14767920E-09    0.15799225E-05
    9   -0.19518260E+03   -0.12647661E-10    0.19134827E-06
   10   -0.19518260E+03   -0.13926638E-11    0.52751645E-07
   11   -0.19518260E+03   -0.14210855E-12    0.11255955E-07
   12   -0.19518260E+03    0.28421709E-13    0.28480391E-08

Total Energy:                     -193.1935920232 H        -5257.0651 eV
Extrapolated to 0K:               -193.1935920232 H        -5257.0651 eV
Total Mermin free energy:         -193.1935920232 H        -5257.0651 eV
Force related energy:             -193.1935920232 H        -5257.0651 eV

Volume:                              0.106069E+05 au^3   0.157178E+04 A^3
Pressure:                            0.741335E-04 au     0.218108E+10 Pa
>> Charges saved for restart in charges.bin

total energy  -1.9319359E+02 H       energy change -1.5793988E-02 H
gradient norm  7.8297345E-02 H/a0    max. gradient  1.6006074E-02 H/a0
step length    4.0154818E-01 a0      max. step      6.0358855E-02 a0

--------------------------------------------------------------------------------

***  Geometry step: 12

 iSCC Total electronic   Diff electronic      SCC error    
    1   -0.19518260E+03    0.00000000E+00    0.23018908E-01
    2   -0.19520800E+03   -0.25399885E-01    0.13668706E-01
    3   -0.19520821E+03   -0.20574237E-03    0.18021206E-02
    4   -0.19520826E+03   -0.54699579E-04    0.31304467E-03
    5   -0.19520826E+03   -0.26029992E-05    0.80117090E-04
    6   -0.19520826E+03   -0.48777395E-07    0.25743361E-04
    7   -0.19520826E+03   -0.15842261E-08    0.82993063E-05
    8   -0.19520826E+03   -0.43371529E-10    0.20379654E-05
    9   -0.19520826E+03   -0.58832939E-11    0.40592736E-06
   10   -0.19520826E+03   -0.59685590E-12    0.77164177E-07
   11   -0.19520826E+03   -0.28421709E-13    0.95600319E-08

Total Energy:                     -193.2044126049 H        -5257.3596 eV
Extrapolated to 0K:               -193.2044126049 H        -5257.3596 eV
Total Mermin free energy:         -193.2044126049 H        -5257.3596 eV
Force related energy:             -193.2044126049 H        -5257.3596 eV

Volume:                              0.106326E+05 au^3   0.157559E+04 A^3
Pressure:                            0.742709E-04 au     0.218512E+10 Pa
>> Charges saved for restart in charges.bin

total energy  -1.9320441E+02 H       energy change -1.0820582E-02 H
gradient norm  6.9750795E-02 H/a0    max. gradient  1.6175550E-02 H/a0
step length    3.4387224E-01 a0      max. step      5.5624603E-02 a0

--------------------------------------------------------------------------------

***  Geometry step: 13

 iSCC Total electronic   Diff electronic      SCC error    
    1   -0.19520826E+03    0.00000000E+00    0.21527214E-01
    2   -0.19521294E+03   -0.46715535E-02    0.12541393E-01
    3   -0.19521308E+03   -0.14872661E-03    0.17190464E-02
    4   -0.19521313E+03   -0.41057340E-04    0.29118448E-03
    5   -0.19521313E+03   -0.19764532E-05    0.84761954E-04
    6   -0.19521313E+03   -0.34114379E-07    0.35655471E-04
    7   -0.19521313E+03   -0.51980464E-09    0.91816209E-05
    8   -0.19521313E+03   -0.50107474E-10    0.11130424E-05
    9   -0.19521313E+03   -0.76738615E-11    0.28930140E-06
   10   -0.19521313E+03   -0.28421709E-12    0.73306212E-07
   11   -0.19521313E+03   -0.85265128E-13    0.13178752E-07
   12   -0.19521313E+03    0.56843419E-13    0.27890890E-08

Total Energy:                     -193.2131170460 H        -5257.5964 eV
Extrapolated to 0K:               -193.2131170460 H        -5257.5964 eV
Total Mermin free energy:         -193.2131170460 H        -5257.5964 eV
Force related energy:             -193.2131170460 H        -5257.5964 eV

Volume:                              0.106746E+05 au^3   0.158181E+04 A^3
Pressure:                            0.673111E-04 au     0.198036E+10 Pa
>> Charges saved for restart in charges.bin

total energy  -1.9321312E+02 H       energy change -8.7044410E-03 H
gradient norm  6.1126041E-02 H/a0    max. gradient  1.2058579E-02 H/a0
step length    3.1552530E-01 a0      max. step      5.5230068E-02 a0

--------------------------------------------------------------------------------

***  Geometry step: 14

 iSCC Total electronic   Diff electronic      SCC error    
    1   -0.19521313E+03    0.00000000E+00    0.16479145E-01
    2   -0.19519828E+03    0.14852208E-01    0.94933327E-02
    3   -0.19519837E+03   -0.92155875E-04    0.12741562E-02
    4   -0.19519839E+03   -0.24500285E-04    0.26393195E-03
    5   -0.19519839E+03   -0.11539660E-05    0.53355144E-04
    6   -0.19519839E+03   -0.37972995E-07    0.20807042E-04
    7   -0.19519839E+03   -0.92163077E-09    0.66309806E-05
    8   -0.19519839E+03   -0.28450131E-10    0.15124236E-05
    9   -0.19519839E+03   -0.27000624E-11    0.24005751E-06
   10   -0.19519839E+03   -0.34106051E-12    0.51762146E-07
   11   -0.19519839E+03    0.28421709E-13    0.10114123E-07
   12   -0.19519839E+03    0.56843419E-13    0.20169795E-08

Total Energy:                     -193.2194666985 H        -5257.7692 eV
Extrapolated to 0K:               -193.2194666985 H        -5257.7692 eV
Total Mermin free energy:         -193.2194666985 H        -5257.7692 eV
Force related energy:             -193.2194666985 H        -5257.7692 eV

Volume:                              0.107263E+05 au^3   0.158947E+04 A^3
Pressure:                            0.557200E-04 au     0.163934E+10 Pa
>> Charges saved for restart in charges.bin

total energy  -1.9321947E+02 H       energy change -6.3496526E-03 H
gradient norm  5.4897552E-02 H/a0    max. gradient  1.1566537E-02 H/a0
step length    2.6910778E-01 a0      max. step      4.9733857E-02 a0

--------------------------------------------------------------------------------

***  Geometry step: 15

 iSCC Total electronic   Diff electronic      SCC error    
    1   -0.19519839E+03    0.00000000E+00    0.97791471E-02
    2   -0.19517194E+03    0.26449862E-01    0.56199849E-02
    3   -0.19517199E+03   -0.46898533E-04    0.88074667E-03
    4   -0.19517200E+03   -0.10878966E-04    0.18627912E-03
    5   -0.19517200E+03   -0.50789208E-06    0.28790043E-04
    6   -0.19517200E+03   -0.24616696E-07    0.64704283E-05
    7   -0.19517200E+03   -0.56098770E-09    0.25725645E-05
    8   -0.19517200E+03   -0.10260237E-10    0.79694488E-06
    9   -0.19517200E+03   -0.73896445E-12    0.19200370E-06
   10   -0.19517200E+03    0.00000000E+00    0.40177321E-07
   11   -0.19517200E+03   -0.56843419E-13    0.39230121E-08

Total Energy:                     -193.2238859488 H        -5257.8895 eV
Extrapolated to 0K:               -193.2238859488 H        -5257.8895 eV
Total Mermin free energy:         -193.2238859488 H        -5257.8895 eV
Force related energy:             -193.2238859488 H        -5257.8895 eV

Volume:                              0.107758E+05 au^3   0.159680E+04 A^3
Pressure:                            0.411775E-04 au     0.121148E+10 Pa
>> Charges saved for restart in charges.bin

total energy  -1.9322389E+02 H       energy change -4.4192503E-03 H
gradient norm  4.8700676E-02 H/a0    max. gradient  8.6023163E-03 H/a0
step length    2.1977836E-01 a0      max. step      4.2286855E-02 a0

--------------------------------------------------------------------------------

***  Geometry step: 16

 iSCC Total electronic   Diff electronic      SCC error    
    1   -0.19517200E+03    0.00000000E+00    0.79107707E-02
    2   -0.19514646E+03    0.25538654E-01    0.44324742E-02
    3   -0.19514650E+03   -0.36058828E-04    0.87991063E-03
    4   -0.19514651E+03   -0.65629566E-05    0.20651930E-03
    5   -0.19514651E+03   -0.29858293E-06    0.67921527E-04
    6   -0.19514651E+03   -0.24982057E-07    0.21721474E-04
    7   -0.19514651E+03   -0.52713744E-09    0.38621267E-05
    8   -0.19514651E+03   -0.27739588E-10    0.69623379E-06
    9   -0.19514651E+03   -0.22737368E-11    0.19488375E-06
   10   -0.19514651E+03   -0.14210855E-12    0.29164708E-07
   11   -0.19514651E+03    0.56843419E-13    0.52358247E-08

Total Energy:                     -193.2278941882 H        -5257.9985 eV
Extrapolated to 0K:               -193.2278941882 H        -5257.9985 eV
Total Mermin free energy:         -193.2278941882 H        -5257.9985 eV
Force related energy:             -193.2278941882 H        -5257.9985 eV

Volume:                              0.108223E+05 au^3   0.160369E+04 A^3
Pressure:                            0.266702E-04 au     0.784665E+09 Pa
>> Charges saved for restart in charges.bin

total energy  -1.9322789E+02 H       energy change -4.0082394E-03 H
gradient norm  4.7746888E-02 H/a0    max. gradient  8.8888298E-03 H/a0
step length    2.1182793E-01 a0      max. step      4.1674702E-02 a0

--------------------------------------------------------------------------------

***  Geometry step: 17

 iSCC Total electronic   Diff electronic      SCC error    
    1   -0.19514651E+03    0.00000000E+00    0.91839716E-02
    2   -0.19513573E+03    0.10772114E-01    0.51531917E-02
    3   -0.19513578E+03   -0.44679863E-04    0.16334198E-02
    4   -0.19513579E+03   -0.66985252E-05    0.35370888E-03
    5   -0.19513579E+03   -0.35842953E-06    0.12864173E-03
    6   -0.19513579E+03   -0.25792389E-07    0.25765740E-04
    7   -0.19513579E+03   -0.81493567E-09    0.28371006E-05
    8   -0.19513579E+03   -0.82195584E-10    0.11063051E-05
    9   -0.19513579E+03   -0.28421709E-11    0.37434710E-06
   10   -0.19513579E+03   -0.85265128E-13    0.58909825E-07
   11   -0.19513579E+03   -0.11368684E-12    0.70117983E-08

Total Energy:                     -193.2324057622 H        -5258.1213 eV
Extrapolated to 0K:               -193.2324057622 H        -5258.1213 eV
Total Mermin free energy:         -193.2324057622 H        -5258.1213 eV
Force related energy:             -193.2324057622 H        -5258.1213 eV

Volume:                              0.108652E+05 au^3   0.161006E+04 A^3
Pressure:                            0.178997E-04 au     0.526627E+09 Pa
>> Charges saved for restart in charges.bin

total energy  -1.9323241E+02 H       energy change -4.5115741E-03 H
gradient norm  5.2646174E-02 H/a0    max. gradient  1.2227705E-02 H/a0
step length    2.4538262E-01 a0      max. step      4.5977128E-02 a0

--------------------------------------------------------------------------------

***  Geometry step: 18

 iSCC Total electronic   Diff electronic      SCC error    
    1   -0.19513579E+03    0.00000000E+00    0.13167628E-01
    2   -0.19514311E+03   -0.73278150E-02    0.74465241E-02
    3   -0.19514320E+03   -0.82339611E-04    0.23579025E-02
    4   -0.19514321E+03   -0.10971650E-04    0.47144427E-03
    5   -0.19514321E+03   -0.62379925E-06    0.15590217E-03
    6   -0.19514321E+03   -0.46363567E-07    0.36492221E-04
    7   -0.19514321E+03   -0.15388650E-08    0.40519776E-05
    8   -0.19514321E+03   -0.12693135E-09    0.15297778E-05
    9   -0.19514321E+03   -0.61106675E-11    0.41647438E-06
   10   -0.19514321E+03   -0.45474735E-12    0.83039462E-07
   11   -0.19514321E+03   -0.56843419E-13    0.12346005E-07
   12   -0.19514321E+03    0.00000000E+00    0.31545504E-08

Total Energy:                     -193.2376362850 H        -5258.2636 eV
Extrapolated to 0K:               -193.2376362850 H        -5258.2636 eV
Total Mermin free energy:         -193.2376362850 H        -5258.2636 eV
Force related energy:             -193.2376362850 H        -5258.2636 eV

Volume:                              0.109055E+05 au^3   0.161603E+04 A^3
Pressure:                            0.165498E-04 au     0.486910E+09 Pa
>> Charges saved for restart in charges.bin

total energy  -1.9323764E+02 H       energy change -5.2305228E-03 H
gradient norm  5.4849944E-02 H/a0    max. gradient  1.4196123E-02 H/a0
step length    3.0445087E-01 a0      max. step      5.1169303E-02 a0

--------------------------------------------------------------------------------

***  Geometry step: 19

 iSCC Total electronic   Diff electronic      SCC error    
    1   -0.19514321E+03    0.00000000E+00    0.12395012E-01
    2   -0.19516239E+03   -0.19183860E-01    0.65468238E-02
    3   -0.19516252E+03   -0.13031482E-03    0.22631566E-02
    4   -0.19516254E+03   -0.16761630E-04    0.48151095E-03
    5   -0.19516254E+03   -0.83512606E-06    0.15012516E-03
    6   -0.19516254E+03   -0.59120197E-07    0.45568906E-04
    7   -0.19516254E+03   -0.19410606E-08    0.65552279E-05
    8   -0.19516254E+03   -0.12678925E-09    0.14875361E-05
    9   -0.19516254E+03   -0.87823082E-11    0.35850283E-06
   10   -0.19516254E+03   -0.11368684E-11    0.80212123E-07
   11   -0.19516254E+03    0.11368684E-12    0.15760262E-07
   12   -0.19516254E+03   -0.85265128E-13    0.40657739E-08

Total Energy:                     -193.2426614596 H        -5258.4004 eV
Extrapolated to 0K:               -193.2426614596 H        -5258.4004 eV
Total Mermin free energy:         -193.2426614596 H        -5258.4004 eV
Force related energy:             -193.2426614596 H        -5258.4004 eV

Volume:                              0.109427E+05 au^3   0.162154E+04 A^3
Pressure:                            0.195250E-04 au     0.574447E+09 Pa
>> Charges saved for restart in charges.bin

total energy  -1.9324266E+02 H       energy change -5.0251745E-03 H
gradient norm  4.9569605E-02 H/a0    max. gradient  1.0245166E-02 H/a0
step length    3.3688007E-01 a0      max. step      6.2064709E-02 a0

--------------------------------------------------------------------------------

***  Geometry step: 20

 iSCC Total electronic   Diff electronic      SCC error    
    1   -0.19516254E+03    0.00000000E+00    0.11549771E-01
    2   -0.19518263E+03   -0.20092465E-01    0.65797777E-02
    3   -0.19518275E+03   -0.12235857E-03    0.20772635E-02
    4   -0.19518277E+03   -0.14309294E-04    0.32662179E-03
    5   -0.19518277E+03   -0.72545748E-06    0.10585156E-03
    6   -0.19518277E+03   -0.44085056E-07    0.36214047E-04
    7   -0.19518277E+03   -0.11219754E-08    0.62275126E-05
    8   -0.19518277E+03   -0.74180662E-10    0.14512173E-05
    9   -0.19518277E+03   -0.57411853E-11    0.34027107E-06
   10   -0.19518277E+03   -0.62527761E-12    0.44441564E-07
   11   -0.19518277E+03   -0.85265128E-13    0.74206934E-08

Total Energy:                     -193.2466875823 H        -5258.5099 eV
Extrapolated to 0K:               -193.2466875823 H        -5258.5099 eV
Total Mermin free energy:         -193.2466875823 H        -5258.5099 eV
Force related energy:             -193.2466875823 H        -5258.5099 eV

Volume:                              0.109771E+05 au^3   0.162664E+04 A^3
Pressure:                            0.237811E-04 au     0.699665E+09 Pa
>> Charges saved for restart in charges.bin

total energy  -1.9324669E+02 H       energy change -4.0261227E-03 H
gradient norm  4.0717347E-02 H/a0    max. gradient  7.7694557E-03 H/a0
step length    3.1830037E-01 a0      max. step      5.9773820E-02 a0

--------------------------------------------------------------------------------

***  Geometry step: 21

 iSCC Total electronic   Diff electronic      SCC error    
    1   -0.19518277E+03    0.00000000E+00    0.88851140E-02
    2   -0.19519276E+03   -0.99896543E-02    0.50025343E-02
    3   -0.19519285E+03   -0.91068214E-04    0.14409148E-02
    4   -0.19519286E+03   -0.10756226E-04    0.14824866E-03
    5   -0.19519286E+03   -0.55817520E-06    0.46903290E-04
    6   -0.19519286E+03   -0.27023788E-07    0.18550924E-04
    7   -0.19519286E+03   -0.58753358E-09    0.42649712E-05
    8   -0.19519286E+03   -0.22168933E-10    0.11840249E-05
    9   -0.19519286E+03   -0.22168933E-11    0.26969148E-06
   10   -0.19519286E+03   -0.25579538E-12    0.30587483E-07
   11   -0.19519286E+03    0.56843419E-13    0.72797728E-08

Total Energy:                     -193.2497698720 H        -5258.5938 eV
Extrapolated to 0K:               -193.2497698720 H        -5258.5938 eV
Total Mermin free energy:         -193.2497698720 H        -5258.5938 eV
Force related energy:             -193.2497698720 H        -5258.5938 eV

Volume:                              0.110144E+05 au^3   0.163216E+04 A^3
Pressure:                            0.238882E-04 au     0.702815E+09 Pa
>> Charges saved for restart in charges.bin

total energy  -1.9324977E+02 H       energy change -3.0822897E-03 H
gradient norm  3.5054841E-02 H/a0    max. gradient  9.0714574E-03 H/a0
step length    2.8501619E-01 a0      max. step      5.2646828E-02 a0

--------------------------------------------------------------------------------

***  Geometry step: 22

 iSCC Total electronic   Diff electronic      SCC error    
    1   -0.19519286E+03    0.00000000E+00    0.10819105E-01
    2   -0.19519330E+03   -0.43987710E-03    0.59658877E-02
    3   -0.19519336E+03   -0.57317080E-04    0.13297870E-02
    4   -0.19519337E+03   -0.88169040E-05    0.13441543E-03
    5   -0.19519337E+03   -0.44181493E-06    0.34950096E-04
    6   -0.19519337E+03   -0.20768454E-07    0.13385418E-04
    7   -0.19519337E+03   -0.46185278E-09    0.34592414E-05
    8   -0.19519337E+03   -0.16484591E-10    0.84242050E-06
    9   -0.19519337E+03   -0.13073986E-11    0.11316246E-06
   10   -0.19519337E+03   -0.19895197E-12    0.16247790E-07
   11   -0.19519337E+03    0.56843419E-13    0.28463658E-08

Total Energy:                     -193.2519345282 H        -5258.6527 eV
Extrapolated to 0K:               -193.2519345282 H        -5258.6527 eV
Total Mermin free energy:         -193.2519345282 H        -5258.6527 eV
Force related energy:             -193.2519345282 H        -5258.6527 eV

Volume:                              0.110507E+05 au^3   0.163754E+04 A^3
Pressure:                            0.217594E-04 au     0.640182E+09 Pa
>> Charges saved for restart in charges.bin

total energy  -1.9325193E+02 H       energy change -2.1646563E-03 H
gradient norm  3.2499364E-02 H/a0    max. gradient  7.5327907E-03 H/a0
step length    2.3069217E-01 a0      max. step      4.4296946E-02 a0

--------------------------------------------------------------------------------

***  Geometry step: 23

 iSCC Total electronic   Diff electronic      SCC error    
    1   -0.19519337E+03    0.00000000E+00    0.64425316E-02
    2   -0.19518390E+03    0.94669287E-02    0.34709542E-02
    3   -0.19518392E+03   -0.19282432E-04    0.68878907E-03
    4   -0.19518392E+03   -0.38608311E-05    0.86474259E-04
    5   -0.19518392E+03   -0.15188803E-06    0.32779879E-04
    6   -0.19518392E+03   -0.51329323E-08    0.94762855E-05
    7   -0.19518392E+03   -0.19758772E-09    0.22735208E-05
    8   -0.19518392E+03   -0.70485839E-11    0.47221882E-06
    9   -0.19518392E+03   -0.73896445E-12    0.72756723E-07
   10   -0.19518392E+03   -0.11368684E-12    0.12082104E-07
   11   -0.19518392E+03    0.28421709E-13    0.34965808E-08

Total Energy:                     -193.2531759819 H        -5258.6865 eV
Extrapolated to 0K:               -193.2531759819 H        -5258.6865 eV
Total Mermin free energy:         -193.2531759819 H        -5258.6865 eV
Force related energy:             -193.2531759819 H        -5258.6865 eV

Volume:                              0.110782E+05 au^3   0.164161E+04 A^3
Pressure:                            0.166832E-04 au     0.490837E+09 Pa
>> Charges saved for restart in charges.bin

total energy  -1.9325318E+02 H       energy change -1.2414536E-03 H
gradient norm  2.7357143E-02 H/a0    max. gradient  8.4992180E-03 H/a0
step length    1.2927234E-01 a0      max. step      2.4790070E-02 a0

--------------------------------------------------------------------------------

***  Geometry step: 24

 iSCC Total electronic   Diff electronic      SCC error    
    1   -0.19518392E+03    0.00000000E+00    0.49719448E-02
    2   -0.19517187E+03    0.12056131E-01    0.29726084E-02
    3   -0.19517190E+03   -0.31111352E-04    0.88683555E-03
    4   -0.19517190E+03   -0.51893091E-05    0.13352835E-03
    5   -0.19517190E+03   -0.15680428E-06    0.27410106E-04
    6   -0.19517190E+03   -0.84543217E-08    0.86682749E-05
    7   -0.19517190E+03   -0.18405899E-09    0.23408976E-05
    8   -0.19517190E+03   -0.60254024E-11    0.41527104E-06
    9   -0.19517190E+03   -0.93791641E-12    0.55333577E-07
   10   -0.19517190E+03   -0.19895197E-12    0.10828974E-07
   11   -0.19517190E+03    0.85265128E-13    0.31646850E-08

Total Energy:                     -193.2542156703 H        -5258.7148 eV
Extrapolated to 0K:               -193.2542156703 H        -5258.7148 eV
Total Mermin free energy:         -193.2542156703 H        -5258.7148 eV
Force related energy:             -193.2542156703 H        -5258.7148 eV

Volume:                              0.111029E+05 au^3   0.164528E+04 A^3
Pressure:                            0.109676E-04 au     0.322679E+09 Pa
>> Charges saved for restart in charges.bin

total energy  -1.9325422E+02 H       energy change -1.0396884E-03 H
gradient norm  2.1179277E-02 H/a0    max. gradient  5.4963710E-03 H/a0
step length    1.0460129E-01 a0      max. step      2.1523591E-02 a0

--------------------------------------------------------------------------------

***  Geometry step: 25

 iSCC Total electronic   Diff electronic      SCC error    
    1   -0.19517190E+03    0.00000000E+00    0.40550032E-02
    2   -0.19516761E+03    0.42969605E-02    0.14217098E-02
    3   -0.19516762E+03   -0.14178165E-04    0.48825060E-03
    4   -0.19516762E+03   -0.17623566E-05    0.63258832E-04
    5   -0.19516762E+03   -0.50958732E-07    0.16482618E-04
    6   -0.19516762E+03   -0.30092338E-08    0.59098726E-05
    7   -0.19516762E+03   -0.54455995E-10    0.14133946E-05
    8   -0.19516762E+03   -0.22737368E-11    0.32834186E-06
    9   -0.19516762E+03   -0.17053026E-12    0.50845358E-07
   10   -0.19516762E+03   -0.28421709E-13    0.11132909E-07
   11   -0.19516762E+03   -0.28421709E-13    0.31343306E-08

Total Energy:                     -193.2548263136 H        -5258.7314 eV
Extrapolated to 0K:               -193.2548263136 H        -5258.7314 eV
Total Mermin free energy:         -193.2548263136 H        -5258.7314 eV
Force related energy:             -193.2548263136 H        -5258.7314 eV

Volume:                              0.111158E+05 au^3   0.164719E+04 A^3
Pressure:                            0.832242E-05 au     0.244854E+09 Pa
>> Charges saved for restart in charges.bin

total energy  -1.9325483E+02 H       energy change -6.1064330E-04 H
gradient norm  2.1502894E-02 H/a0    max. gradient  5.4868294E-03 H/a0
step length    6.3593195E-02 a0      max. step      1.7483364E-02 a0

--------------------------------------------------------------------------------

***  Geometry step: 26

 iSCC Total electronic   Diff electronic      SCC error    
    1   -0.19516762E+03    0.00000000E+00    0.56099539E-02
    2   -0.19516753E+03    0.92754852E-04    0.24373106E-02
    3   -0.19516756E+03   -0.30134499E-04    0.79941980E-03
    4   -0.19516756E+03   -0.35146568E-05    0.88733010E-04
    5   -0.19516756E+03   -0.11971412E-06    0.25225838E-04
    6   -0.19516756E+03   -0.54901363E-08    0.10301770E-04
    7   -0.19516756E+03   -0.69832140E-10    0.22916386E-05
    8   -0.19516756E+03   -0.43200998E-11    0.38156378E-06
    9   -0.19516756E+03   -0.48316906E-12    0.68019628E-07
   10   -0.19516756E+03    0.56843419E-13    0.15739486E-07
   11   -0.19516756E+03   -0.56843419E-13    0.28227669E-08

Total Energy:                     -193.2557975382 H        -5258.7578 eV
Extrapolated to 0K:               -193.2557975382 H        -5258.7578 eV
Total Mermin free energy:         -193.2557975382 H        -5258.7578 eV
Force related energy:             -193.2557975382 H        -5258.7578 eV

Volume:                              0.111365E+05 au^3   0.165026E+04 A^3
Pressure:                            0.657341E-05 au     0.193396E+09 Pa
>> Charges saved for restart in charges.bin

total energy  -1.9325580E+02 H       energy change -9.7122461E-04 H
gradient norm  2.3031400E-02 H/a0    max. gradient  5.2171628E-03 H/a0
step length    1.1501425E-01 a0      max. step      3.3421141E-02 a0

--------------------------------------------------------------------------------

***  Geometry step: 27

 iSCC Total electronic   Diff electronic      SCC error    
    1   -0.19516756E+03    0.00000000E+00    0.50210522E-02
    2   -0.19517259E+03   -0.50218788E-02    0.24517799E-02
    3   -0.19517261E+03   -0.24382202E-04    0.70782983E-03
    4   -0.19517261E+03   -0.35025826E-05    0.72005999E-04
    5   -0.19517261E+03   -0.18092413E-06    0.26066187E-04
    6   -0.19517261E+03   -0.50314952E-08    0.95952988E-05
    7   -0.19517261E+03   -0.63351990E-10    0.18488694E-05
    8   -0.19517261E+03   -0.50874860E-11    0.39715844E-06
    9   -0.19517261E+03   -0.65369932E-12    0.74109723E-07
   10   -0.19517261E+03   -0.28421709E-13    0.11706316E-07
   11   -0.19517261E+03    0.00000000E+00    0.27073512E-08

Total Energy:                     -193.2566822166 H        -5258.7819 eV
Extrapolated to 0K:               -193.2566822166 H        -5258.7819 eV
Total Mermin free energy:         -193.2566822166 H        -5258.7819 eV
Force related energy:             -193.2566822166 H        -5258.7819 eV

Volume:                              0.111605E+05 au^3   0.165381E+04 A^3
Pressure:                            0.690749E-05 au     0.203225E+09 Pa
>> Charges saved for restart in charges.bin

total energy  -1.9325668E+02 H       energy change -8.8467848E-04 H
gradient norm  2.1739810E-02 H/a0    max. gradient  5.9011350E-03 H/a0
step length    1.3916155E-01 a0      max. step      3.6197903E-02 a0

--------------------------------------------------------------------------------

***  Geometry step: 28

 iSCC Total electronic   Diff electronic      SCC error    
    1   -0.19517261E+03    0.00000000E+00    0.48232006E-02
    2   -0.19517807E+03   -0.54546733E-02    0.28184136E-02
    3   -0.19517808E+03   -0.12103446E-04    0.49764766E-03
    4   -0.19517808E+03   -0.25239567E-05    0.69593046E-04
    5   -0.19517808E+03   -0.14241593E-06    0.26853948E-04
    6   -0.19517808E+03   -0.26863063E-08    0.88488736E-05
    7   -0.19517808E+03   -0.49340088E-10    0.18022349E-05
    8   -0.19517808E+03   -0.32116532E-11    0.27090103E-06
    9   -0.19517808E+03   -0.76738615E-12    0.65986768E-07
   10   -0.19517808E+03   -0.28421709E-13    0.14947847E-07
   11   -0.19517808E+03    0.00000000E+00    0.27869707E-08

Total Energy:                     -193.2573496822 H        -5258.8000 eV
Extrapolated to 0K:               -193.2573496822 H        -5258.8000 eV
Total Mermin free energy:         -193.2573496822 H        -5258.8000 eV
Force related energy:             -193.2573496822 H        -5258.8000 eV

Volume:                              0.111839E+05 au^3   0.165728E+04 A^3
Pressure:                            0.765581E-05 au     0.225242E+09 Pa
>> Charges saved for restart in charges.bin

total energy  -1.9325735E+02 H       energy change -6.6746556E-04 H
gradient norm  1.7629778E-02 H/a0    max. gradient  5.1586588E-03 H/a0
step length    1.3671433E-01 a0      max. step      3.0933700E-02 a0

--------------------------------------------------------------------------------

***  Geometry step: 29

 iSCC Total electronic   Diff electronic      SCC error    
    1   -0.19517808E+03    0.00000000E+00    0.42783053E-02
    2   -0.19518173E+03   -0.36502176E-02    0.23976121E-02
    3   -0.19518174E+03   -0.96025985E-05    0.43289382E-03
    4   -0.19518175E+03   -0.19960228E-05    0.53303189E-04
    5   -0.19518175E+03   -0.89683425E-07    0.21209273E-04
    6   -0.19518175E+03   -0.23134419E-08    0.76316146E-05
    7   -0.19518175E+03   -0.44167336E-10    0.18324680E-05
    8   -0.19518175E+03   -0.22453150E-11    0.32325233E-06
    9   -0.19518175E+03   -0.25579538E-12    0.66720154E-07
   10   -0.19518175E+03   -0.56843419E-13    0.17067389E-07
   11   -0.19518175E+03    0.00000000E+00    0.33721257E-08

Total Energy:                     -193.2578215673 H        -5258.8129 eV
Extrapolated to 0K:               -193.2578215673 H        -5258.8129 eV
Total Mermin free energy:         -193.2578215673 H        -5258.8129 eV
Force related energy:             -193.2578215673 H        -5258.8129 eV

Volume:                              0.112021E+05 au^3   0.165998E+04 A^3
Pressure:                            0.807395E-05 au     0.237544E+09 Pa
>> Charges saved for restart in charges.bin

total energy  -1.9325782E+02 H       energy change -4.7188511E-04 H
gradient norm  1.4938861E-02 H/a0    max. gradient  4.9073133E-03 H/a0
step length    1.1361112E-01 a0      max. step      2.4103935E-02 a0

--------------------------------------------------------------------------------

***  Geometry step: 30

 iSCC Total electronic   Diff electronic      SCC error    
    1   -0.19518175E+03    0.00000000E+00    0.33789743E-02
    2   -0.19518240E+03   -0.65160085E-03    0.18689533E-02
    3   -0.19518241E+03   -0.73031992E-05    0.41908304E-03
    4   -0.19518241E+03   -0.14066381E-05    0.56494789E-04
    5   -0.19518241E+03   -0.50013682E-07    0.13862192E-04
    6   -0.19518241E+03   -0.15880914E-08    0.49321593E-05
    7   -0.19518241E+03   -0.22538416E-10    0.13414900E-05
    8   -0.19518241E+03   -0.88107299E-12    0.22840359E-06
    9   -0.19518241E+03   -0.22737368E-12    0.43407896E-07
   10   -0.19518241E+03    0.00000000E+00    0.11747952E-07
   11   -0.19518241E+03   -0.56843419E-13    0.25387172E-08

Total Energy:                     -193.2581932626 H        -5258.8230 eV
Extrapolated to 0K:               -193.2581932626 H        -5258.8230 eV
Total Mermin free energy:         -193.2581932626 H        -5258.8230 eV
Force related energy:             -193.2581932626 H        -5258.8230 eV

Volume:                              0.112147E+05 au^3   0.166185E+04 A^3
Pressure:                            0.776699E-05 au     0.228513E+09 Pa
>> Charges saved for restart in charges.bin

total energy  -1.9325819E+02 H       energy change -3.7169527E-04 H
gradient norm  1.4370477E-02 H/a0    max. gradient  5.3884418E-03 H/a0
step length    8.4666966E-02 a0      max. step      1.6622112E-02 a0

--------------------------------------------------------------------------------

***  Geometry step: 31

 iSCC Total electronic   Diff electronic      SCC error    
    1   -0.19518241E+03    0.00000000E+00    0.42021788E-02
    2   -0.19518067E+03    0.17398137E-02    0.23601748E-02
    3   -0.19518067E+03   -0.67960630E-05    0.43387555E-03
    4   -0.19518067E+03   -0.13527265E-05    0.47174138E-04
    5   -0.19518067E+03   -0.51898269E-07    0.10548780E-04
    6   -0.19518067E+03   -0.14947830E-08    0.32317227E-05
    7   -0.19518067E+03   -0.23703706E-10    0.87794564E-06
    8   -0.19518067E+03   -0.88107299E-12    0.14100721E-06
    9   -0.19518067E+03   -0.22737368E-12    0.28210178E-07
   10   -0.19518067E+03    0.28421709E-13    0.40785313E-08

Total Energy:                     -193.2585907564 H        -5258.8338 eV
Extrapolated to 0K:               -193.2585907564 H        -5258.8338 eV
Total Mermin free energy:         -193.2585907564 H        -5258.8338 eV
Force related energy:             -193.2585907564 H        -5258.8338 eV

Volume:                              0.112243E+05 au^3   0.166327E+04 A^3
Pressure:                            0.656025E-05 au     0.193009E+09 Pa
>> Charges saved for restart in charges.bin

total energy  -1.9325859E+02 H       energy change -3.9749386E-04 H
gradient norm  1.4534540E-02 H/a0    max. gradient  4.5090174E-03 H/a0
step length    8.2985990E-02 a0      max. step      1.7829720E-02 a0

--------------------------------------------------------------------------------

***  Geometry step: 32

 iSCC Total electronic   Diff electronic      SCC error    
    1   -0.19518067E+03    0.00000000E+00    0.37913205E-02
    2   -0.19517805E+03    0.26273490E-02    0.21587492E-02
    3   -0.19517805E+03   -0.63741479E-05    0.41263832E-03
    4   -0.19517806E+03   -0.12150963E-05    0.39705791E-04
    5   -0.19517806E+03   -0.55259676E-07    0.15267579E-04
    6   -0.19517806E+03   -0.21139215E-08    0.49888050E-05
    7   -0.19517806E+03   -0.29672265E-10    0.11815065E-05
    8   -0.19517806E+03   -0.12221335E-11    0.25480980E-06
    9   -0.19517806E+03   -0.36948222E-12    0.64144112E-07
   10   -0.19517806E+03    0.00000000E+00    0.87159857E-08

Total Energy:                     -193.2589904159 H        -5258.8447 eV
Extrapolated to 0K:               -193.2589904159 H        -5258.8447 eV
Total Mermin free energy:         -193.2589904159 H        -5258.8447 eV
Force related energy:             -193.2589904159 H        -5258.8447 eV

Volume:                              0.112310E+05 au^3   0.166427E+04 A^3
Pressure:                            0.516218E-05 au     0.151877E+09 Pa
>> Charges saved for restart in charges.bin

total energy  -1.9325899E+02 H       energy change -3.9965945E-04 H
gradient norm  1.6100226E-02 H/a0    max. gradient  5.0223175E-03 H/a0
step length    8.9960356E-02 a0      max. step      2.1934666E-02 a0

--------------------------------------------------------------------------------

***  Geometry step: 33

 iSCC Total electronic   Diff electronic      SCC error    
    1   -0.19517806E+03    0.00000000E+00    0.29694767E-02
    2   -0.19517524E+03    0.28167409E-02    0.16996095E-02
    3   -0.19517525E+03   -0.65795936E-05    0.40373745E-03
    4   -0.19517525E+03   -0.12477660E-05    0.54460102E-04
    5   -0.19517525E+03   -0.55282527E-07    0.13366869E-04
    6   -0.19517525E+03   -0.26137172E-08    0.49461818E-05
    7   -0.19517525E+03   -0.32031267E-10    0.11173510E-05
    8   -0.19517525E+03   -0.17905677E-11    0.27391804E-06
    9   -0.19517525E+03   -0.11368684E-12    0.59581002E-07
   10   -0.19517525E+03   -0.85265128E-13    0.92096371E-08

Total Energy:                     -193.2594651123 H        -5258.8576 eV
Extrapolated to 0K:               -193.2594651123 H        -5258.8576 eV
Total Mermin free energy:         -193.2594651123 H        -5258.8576 eV
Force related energy:             -193.2594651123 H        -5258.8576 eV

Volume:                              0.112373E+05 au^3   0.166519E+04 A^3
Pressure:                            0.366536E-05 au     0.107839E+09 Pa
>> Charges saved for restart in charges.bin

total energy  -1.9325947E+02 H       energy change -4.7469640E-04 H
gradient norm  1.6995920E-02 H/a0    max. gradient  4.2594667E-03 H/a0
step length    1.0885792E-01 a0      max. step      2.7990823E-02 a0

--------------------------------------------------------------------------------

***  Geometry step: 34

 iSCC Total electronic   Diff electronic      SCC error    
    1   -0.19517525E+03    0.00000000E+00    0.36262192E-02
    2   -0.19517453E+03    0.71754340E-03    0.19018383E-02
    3   -0.19517454E+03   -0.11702128E-04    0.47504028E-03
    4   -0.19517454E+03   -0.20811632E-05    0.97331288E-04
    5   -0.19517454E+03   -0.72733997E-07    0.17230750E-04
    6   -0.19517454E+03   -0.36599204E-08    0.64725877E-05
    7   -0.19517454E+03   -0.61078254E-10    0.18111358E-05
    8   -0.19517454E+03   -0.27569058E-11    0.40473042E-06
    9   -0.19517454E+03   -0.17053026E-12    0.60715454E-07
   10   -0.19517454E+03   -0.56843419E-13    0.12966481E-07
   11   -0.19517454E+03    0.00000000E+00    0.22324311E-08

Total Energy:                     -193.2600478796 H        -5258.8735 eV
Extrapolated to 0K:               -193.2600478796 H        -5258.8735 eV
Total Mermin free energy:         -193.2600478796 H        -5258.8735 eV
Force related energy:             -193.2600478796 H        -5258.8735 eV

Volume:                              0.112447E+05 au^3   0.166629E+04 A^3
Pressure:                            0.291807E-05 au     0.858524E+08 Pa
>> Charges saved for restart in charges.bin

total energy  -1.9326005E+02 H       energy change -5.8276732E-04 H
gradient norm  1.7826293E-02 H/a0    max. gradient  3.2955962E-03 H/a0
step length    1.4797944E-01 a0      max. step      3.8111131E-02 a0

--------------------------------------------------------------------------------

***  Geometry step: 35

 iSCC Total electronic   Diff electronic      SCC error    
    1   -0.19517454E+03    0.00000000E+00    0.43328138E-02
    2   -0.19517706E+03   -0.25179889E-02    0.25010040E-02
    3   -0.19517707E+03   -0.11266802E-04    0.65946224E-03
    4   -0.19517707E+03   -0.19316499E-05    0.90538983E-04
    5   -0.19517707E+03   -0.60650137E-07    0.18566298E-04
    6   -0.19517707E+03   -0.27927740E-08    0.62609050E-05
    7   -0.19517707E+03   -0.45133675E-10    0.18303339E-05
    8   -0.19517707E+03   -0.14779289E-11    0.30971904E-06
    9   -0.19517707E+03   -0.31263880E-12    0.50999330E-07
   10   -0.19517707E+03    0.28421709E-13    0.14498408E-07
   11   -0.19517707E+03    0.28421709E-13    0.32970378E-08

Total Energy:                     -193.2605770285 H        -5258.8879 eV
Extrapolated to 0K:               -193.2605770285 H        -5258.8879 eV
Total Mermin free energy:         -193.2605770285 H        -5258.8879 eV
Force related energy:             -193.2605770285 H        -5258.8879 eV

Volume:                              0.112527E+05 au^3   0.166748E+04 A^3
Pressure:                            0.293347E-05 au     0.863056E+08 Pa
>> Charges saved for restart in charges.bin

total energy  -1.9326058E+02 H       energy change -5.2914892E-04 H
gradient norm  1.6659875E-02 H/a0    max. gradient  5.0792403E-03 H/a0
step length    1.4540446E-01 a0      max. step      3.5742870E-02 a0

--------------------------------------------------------------------------------

***  Geometry step: 36

 iSCC Total electronic   Diff electronic      SCC error    
    1   -0.19517707E+03    0.00000000E+00    0.52465862E-02
    2   -0.19518350E+03   -0.64273962E-02    0.30230827E-02
    3   -0.19518351E+03   -0.11200621E-04    0.71030829E-03
    4   -0.19518351E+03   -0.19931977E-05    0.77849519E-04
    5   -0.19518351E+03   -0.81434109E-07    0.18373789E-04
    6   -0.19518351E+03   -0.31164689E-08    0.63656891E-05
    7   -0.19518351E+03   -0.38454573E-10    0.16166989E-05
    8   -0.19518351E+03   -0.18189894E-11    0.31372331E-06
    9   -0.19518351E+03   -0.25579538E-12    0.63758870E-07
   10   -0.19518351E+03   -0.85265128E-13    0.11838419E-07
   11   -0.19518351E+03    0.56843419E-13    0.30486573E-08

Total Energy:                     -193.2610545610 H        -5258.9009 eV
Extrapolated to 0K:               -193.2610545610 H        -5258.9009 eV
Total Mermin free energy:         -193.2610545610 H        -5258.9009 eV
Force related energy:             -193.2610545610 H        -5258.9009 eV

Volume:                              0.112606E+05 au^3   0.166865E+04 A^3
Pressure:                            0.489882E-05 au     0.144128E+09 Pa
>> Charges saved for restart in charges.bin

total energy  -1.9326105E+02 H       energy change -4.7753249E-04 H
gradient norm  1.5122029E-02 H/a0    max. gradient  5.3332360E-03 H/a0
step length    1.4689934E-01 a0      max. step      3.3225146E-02 a0

--------------------------------------------------------------------------------

***  Geometry step: 37

 iSCC Total electronic   Diff electronic      SCC error    
    1   -0.19518351E+03    0.00000000E+00    0.38680307E-02
    2   -0.19518764E+03   -0.41230720E-02    0.22149067E-02
    3   -0.19518765E+03   -0.83924904E-05    0.55384800E-03
    4   -0.19518765E+03   -0.13413834E-05    0.50545437E-04
    5   -0.19518765E+03   -0.56422749E-07    0.91188256E-05
    6   -0.19518765E+03   -0.26868179E-08    0.36733672E-05
    7   -0.19518765E+03   -0.34134473E-10    0.83386985E-06
    8   -0.19518765E+03   -0.12505552E-11    0.21746183E-06
    9   -0.19518765E+03   -0.14210855E-12    0.52395074E-07
   10   -0.19518765E+03   -0.28421709E-13    0.59309939E-08

Total Energy:                     -193.2614101377 H        -5258.9105 eV
Extrapolated to 0K:               -193.2614101377 H        -5258.9105 eV
Total Mermin free energy:         -193.2614101377 H        -5258.9105 eV
Force related energy:             -193.2614101377 H        -5258.9105 eV

Volume:                              0.112692E+05 au^3   0.166993E+04 A^3
Pressure:                            0.599760E-05 au     0.176455E+09 Pa
>> Charges saved for restart in charges.bin

total energy  -1.9326141E+02 H       energy change -3.5557664E-04 H
gradient norm  1.4602829E-02 H/a0    max. gradient  4.7864117E-03 H/a0
step length    1.1386276E-01 a0      max. step      2.2427013E-02 a0

--------------------------------------------------------------------------------

***  Geometry step: 38

 iSCC Total electronic   Diff electronic      SCC error    
    1   -0.19518765E+03    0.00000000E+00    0.39405901E-02
    2   -0.19519049E+03   -0.28448250E-02    0.22776078E-02
    3   -0.19519050E+03   -0.98708619E-05    0.58991671E-03
    4   -0.19519050E+03   -0.15568400E-05    0.54026838E-04
    5   -0.19519050E+03   -0.68315387E-07    0.12687431E-04
    6   -0.19519050E+03   -0.32958098E-08    0.51113058E-05
    7   -0.19519050E+03   -0.54200200E-10    0.13375296E-05
    8   -0.19519050E+03   -0.17337243E-11    0.33358687E-06
    9   -0.19519050E+03   -0.56843419E-13    0.66736466E-07
   10   -0.19519050E+03   -0.85265128E-13    0.94510315E-08

Total Energy:                     -193.2618207307 H        -5258.9217 eV
Extrapolated to 0K:               -193.2618207307 H        -5258.9217 eV
Total Mermin free energy:         -193.2618207307 H        -5258.9217 eV
Force related energy:             -193.2618207307 H        -5258.9217 eV

Volume:                              0.112794E+05 au^3   0.167144E+04 A^3
Pressure:                            0.636013E-05 au     0.187122E+09 Pa
>> Charges saved for restart in charges.bin

total energy  -1.9326182E+02 H       energy change -4.1059305E-04 H
gradient norm  1.4988612E-02 H/a0    max. gradient  3.8545172E-03 H/a0
step length    1.2501301E-01 a0      max. step      2.3179290E-02 a0

--------------------------------------------------------------------------------

***  Geometry step: 39

 iSCC Total electronic   Diff electronic      SCC error    
    1   -0.19519050E+03    0.00000000E+00    0.37810898E-02
    2   -0.19519111E+03   -0.61068489E-03    0.22027976E-02
    3   -0.19519113E+03   -0.12669582E-04    0.61488291E-03
    4   -0.19519113E+03   -0.18460888E-05    0.61238264E-04
    5   -0.19519113E+03   -0.81111295E-07    0.16174839E-04
    6   -0.19519113E+03   -0.39327972E-08    0.65281664E-05
    7   -0.19519113E+03   -0.65114136E-10    0.16625162E-05
    8   -0.19519113E+03   -0.23305802E-11    0.39209079E-06
    9   -0.19519113E+03   -0.22737368E-12    0.71025816E-07
   10   -0.19519113E+03    0.00000000E+00    0.13477896E-07
   11   -0.19519113E+03    0.00000000E+00    0.17770594E-08

Total Energy:                     -193.2622838909 H        -5258.9343 eV
Extrapolated to 0K:               -193.2622838909 H        -5258.9343 eV
Total Mermin free energy:         -193.2622838909 H        -5258.9343 eV
Force related energy:             -193.2622838909 H        -5258.9343 eV

Volume:                              0.112893E+05 au^3   0.167291E+04 A^3
Pressure:                            0.587826E-05 au     0.172944E+09 Pa
>> Charges saved for restart in charges.bin

total energy  -1.9326228E+02 H       energy change -4.6316025E-04 H
gradient norm  1.6362091E-02 H/a0    max. gradient  3.6528736E-03 H/a0
step length    1.3871904E-01 a0      max. step      2.6304892E-02 a0

--------------------------------------------------------------------------------

***  Geometry step: 40

 iSCC Total electronic   Diff electronic      SCC error    
    1   -0.19519113E+03    0.00000000E+00    0.40100344E-02
    2   -0.19518951E+03    0.16193101E-02    0.23521831E-02
    3   -0.19518952E+03   -0.14423105E-04    0.69939243E-03
    4   -0.19518953E+03   -0.19021161E-05    0.61852848E-04
    5   -0.19518953E+03   -0.10289421E-06    0.22260823E-04
    6   -0.19518953E+03   -0.38915857E-08    0.78447890E-05
    7   -0.19518953E+03   -0.63238303E-10    0.20277337E-05
    8   -0.19518953E+03   -0.30411229E-11    0.37735430E-06
    9   -0.19518953E+03   -0.36948222E-12    0.74574337E-07
   10   -0.19518953E+03    0.56843419E-13    0.13643374E-07
   11   -0.19518953E+03   -0.14210855E-12    0.16287633E-08

Total Energy:                     -193.2627967875 H        -5258.9483 eV
Extrapolated to 0K:               -193.2627967875 H        -5258.9483 eV
Total Mermin free energy:         -193.2627967875 H        -5258.9483 eV
Force related energy:             -193.2627967875 H        -5258.9483 eV

Volume:                              0.112980E+05 au^3   0.167420E+04 A^3
Pressure:                            0.468571E-05 au     0.137858E+09 Pa
>> Charges saved for restart in charges.bin

total energy  -1.9326280E+02 H       energy change -5.1289653E-04 H
gradient norm  1.6353762E-02 H/a0    max. gradient  3.9857151E-03 H/a0
step length    1.5648270E-01 a0      max. step      3.0785630E-02 a0

--------------------------------------------------------------------------------

***  Geometry step: 41

 iSCC Total electronic   Diff electronic      SCC error    
    1   -0.19518953E+03    0.00000000E+00    0.39717327E-02
    2   -0.19518664E+03    0.28881639E-02    0.18785931E-02
    3   -0.19518665E+03   -0.16846042E-04    0.61088313E-03
    4   -0.19518666E+03   -0.19559018E-05    0.80005029E-04
    5   -0.19518666E+03   -0.10645158E-06    0.28188335E-04
    6   -0.19518666E+03   -0.38349128E-08    0.83424921E-05
    7   -0.19518666E+03   -0.57923444E-10    0.16565403E-05
    8   -0.19518666E+03   -0.33253400E-11    0.21955021E-06
    9   -0.19518666E+03   -0.59685590E-12    0.43130750E-07
   10   -0.19518666E+03   -0.28421709E-13    0.55383662E-08

Total Energy:                     -193.2632746192 H        -5258.9613 eV
Extrapolated to 0K:               -193.2632746192 H        -5258.9613 eV
Total Mermin free energy:         -193.2632746192 H        -5258.9613 eV
Force related energy:             -193.2632746192 H        -5258.9613 eV

Volume:                              0.113053E+05 au^3   0.167527E+04 A^3
Pressure:                            0.298727E-05 au     0.878886E+08 Pa
>> Charges saved for restart in charges.bin

total energy  -1.9326327E+02 H       energy change -4.7783176E-04 H
gradient norm  1.5230960E-02 H/a0    max. gradient  3.7235012E-03 H/a0
step length    1.6146367E-01 a0      max. step      3.4323062E-02 a0

--------------------------------------------------------------------------------

***  Geometry step: 42

 iSCC Total electronic   Diff electronic      SCC error    
    1   -0.19518666E+03    0.00000000E+00    0.29265479E-02
    2   -0.19518581E+03    0.84507086E-03    0.14205827E-02
    3   -0.19518582E+03   -0.11262593E-04    0.46814632E-03
    4   -0.19518582E+03   -0.15012018E-05    0.75358657E-04
    5   -0.19518582E+03   -0.61572081E-07    0.23686509E-04
    6   -0.19518582E+03   -0.36009169E-08    0.82570788E-05
    7   -0.19518582E+03   -0.61277206E-10    0.15991711E-05
    8   -0.19518582E+03   -0.30127012E-11    0.28341483E-06
    9   -0.19518582E+03   -0.25579538E-12    0.77105057E-07
   10   -0.19518582E+03   -0.56843419E-13    0.12982040E-07
   11   -0.19518582E+03   -0.56843419E-13    0.21762245E-08

Total Energy:                     -193.2636473345 H        -5258.9714 eV
Extrapolated to 0K:               -193.2636473345 H        -5258.9714 eV
Total Mermin free energy:         -193.2636473345 H        -5258.9714 eV
Force related energy:             -193.2636473345 H        -5258.9714 eV

Volume:                              0.113108E+05 au^3   0.167609E+04 A^3
Pressure:                            0.252157E-05 au     0.741872E+08 Pa
>> Charges saved for restart in charges.bin

total energy  -1.9326365E+02 H       energy change -3.7271524E-04 H
gradient norm  1.3782229E-02 H/a0    max. gradient  3.5201403E-03 H/a0
step length    1.3384361E-01 a0      max. step      2.9088962E-02 a0

--------------------------------------------------------------------------------

***  Geometry step: 43

 iSCC Total electronic   Diff electronic      SCC error    
    1   -0.19518582E+03    0.00000000E+00    0.35094813E-02
    2   -0.19518635E+03   -0.52908028E-03    0.20315231E-02
    3   -0.19518636E+03   -0.93977969E-05    0.58642675E-03
    4   -0.19518636E+03   -0.14458558E-05    0.77416017E-04
    5   -0.19518636E+03   -0.52203177E-07    0.13612228E-04
    6   -0.19518636E+03   -0.31370746E-08    0.52152533E-05
    7   -0.19518636E+03   -0.56786575E-10    0.14850534E-05
    8   -0.19518636E+03   -0.18474111E-11    0.35154787E-06
    9   -0.19518636E+03   -0.28421709E-13    0.59595929E-07
   10   -0.19518636E+03   -0.85265128E-13    0.12640752E-07
   11   -0.19518636E+03    0.85265128E-13    0.17806085E-08

Total Energy:                     -193.2639724166 H        -5258.9803 eV
Extrapolated to 0K:               -193.2639724166 H        -5258.9803 eV
Total Mermin free energy:         -193.2639724166 H        -5258.9803 eV
Force related energy:             -193.2639724166 H        -5258.9803 eV

Volume:                              0.113183E+05 au^3   0.167720E+04 A^3
Pressure:                            0.247737E-05 au     0.728866E+08 Pa
>> Charges saved for restart in charges.bin

total energy  -1.9326397E+02 H       energy change -3.2508216E-04 H
gradient norm  1.3166432E-02 H/a0    max. gradient  3.3773636E-03 H/a0
step length    1.2006883E-01 a0      max. step      2.5221335E-02 a0

--------------------------------------------------------------------------------

***  Geometry step: 44

 iSCC Total electronic   Diff electronic      SCC error    
    1   -0.19518636E+03    0.00000000E+00    0.34970020E-02
    2   -0.19518851E+03   -0.21425830E-02    0.20837017E-02
    3   -0.19518851E+03   -0.72122911E-05    0.56125281E-03
    4   -0.19518852E+03   -0.12135847E-05    0.58095933E-04
    5   -0.19518852E+03   -0.49653664E-07    0.92255857E-05
    6   -0.19518852E+03   -0.28167904E-08    0.27832128E-05
    7   -0.19518852E+03   -0.50448534E-10    0.88562046E-06
    8   -0.19518852E+03   -0.10800250E-11    0.25908992E-06
    9   -0.19518852E+03   -0.56843419E-13    0.55178584E-07
   10   -0.19518852E+03    0.56843419E-13    0.12241919E-07
   11   -0.19518852E+03   -0.14210855E-12    0.11955592E-08

Total Energy:                     -193.2642770982 H        -5258.9886 eV
Extrapolated to 0K:               -193.2642770982 H        -5258.9886 eV
Total Mermin free energy:         -193.2642770982 H        -5258.9886 eV
Force related energy:             -193.2642770982 H        -5258.9886 eV

Volume:                              0.113265E+05 au^3   0.167841E+04 A^3
Pressure:                            0.274955E-05 au     0.808946E+08 Pa
>> Charges saved for restart in charges.bin

total energy  -1.9326428E+02 H       energy change -3.0468156E-04 H
gradient norm  1.3444298E-02 H/a0    max. gradient  3.7093719E-03 H/a0
step length    1.1865547E-01 a0      max. step      2.3451960E-02 a0

--------------------------------------------------------------------------------

***  Geometry step: 45

 iSCC Total electronic   Diff electronic      SCC error    
    1   -0.19518852E+03    0.00000000E+00    0.37007696E-02
    2   -0.19519207E+03   -0.35584182E-02    0.21706840E-02
    3   -0.19519208E+03   -0.79174248E-05    0.53602735E-03
    4   -0.19519208E+03   -0.12879955E-05    0.50393743E-04
    5   -0.19519208E+03   -0.66438929E-07    0.14184562E-04
    6   -0.19519208E+03   -0.33357139E-08    0.50965341E-05
    7   -0.19519208E+03   -0.58406613E-10    0.11987071E-05
    8   -0.19519208E+03   -0.18189894E-11    0.30570822E-06
    9   -0.19519208E+03   -0.11368684E-12    0.51316069E-07
   10   -0.19519208E+03   -0.11368684E-12    0.76571038E-08

Total Energy:                     -193.2646039472 H        -5258.9974 eV
Extrapolated to 0K:               -193.2646039472 H        -5258.9974 eV
Total Mermin free energy:         -193.2646039472 H        -5258.9974 eV
Force related energy:             -193.2646039472 H        -5258.9974 eV

Volume:                              0.113350E+05 au^3   0.167967E+04 A^3
Pressure:                            0.355866E-05 au     0.104699E+09 Pa
>> Charges saved for restart in charges.bin

total energy  -1.9326460E+02 H       energy change -3.2684895E-04 H
gradient norm  1.3162554E-02 H/a0    max. gradient  3.2650426E-03 H/a0
step length    1.2848440E-01 a0      max. step      2.4686694E-02 a0

--------------------------------------------------------------------------------

***  Geometry step: 46

 iSCC Total electronic   Diff electronic      SCC error    
    1   -0.19519208E+03    0.00000000E+00    0.34566452E-02
    2   -0.19519452E+03   -0.24362021E-02    0.20592403E-02
    3   -0.19519453E+03   -0.76655787E-05    0.57258476E-03
    4   -0.19519453E+03   -0.10919370E-05    0.52602653E-04
    5   -0.19519453E+03   -0.60231628E-07    0.18952521E-04
    6   -0.19519453E+03   -0.31300260E-08    0.61909513E-05
    7   -0.19519453E+03   -0.52665428E-10    0.94918781E-06
    8   -0.19519453E+03   -0.27569058E-11    0.26562082E-06
    9   -0.19519453E+03   -0.25579538E-12    0.57778154E-07
   10   -0.19519453E+03   -0.28421709E-13    0.72196271E-08

Total Energy:                     -193.2649124922 H        -5259.0058 eV
Extrapolated to 0K:               -193.2649124922 H        -5259.0058 eV
Total Mermin free energy:         -193.2649124922 H        -5259.0058 eV
Force related energy:             -193.2649124922 H        -5259.0058 eV

Volume:                              0.113440E+05 au^3   0.168101E+04 A^3
Pressure:                            0.390623E-05 au     0.114925E+09 Pa
>> Charges saved for restart in charges.bin

total energy  -1.9326491E+02 H       energy change -3.0854509E-04 H
gradient norm  1.2843959E-02 H/a0    max. gradient  3.0988303E-03 H/a0
step length    1.3582819E-01 a0      max. step      2.6789158E-02 a0

--------------------------------------------------------------------------------

***  Geometry step: 47

 iSCC Total electronic   Diff electronic      SCC error    
    1   -0.19519453E+03    0.00000000E+00    0.31954208E-02
    2   -0.19519563E+03   -0.10991140E-02    0.18910349E-02
    3   -0.19519564E+03   -0.87462416E-05    0.55560789E-03
    4   -0.19519564E+03   -0.12890219E-05    0.89763724E-04
    5   -0.19519564E+03   -0.58566542E-07    0.22788515E-04
    6   -0.19519564E+03   -0.36189363E-08    0.72868139E-05
    7   -0.19519564E+03   -0.86146201E-10    0.13415374E-05
    8   -0.19519564E+03   -0.29842795E-11    0.28610479E-06
    9   -0.19519564E+03   -0.22737368E-12    0.60536385E-07
   10   -0.19519564E+03   -0.14210855E-12    0.89586276E-08

Total Energy:                     -193.2652089157 H        -5259.0139 eV
Extrapolated to 0K:               -193.2652089157 H        -5259.0139 eV
Total Mermin free energy:         -193.2652089157 H        -5259.0139 eV
Force related energy:             -193.2652089157 H        -5259.0139 eV

Volume:                              0.113510E+05 au^3   0.168205E+04 A^3
Pressure:                            0.383791E-05 au     0.112915E+09 Pa
>> Charges saved for restart in charges.bin

total energy  -1.9326521E+02 H       energy change -2.9642347E-04 H
gradient norm  1.2000572E-02 H/a0    max. gradient  2.2863268E-03 H/a0
step length    1.3547233E-01 a0      max. step      2.9188385E-02 a0

--------------------------------------------------------------------------------

***  Geometry step: 48

 iSCC Total electronic   Diff electronic      SCC error    
    1   -0.19519564E+03    0.00000000E+00    0.34986773E-02
    2   -0.19519516E+03    0.47471731E-03    0.20203642E-02
    3   -0.19519517E+03   -0.71711085E-05    0.56537626E-03
    4   -0.19519517E+03   -0.11046433E-05    0.97560092E-04
    5   -0.19519517E+03   -0.44202778E-07    0.20136445E-04
    6   -0.19519517E+03   -0.30442493E-08    0.61345762E-05
    7   -0.19519517E+03   -0.76568085E-10    0.13079049E-05
    8   -0.19519517E+03   -0.21316282E-11    0.21900632E-06
    9   -0.19519517E+03   -0.17053026E-12    0.54555023E-07
   10   -0.19519517E+03    0.00000000E+00    0.77112619E-08

Total Energy:                     -193.2654493157 H        -5259.0205 eV
Extrapolated to 0K:               -193.2654493157 H        -5259.0205 eV
Total Mermin free energy:         -193.2654493157 H        -5259.0205 eV
Force related energy:             -193.2654493157 H        -5259.0205 eV

Volume:                              0.113555E+05 au^3   0.168272E+04 A^3
Pressure:                            0.334754E-05 au     0.984880E+08 Pa
>> Charges saved for restart in charges.bin

total energy  -1.9326545E+02 H       energy change -2.4040000E-04 H
gradient norm  1.1053147E-02 H/a0    max. gradient  2.3183732E-03 H/a0
step length    1.1264272E-01 a0      max. step      2.6671342E-02 a0

--------------------------------------------------------------------------------

***  Geometry step: 49

 iSCC Total electronic   Diff electronic      SCC error    
    1   -0.19519517E+03    0.00000000E+00    0.27733072E-02
    2   -0.19519423E+03    0.93783476E-03    0.15821796E-02
    3   -0.19519424E+03   -0.50488789E-05    0.39913039E-03
    4   -0.19519424E+03   -0.85922014E-06    0.70230738E-04
    5   -0.19519424E+03   -0.31734771E-07    0.15781761E-04
    6   -0.19519424E+03   -0.19679476E-08    0.49703069E-05
    7   -0.19519424E+03   -0.54001248E-10    0.11148786E-05
    8   -0.19519424E+03   -0.16200374E-11    0.19850653E-06
    9   -0.19519424E+03   -0.17053026E-12    0.43318880E-07
   10   -0.19519424E+03    0.00000000E+00    0.70108950E-08

Total Energy:                     -193.2656484996 H        -5259.0259 eV
Extrapolated to 0K:               -193.2656484996 H        -5259.0259 eV
Total Mermin free energy:         -193.2656484996 H        -5259.0259 eV
Force related energy:             -193.2656484996 H        -5259.0259 eV

Volume:                              0.113577E+05 au^3   0.168304E+04 A^3
Pressure:                            0.281412E-05 au     0.827943E+08 Pa
>> Charges saved for restart in charges.bin

total energy  -1.9326565E+02 H       energy change -1.9918388E-04 H
gradient norm  1.0407385E-02 H/a0    max. gradient  2.4831950E-03 H/a0
step length    8.2606572E-02 a0      max. step      2.2058420E-02 a0

--------------------------------------------------------------------------------

***  Geometry step: 50

 iSCC Total electronic   Diff electronic      SCC error    
    1   -0.19519424E+03    0.00000000E+00    0.28791009E-02
    2   -0.19519371E+03    0.53329013E-03    0.16799893E-02
    3   -0.19519371E+03   -0.47864025E-05    0.45245784E-03
    4   -0.19519371E+03   -0.82230403E-06    0.44425958E-04
    5   -0.19519371E+03   -0.28354009E-07    0.10017858E-04
    6   -0.19519371E+03   -0.15147350E-08    0.35891449E-05
    7   -0.19519371E+03   -0.37289283E-10    0.96481685E-06
    8   -0.19519371E+03   -0.11368684E-11    0.25178368E-06
    9   -0.19519371E+03   -0.56843419E-13    0.46765957E-07
[...]
step length    4.5552760E-03 a0      max. step      1.1159416E-03 a0

--------------------------------------------------------------------------------

***  Geometry step: 147

 iSCC Total electronic   Diff electronic      SCC error    
    1   -0.19518553E+03    0.00000000E+00    0.42468895E-03
    2   -0.19518489E+03    0.63395478E-03    0.24520837E-03
    3   -0.19518489E+03   -0.14797959E-06    0.71450242E-04
    4   -0.19518489E+03   -0.24426441E-07    0.67626414E-05
    5   -0.19518489E+03   -0.83528562E-09    0.12865945E-05
    6   -0.19518489E+03   -0.51386451E-10    0.50531417E-06
    7   -0.19518489E+03   -0.96633812E-12    0.12940688E-06
    8   -0.19518489E+03    0.28421709E-13    0.17754005E-07
    9   -0.19518489E+03   -0.28421709E-13    0.50734466E-08

Total Energy:                     -193.2755953423 H        -5259.2965 eV
Extrapolated to 0K:               -193.2755953423 H        -5259.2965 eV
Total Mermin free energy:         -193.2755953423 H        -5259.2965 eV
Force related energy:             -193.2755953423 H        -5259.2965 eV

Volume:                              0.111615E+05 au^3   0.165396E+04 A^3
Pressure:                           -0.721434E-07 au    -0.212253E+07 Pa
>> Charges saved for restart in charges.bin

total energy  -1.9327560E+02 H       energy change -4.1373303E-06 H
gradient norm  1.8513624E-03 H/a0    max. gradient  4.2833188E-04 H/a0
step length    2.8678871E-02 a0      max. step      6.8831667E-03 a0

--------------------------------------------------------------------------------

***  Geometry step: 148

 iSCC Total electronic   Diff electronic      SCC error    
    1   -0.19518489E+03    0.00000000E+00    0.22267991E-03
    2   -0.19518500E+03   -0.10465478E-03    0.97655355E-04
    3   -0.19518500E+03   -0.33901301E-07    0.17517754E-04
    4   -0.19518500E+03   -0.47766662E-08    0.48530330E-05
    5   -0.19518500E+03   -0.94928509E-10    0.11610072E-05
    6   -0.19518500E+03   -0.57411853E-11    0.34675445E-06
    7   -0.19518500E+03   -0.25579538E-12    0.64564906E-07
    8   -0.19518500E+03    0.28421709E-13    0.67565482E-08

Total Energy:                     -193.2755986232 H        -5259.2966 eV
Extrapolated to 0K:               -193.2755986232 H        -5259.2966 eV
Total Mermin free energy:         -193.2755986232 H        -5259.2966 eV
Force related energy:             -193.2755986232 H        -5259.2966 eV

Volume:                              0.111614E+05 au^3   0.165396E+04 A^3
Pressure:                           -0.345619E-07 au    -0.101685E+07 Pa
>> Charges saved for restart in charges.bin

total energy  -1.9327560E+02 H       energy change -3.2809351E-06 H
gradient norm  1.6103055E-03 H/a0    max. gradient  3.5432595E-04 H/a0
step length    5.7710483E-03 a0      max. step      1.5216807E-03 a0

--------------------------------------------------------------------------------

***  Geometry step: 149

 iSCC Total electronic   Diff electronic      SCC error    
    1   -0.19518500E+03    0.00000000E+00    0.84405012E-03
    2   -0.19518538E+03   -0.37629432E-03    0.37588324E-03
    3   -0.19518538E+03   -0.45999286E-06    0.88908262E-04
    4   -0.19518538E+03   -0.72262026E-07    0.13433360E-04
    5   -0.19518538E+03   -0.15367903E-08    0.40143993E-05
    6   -0.19518538E+03   -0.93962171E-10    0.12132039E-05
    7   -0.19518538E+03   -0.21032065E-11    0.24548182E-06
    8   -0.19518538E+03   -0.11368684E-12    0.38274456E-07
    9   -0.19518538E+03    0.85265128E-13    0.95776622E-08

Total Energy:                     -193.2756085672 H        -5259.2969 eV
Extrapolated to 0K:               -193.2756085672 H        -5259.2969 eV
Total Mermin free energy:         -193.2756085672 H        -5259.2969 eV
Force related energy:             -193.2756085672 H        -5259.2969 eV

Volume:                              0.111604E+05 au^3   0.165380E+04 A^3
Pressure:                            0.146130E-06 au     0.429930E+07 Pa
>> Charges saved for restart in charges.bin

total energy  -1.9327561E+02 H       energy change -9.9439942E-06 H
gradient norm  1.8368519E-03 H/a0    max. gradient  8.0498195E-04 H/a0
step length    3.5726622E-02 a0      max. step      8.4288026E-03 a0

--------------------------------------------------------------------------------

***  Geometry step: 150

 iSCC Total electronic   Diff electronic      SCC error    
    1   -0.19518538E+03    0.00000000E+00    0.23188354E-03
    2   -0.19518544E+03   -0.67614376E-04    0.12125330E-03
    3   -0.19518544E+03   -0.57381726E-07    0.36123195E-04
    4   -0.19518544E+03   -0.81516589E-08    0.67864740E-05
    5   -0.19518544E+03   -0.17826096E-09    0.18640293E-05
    6   -0.19518544E+03   -0.10999202E-10    0.35263385E-06
    7   -0.19518544E+03   -0.22737368E-12    0.29242829E-07
    8   -0.19518544E+03    0.28421709E-13    0.90633603E-08

Total Energy:                     -193.2756118475 H        -5259.2970 eV
Extrapolated to 0K:               -193.2756118475 H        -5259.2970 eV
Total Mermin free energy:         -193.2756118475 H        -5259.2970 eV
Force related energy:             -193.2756118475 H        -5259.2970 eV

Volume:                              0.111608E+05 au^3   0.165386E+04 A^3
Pressure:                            0.127465E-06 au     0.375014E+07 Pa
>> Charges saved for restart in charges.bin

total energy  -1.9327561E+02 H       energy change -3.2802716E-06 H
gradient norm  1.7123165E-03 H/a0    max. gradient  6.6870062E-04 H/a0
step length    1.0192271E-02 a0      max. step      2.7502444E-03 a0

--------------------------------------------------------------------------------

***  Geometry step: 151

 iSCC Total electronic   Diff electronic      SCC error    
    1   -0.19518544E+03    0.00000000E+00    0.54553976E-03
    2   -0.19518538E+03    0.63049613E-04    0.16258551E-03
    3   -0.19518538E+03   -0.22680771E-06    0.48390138E-04
    4   -0.19518538E+03   -0.32117299E-07    0.64491274E-05
    5   -0.19518538E+03   -0.60683192E-09    0.13328245E-05
    6   -0.19518538E+03   -0.39136694E-10    0.43871830E-06
    7   -0.19518538E+03   -0.56843419E-12    0.98343564E-07
    8   -0.19518538E+03    0.85265128E-13    0.19902530E-07
    9   -0.19518538E+03   -0.17053026E-12    0.56421006E-08

Total Energy:                     -193.2756163719 H        -5259.2971 eV
Extrapolated to 0K:               -193.2756163719 H        -5259.2971 eV
Total Mermin free energy:         -193.2756163719 H        -5259.2971 eV
Force related energy:             -193.2756163719 H        -5259.2971 eV

Volume:                              0.111617E+05 au^3   0.165399E+04 A^3
Pressure:                            0.939199E-07 au     0.276322E+07 Pa
>> Charges saved for restart in charges.bin

total energy  -1.9327562E+02 H       energy change -4.5243797E-06 H
gradient norm  1.2645341E-03 H/a0    max. gradient  2.8617594E-04 H/a0
step length    2.5050878E-02 a0      max. step      5.0271118E-03 a0

--------------------------------------------------------------------------------

***  Geometry step: 152

 iSCC Total electronic   Diff electronic      SCC error    
    1   -0.19518538E+03    0.00000000E+00    0.19852055E-03
    2   -0.19518513E+03    0.24576391E-03    0.83208893E-04
    3   -0.19518513E+03   -0.45496989E-07    0.26238932E-04
    4   -0.19518513E+03   -0.68812938E-08    0.40060014E-05
    5   -0.19518513E+03   -0.14003376E-09    0.84908379E-06
    6   -0.19518513E+03   -0.83275609E-11    0.29180136E-06
    7   -0.19518513E+03   -0.22737368E-12    0.70008812E-07
    8   -0.19518513E+03    0.00000000E+00    0.59162493E-08

Total Energy:                     -193.2756180689 H        -5259.2972 eV
Extrapolated to 0K:               -193.2756180689 H        -5259.2972 eV
Total Mermin free energy:         -193.2756180689 H        -5259.2972 eV
Force related energy:             -193.2756180689 H        -5259.2972 eV

Volume:                              0.111618E+05 au^3   0.165402E+04 A^3
Pressure:                           -0.399320E-07 au    -0.117484E+07 Pa
>> Charges saved for restart in charges.bin

total energy  -1.9327562E+02 H       energy change -1.6970394E-06 H
gradient norm  9.3692573E-04 H/a0    max. gradient  2.4310550E-04 H/a0
step length    3.3420001E-03 a0      max. step      6.9189670E-04 a0

--------------------------------------------------------------------------------

***  Geometry step: 153

 iSCC Total electronic   Diff electronic      SCC error    
    1   -0.19518513E+03    0.00000000E+00    0.17980170E-03
    2   -0.19518491E+03    0.22270430E-03    0.10276829E-03
    3   -0.19518491E+03   -0.27883061E-07    0.27426050E-04
    4   -0.19518491E+03   -0.47155027E-08    0.42354451E-05
    5   -0.19518491E+03   -0.13554313E-09    0.13135354E-05
    6   -0.19518491E+03   -0.65369932E-11    0.40104782E-06
    7   -0.19518491E+03   -0.56843419E-13    0.43115945E-07
    8   -0.19518491E+03    0.00000000E+00    0.72156623E-08

Total Energy:                     -193.2756194390 H        -5259.2972 eV
Extrapolated to 0K:               -193.2756194390 H        -5259.2972 eV
Total Mermin free energy:         -193.2756194390 H        -5259.2972 eV
Force related energy:             -193.2756194390 H        -5259.2972 eV

Volume:                              0.111619E+05 au^3   0.165403E+04 A^3
Pressure:                           -0.137028E-06 au    -0.403150E+07 Pa
>> Charges saved for restart in charges.bin

total energy  -1.9327562E+02 H       energy change -1.3701086E-06 H
gradient norm  9.4107270E-04 H/a0    max. gradient  3.4027973E-04 H/a0
step length    3.5538938E-03 a0      max. step      8.0823158E-04 a0

--------------------------------------------------------------------------------

***  Geometry step: 154

 iSCC Total electronic   Diff electronic      SCC error    
    1   -0.19518491E+03    0.00000000E+00    0.19471355E-03
    2   -0.19518473E+03    0.18161607E-03    0.11188047E-03
    3   -0.19518473E+03   -0.27067216E-07    0.28620787E-04
    4   -0.19518473E+03   -0.46982223E-08    0.45156455E-05
    5   -0.19518473E+03   -0.13960744E-09    0.15719456E-05
    6   -0.19518473E+03   -0.66222583E-11    0.43089306E-06
    7   -0.19518473E+03   -0.28421709E-13    0.29294839E-07
    8   -0.19518473E+03   -0.56843419E-13    0.68680048E-08

Total Energy:                     -193.2756209779 H        -5259.2972 eV
Extrapolated to 0K:               -193.2756209779 H        -5259.2972 eV
Total Mermin free energy:         -193.2756209779 H        -5259.2972 eV
Force related energy:             -193.2756209779 H        -5259.2972 eV

Volume:                              0.111618E+05 au^3   0.165401E+04 A^3
Pressure:                           -0.239626E-06 au    -0.705003E+07 Pa
>> Charges saved for restart in charges.bin

total energy  -1.9327562E+02 H       energy change -1.5388950E-06 H
gradient norm  1.0896804E-03 H/a0    max. gradient  3.6575079E-04 H/a0
step length    4.3750629E-03 a0      max. step      1.1197010E-03 a0

--------------------------------------------------------------------------------

***  Geometry step: 155

 iSCC Total electronic   Diff electronic      SCC error    
    1   -0.19518473E+03    0.00000000E+00    0.28078738E-03
    2   -0.19518476E+03   -0.30190576E-04    0.16348738E-03
    3   -0.19518476E+03   -0.78953292E-07    0.45392574E-04
    4   -0.19518476E+03   -0.13012311E-07    0.68222555E-05
    5   -0.19518476E+03   -0.34663117E-09    0.21561821E-05
    6   -0.19518476E+03   -0.20406787E-10    0.68299571E-06
    7   -0.19518476E+03   -0.39790393E-12    0.61689544E-07
    8   -0.19518476E+03   -0.28421709E-13    0.96824819E-08

Total Energy:                     -193.2756232786 H        -5259.2973 eV
Extrapolated to 0K:               -193.2756232786 H        -5259.2973 eV
Total Mermin free energy:         -193.2756232786 H        -5259.2973 eV
Force related energy:             -193.2756232786 H        -5259.2973 eV

Volume:                              0.111607E+05 au^3   0.165385E+04 A^3
Pressure:                           -0.167310E-06 au    -0.492242E+07 Pa
>> Charges saved for restart in charges.bin

total energy  -1.9327562E+02 H       energy change -2.3006778E-06 H
gradient norm  1.6071242E-03 H/a0    max. gradient  4.4073513E-04 H/a0
step length    1.8206744E-02 a0      max. step      4.2605898E-03 a0

--------------------------------------------------------------------------------

***  Geometry step: 156

 iSCC Total electronic   Diff electronic      SCC error    
    1   -0.19518476E+03    0.00000000E+00    0.18782078E-03
    2   -0.19518484E+03   -0.75752039E-04    0.58419153E-04
    3   -0.19518484E+03   -0.23296366E-07    0.18252970E-04
    4   -0.19518484E+03   -0.28762202E-08    0.29482341E-05
    5   -0.19518484E+03   -0.69348971E-10    0.68150956E-06
    6   -0.19518484E+03   -0.47748472E-11    0.23180625E-06
    7   -0.19518484E+03   -0.25579538E-12    0.51318457E-07
    8   -0.19518484E+03    0.00000000E+00    0.61858358E-08

Total Energy:                     -193.2756254379 H        -5259.2974 eV
Extrapolated to 0K:               -193.2756254379 H        -5259.2974 eV
Total Mermin free energy:         -193.2756254379 H        -5259.2974 eV
Force related energy:             -193.2756254379 H        -5259.2974 eV

Volume:                              0.111605E+05 au^3   0.165381E+04 A^3
Pressure:                           -0.125206E-06 au    -0.368368E+07 Pa
>> Charges saved for restart in charges.bin

total energy  -1.9327563E+02 H       energy change -2.1593373E-06 H
gradient norm  1.3476492E-03 H/a0    max. gradient  2.8636819E-04 H/a0
step length    6.2637228E-03 a0      max. step      1.6096918E-03 a0

--------------------------------------------------------------------------------

***  Geometry step: 157

 iSCC Total electronic   Diff electronic      SCC error    
    1   -0.19518484E+03    0.00000000E+00    0.59952544E-03
    2   -0.19518516E+03   -0.32435349E-03    0.33460833E-03
    3   -0.19518516E+03   -0.35222192E-06    0.10972429E-03
    4   -0.19518516E+03   -0.40361755E-07    0.11881282E-04
    5   -0.19518516E+03   -0.12146870E-08    0.35288198E-05
    6   -0.19518516E+03   -0.84014573E-10    0.11883008E-05
    7   -0.19518516E+03   -0.19042545E-11    0.20938419E-06
    8   -0.19518516E+03   -0.14210855E-12    0.23989871E-07
    9   -0.19518516E+03    0.85265128E-13    0.64607906E-08

Total Energy:                     -193.2756302397 H        -5259.2975 eV
Extrapolated to 0K:               -193.2756302397 H        -5259.2975 eV
Total Mermin free energy:         -193.2756302397 H        -5259.2975 eV
Force related energy:             -193.2756302397 H        -5259.2975 eV

Volume:                              0.111604E+05 au^3   0.165380E+04 A^3
Pressure:                            0.505043E-08 au     0.148589E+06 Pa
>> Charges saved for restart in charges.bin

total energy  -1.9327563E+02 H       energy change -4.8018147E-06 H
gradient norm  9.0549145E-04 H/a0    max. gradient  1.9432820E-04 H/a0
step length    2.2461144E-02 a0      max. step      5.4318762E-03 a0

--------------------------------------------------------------------------------

***  Geometry step: 158

 iSCC Total electronic   Diff electronic      SCC error    
    1   -0.19518516E+03    0.00000000E+00    0.17387736E-03
    2   -0.19518529E+03   -0.12399711E-03    0.10159951E-03
    3   -0.19518529E+03   -0.16478367E-07    0.28193690E-04
    4   -0.19518529E+03   -0.27072247E-08    0.18586848E-05
    5   -0.19518529E+03   -0.84014573E-10    0.21612524E-06
    6   -0.19518529E+03   -0.38653525E-11    0.59842703E-07
    7   -0.19518529E+03   -0.28421709E-13    0.13644103E-07
    8   -0.19518529E+03    0.28421709E-13    0.31140366E-08

Total Energy:                     -193.2756311685 H        -5259.2975 eV
Extrapolated to 0K:               -193.2756311685 H        -5259.2975 eV
Total Mermin free energy:         -193.2756311685 H        -5259.2975 eV
Force related energy:             -193.2756311685 H        -5259.2975 eV

Volume:                              0.111602E+05 au^3   0.165378E+04 A^3
Pressure:                            0.798294E-07 au     0.234866E+07 Pa
>> Charges saved for restart in charges.bin

total energy  -1.9327563E+02 H       energy change -9.2877096E-07 H
gradient norm  7.8516116E-04 H/a0    max. gradient  2.5192859E-04 H/a0
step length    3.1635051E-03 a0      max. step      7.9331631E-04 a0

--------------------------------------------------------------------------------

***  Geometry step: 159

 iSCC Total electronic   Diff electronic      SCC error    
    1   -0.19518529E+03    0.00000000E+00    0.25146514E-03
    2   -0.19518530E+03   -0.12439146E-04    0.14393933E-03
    3   -0.19518530E+03   -0.68920968E-07    0.44434967E-04
    4   -0.19518530E+03   -0.10067538E-07    0.32675224E-05
    5   -0.19518530E+03   -0.22160407E-09    0.81915884E-06
    6   -0.19518530E+03   -0.11965540E-10    0.27914662E-06
    7   -0.19518530E+03   -0.31263880E-12    0.64566114E-07
    8   -0.19518530E+03    0.00000000E+00    0.12454665E-07
    9   -0.19518530E+03   -0.28421709E-13    0.20947182E-08

Total Energy:                     -193.2756323539 H        -5259.2975 eV
Extrapolated to 0K:               -193.2756323539 H        -5259.2975 eV
Total Mermin free energy:         -193.2756323539 H        -5259.2975 eV
Force related energy:             -193.2756323539 H        -5259.2975 eV

Volume:                              0.111591E+05 au^3   0.165361E+04 A^3
Pressure:                            0.116046E-06 au     0.341418E+07 Pa
>> Charges saved for restart in charges.bin

total energy  -1.9327563E+02 H       energy change -1.1854342E-06 H
gradient norm  7.0791031E-04 H/a0    max. gradient  1.9764490E-04 H/a0
step length    1.8465519E-02 a0      max. step      3.4155047E-03 a0

--------------------------------------------------------------------------------

***  Geometry step: 160

 iSCC Total electronic   Diff electronic      SCC error    
    1   -0.19518530E+03    0.00000000E+00    0.65905623E-04
    2   -0.19518524E+03    0.56819888E-04    0.38315203E-04
    3   -0.19518524E+03   -0.37492782E-08    0.98009760E-05
    4   -0.19518524E+03   -0.71423756E-09    0.10077323E-05
    5   -0.19518524E+03   -0.15347723E-10    0.25557817E-06
    6   -0.19518524E+03   -0.65369932E-12    0.86410414E-07
    7   -0.19518524E+03   -0.28421709E-13    0.13417130E-07
    8   -0.19518524E+03   -0.85265128E-13    0.20402124E-08

Total Energy:                     -193.2756328275 H        -5259.2976 eV
Extrapolated to 0K:               -193.2756328275 H        -5259.2976 eV
Total Mermin free energy:         -193.2756328275 H        -5259.2976 eV
Force related energy:             -193.2756328275 H        -5259.2976 eV

Volume:                              0.111592E+05 au^3   0.165363E+04 A^3
Pressure:                            0.105916E-06 au     0.311615E+07 Pa
>> Charges saved for restart in charges.bin

total energy  -1.9327563E+02 H       energy change -4.7351622E-07 H
gradient norm  5.8941565E-04 H/a0    max. gradient  9.9644727E-05 H/a0
step length    1.0103303E-03 a0      max. step      2.0608671E-04 a0

Geometry converged

--------------------------------------------------------------------------------
DFTB+ running times                          cpu [s]             wall clock [s]
--------------------------------------------------------------------------------
Pre-SCC initialisation                 +       5.75 (  0.2%)       2.60 (  0.8%)
SCC                                    +    2284.19 ( 92.7%)     298.47 ( 91.0%)
Post-SCC processing                    +     172.73 (  7.0%)      26.98 (  8.2%)
--------------------------------------------------------------------------------
Missing                                +       0.18 (  0.0%)       0.01 (  0.0%)
Total                                  =    2462.85 (100.0%)     328.06 (100.0%)
--------------------------------------------------------------------------------
