|===============================================================================
|
|  DFTB+ release 24.1
|
|  Copyright (C) 2006 - 2024  DFTB+ developers group
|
|===============================================================================
|
|  When publishing results obtained with DFTB+, please cite the following
|  reference:
|
|  * DFTB+, a software package for efficient approximate density functional
|    theory based atomistic simulations, J. Chem. Phys. 152, 124101 (2020).
|    [doi: 10.1063/1.5143190]
|
|  You should also cite additional publications crediting the parametrization
|  data you use. Please consult the documentation of the SK-files for the
|  references.
|
|===============================================================================

Reading input file 'dftb_in.hsd'
Parser version: 14

--------------------------------------------------------------------------------
Reading SK-files:
./SKFiles/Si-Si.skf
./SKFiles/Si-Ge.skf
./SKFiles/Si-O.skf
./SKFiles/Ge-Ge.skf
./SKFiles/Ge-O.skf
./SKFiles/O-O.skf
Done.


Processed input in HSD format written to 'dftb_pin.hsd'

Starting initialization...
--------------------------------------------------------------------------------
WARNING!
-> Dipole printed for extended system : value printed is not well defined
MPI processes:               1
OpenMP threads:              8
BLACS orbital grid size:     1 x 1
BLACS atom grid size:        1 x 1
Chosen random seed:          155259208
Current stacksize:           unlimited
Mode:                        Static calculation
Self consistent charges:     Yes
SCC-tolerance:                 0.100000E-07
Max. scc iterations:                    500
Shell resolved Hubbard:      No
Spin polarisation:           No
Nr. of up electrons:           192.000000
Nr. of down electrons:         192.000000
Periodic boundaries:         Yes
Electronic solver:           Relatively robust
Mixer:                       Broyden mixer
Mixing parameter:                  0.200000
Maximal SCC-cycles:                     500
Nr. of chrg. vec. in memory:            500
Electronic temperature:              0.100000E-07 H      0.272114E-06 eV
Initial charges:             Set automatically (system chrg:   0.000E+00)
Included shells:            Si:  s, p, d
                            Ge:  s, p, d
                             O:  s, p
K-points and weights:           1:  0.500000  0.500000  0.500000     1.000000

K-points in absolute space:     1:  0.025319  0.017606  0.037774

Extra options:
                             Mulliken analysis
Force type                   original

--------------------------------------------------------------------------------

***  Geometry step: 0

 iSCC Total electronic   Diff electronic      SCC error    
    1    0.00000000E+00    0.00000000E+00    0.14260720E+01
    2   -0.19732538E+03   -0.19732538E+03    0.96691783E+00
    3   -0.19766815E+03   -0.34276853E+00    0.39288906E-01
    4   -0.19795689E+03   -0.28873914E+00    0.23427531E-01
    5   -0.19795845E+03   -0.15581229E-02    0.36650150E-02
    6   -0.19795856E+03   -0.10748135E-03    0.12637085E-02
    7   -0.19795856E+03   -0.24332210E-05    0.26625831E-03
    8   -0.19795856E+03   -0.54729617E-06    0.37408001E-04
    9   -0.19795856E+03   -0.28609179E-07    0.16153498E-04
   10   -0.19795856E+03   -0.12983037E-09    0.22191632E-05
   11   -0.19795856E+03   -0.62243544E-10    0.14764113E-06
   12   -0.19795856E+03   -0.27284841E-11    0.77841367E-07
   13   -0.19795856E+03    0.28421709E-13    0.11487977E-07
   14   -0.19795856E+03    0.28421709E-13    0.29438412E-08

Total Energy:                     -190.4243399020 H        -5181.7099 eV
Extrapolated to 0K:               -190.4243399020 H        -5181.7099 eV
Total Mermin free energy:         -190.4243399020 H        -5181.7099 eV
Force related energy:             -190.4243399020 H        -5181.7099 eV

Volume:                              0.913789E+04 au^3   0.135410E+04 A^3
Pressure:                            0.249581E-02 au     0.734293E+11 Pa
>> Charges saved for restart in charges.bin

total energy  -1.9042434E+02 H       energy change -1.9042434E+02 H
gradient norm  2.3467740E+00 H/a0    max. gradient  1.3920385E+00 H/a0
step length    0.0000000E+00 a0      max. step      0.0000000E+00 a0

--------------------------------------------------------------------------------

***  Geometry step: 1

 iSCC Total electronic   Diff electronic      SCC error    
    1   -0.19795856E+03    0.00000000E+00    0.14425681E+00
    2   -0.19726703E+03    0.69152558E+00    0.63823832E-01
    3   -0.19728347E+03   -0.16437137E-01    0.20292696E-01
    4   -0.19728635E+03   -0.28805600E-02    0.21153421E-02
    5   -0.19728643E+03   -0.77773627E-04    0.85487452E-03
    6   -0.19728643E+03   -0.40925127E-05    0.24078941E-03
    7   -0.19728643E+03   -0.14208049E-06    0.35700622E-04
    8   -0.19728643E+03   -0.20405110E-07    0.10485319E-04
    9   -0.19728643E+03   -0.98708597E-09    0.39859393E-05
   10   -0.19728643E+03   -0.15973001E-10    0.10030883E-05
   11   -0.19728643E+03   -0.68212103E-12    0.18595620E-06
   12   -0.19728643E+03   -0.28421709E-12    0.30832522E-07
   13   -0.19728643E+03   -0.85265128E-13    0.25595233E-08

Total Energy:                     -191.1732607735 H        -5202.0891 eV
Extrapolated to 0K:               -191.1732607735 H        -5202.0891 eV
Total Mermin free energy:         -191.1732607735 H        -5202.0891 eV
Force related energy:             -191.1732607735 H        -5202.0891 eV

Volume:                              0.972157E+04 au^3   0.144059E+04 A^3
Pressure:                            0.175743E-02 au     0.517054E+11 Pa
>> Charges saved for restart in charges.bin

total energy  -1.9117326E+02 H       energy change -7.4892087E-01 H
gradient norm  1.4998187E+00 H/a0    max. gradient  2.7231934E-01 H/a0
step length    8.0938662E-01 a0      max. step      4.8010473E-01 a0

--------------------------------------------------------------------------------

***  Geometry step: 2

 iSCC Total electronic   Diff electronic      SCC error    
    1   -0.19728643E+03    0.00000000E+00    0.48990918E-01
    2   -0.19693273E+03    0.35369952E+00    0.25565180E-01
    3   -0.19693611E+03   -0.33781283E-02    0.67046079E-02
    4   -0.19693678E+03   -0.67339679E-03    0.91571376E-03
    5   -0.19693680E+03   -0.19898675E-04    0.38667023E-03
    6   -0.19693681E+03   -0.11913417E-05    0.15676803E-03
    7   -0.19693681E+03   -0.20168699E-07    0.39372973E-04
    8   -0.19693681E+03   -0.26435885E-08    0.65767139E-05
    9   -0.19693681E+03   -0.28452973E-09    0.13708087E-05
   10   -0.19693681E+03   -0.44622084E-11    0.40384420E-06
   11   -0.19693681E+03   -0.56843419E-13    0.55121350E-07
   12   -0.19693681E+03    0.00000000E+00    0.13703549E-07
   13   -0.19693681E+03   -0.85265128E-13    0.14629076E-08

Total Energy:                     -191.9773258582 H        -5223.9688 eV
Extrapolated to 0K:               -191.9773258582 H        -5223.9688 eV
Total Mermin free energy:         -191.9773258582 H        -5223.9688 eV
Force related energy:             -191.9773258582 H        -5223.9688 eV

Volume:                              0.988443E+04 au^3   0.146472E+04 A^3
Pressure:                            0.128471E-02 au     0.377974E+11 Pa
>> Charges saved for restart in charges.bin

total energy  -1.9197733E+02 H       energy change -8.0406508E-01 H
gradient norm  9.3838727E-01 H/a0    max. gradient  1.6635231E-01 H/a0
step length    7.4911136E-01 a0      max. step      1.5042305E-01 a0

--------------------------------------------------------------------------------

***  Geometry step: 3

 iSCC Total electronic   Diff electronic      SCC error    
    1   -0.19693681E+03    0.00000000E+00    0.69200722E-01
    2   -0.19655285E+03    0.38395463E+00    0.30172133E-01
    3   -0.19655735E+03   -0.45025520E-02    0.10450856E-01
    4   -0.19655812E+03   -0.76785632E-03    0.11028949E-02
    5   -0.19655816E+03   -0.37192516E-04    0.32379328E-03
    6   -0.19655816E+03   -0.15625955E-05    0.13494135E-03
    7   -0.19655816E+03   -0.36627824E-07    0.37670561E-04
    8   -0.19655816E+03   -0.32259493E-08    0.92700808E-05
    9   -0.19655816E+03   -0.49899995E-09    0.20712970E-05
   10   -0.19655816E+03   -0.14296120E-10    0.39918381E-06
   11   -0.19655816E+03   -0.68212103E-12    0.98404063E-07
   12   -0.19655816E+03   -0.85265128E-13    0.21336417E-07
   13   -0.19655816E+03    0.28421709E-13    0.30193528E-08

Total Energy:                     -192.5050889751 H        -5238.3300 eV
Extrapolated to 0K:               -192.5050889751 H        -5238.3300 eV
Total Mermin free energy:         -192.5050889751 H        -5238.3300 eV
Force related energy:             -192.5050889751 H        -5238.3300 eV

Volume:                              0.100228E+05 au^3   0.148523E+04 A^3
Pressure:                            0.919126E-03 au     0.270416E+11 Pa
>> Charges saved for restart in charges.bin

total energy  -1.9250509E+02 H       energy change -5.2776312E-01 H
gradient norm  5.9050175E-01 H/a0    max. gradient  1.5501482E-01 H/a0
step length    7.7774968E-01 a0      max. step      1.8380323E-01 a0

--------------------------------------------------------------------------------

***  Geometry step: 4

 iSCC Total electronic   Diff electronic      SCC error    
    1   -0.19655816E+03    0.00000000E+00    0.64600858E-01
    2   -0.19616757E+03    0.39059026E+00    0.32378262E-01
    3   -0.19617014E+03   -0.25693196E-02    0.64900107E-02
    4   -0.19617072E+03   -0.58308868E-03    0.98367006E-03
    5   -0.19617075E+03   -0.31521399E-04    0.43791197E-03
    6   -0.19617075E+03   -0.13182705E-05    0.15016927E-03
    7   -0.19617076E+03   -0.28237935E-07    0.46149649E-04
    8   -0.19617076E+03   -0.25181066E-08    0.94000000E-05
    9   -0.19617076E+03   -0.40662940E-09    0.16702112E-05
   10   -0.19617076E+03   -0.10032863E-10    0.20952245E-06
   11   -0.19617076E+03   -0.79580786E-12    0.86121835E-07
   12   -0.19617076E+03    0.28421709E-13    0.21065096E-07
   13   -0.19617076E+03   -0.56843419E-13    0.23552724E-08

Total Energy:                     -192.8078497509 H        -5246.5685 eV
Extrapolated to 0K:               -192.8078497509 H        -5246.5685 eV
Total Mermin free energy:         -192.8078497509 H        -5246.5685 eV
Force related energy:             -192.8078497509 H        -5246.5685 eV

Volume:                              0.101620E+05 au^3   0.150585E+04 A^3
Pressure:                            0.641598E-03 au     0.188765E+11 Pa
>> Charges saved for restart in charges.bin

total energy  -1.9280785E+02 H       energy change -3.0276078E-01 H
gradient norm  4.5672020E-01 H/a0    max. gradient  2.5903610E-01 H/a0
step length    7.2625462E-01 a0      max. step      1.4474640E-01 a0

--------------------------------------------------------------------------------

***  Geometry step: 5

 iSCC Total electronic   Diff electronic      SCC error    
    1   -0.19617076E+03    0.00000000E+00    0.55309233E-01
    2   -0.19573556E+03    0.43519200E+00    0.34088915E-01
    3   -0.19573749E+03   -0.19266356E-02    0.63723913E-02
    4   -0.19573792E+03   -0.43077750E-03    0.12052606E-02
    5   -0.19573795E+03   -0.28990361E-04    0.41227029E-03
    6   -0.19573795E+03   -0.71480017E-06    0.14087613E-03
    7   -0.19573795E+03   -0.17699023E-07    0.41895508E-04
    8   -0.19573795E+03   -0.16721913E-08    0.75763171E-05
    9   -0.19573795E+03   -0.24323299E-09    0.15252150E-05
   10   -0.19573795E+03   -0.97770680E-11    0.20779833E-06
   11   -0.19573795E+03   -0.62527761E-12    0.40674176E-07
   12   -0.19573795E+03   -0.28421709E-13    0.83411971E-08

Total Energy:                     -192.9910585156 H        -5251.5539 eV
Extrapolated to 0K:               -192.9910585156 H        -5251.5539 eV
Total Mermin free energy:         -192.9910585156 H        -5251.5539 eV
Force related energy:             -192.9910585156 H        -5251.5539 eV

Volume:                              0.103656E+05 au^3   0.153602E+04 A^3
Pressure:                            0.387920E-03 au     0.114130E+11 Pa
>> Charges saved for restart in charges.bin

total energy  -1.9299106E+02 H       energy change -1.8320876E-01 H
gradient norm  3.1672777E-01 H/a0    max. gradient  1.7015741E-01 H/a0
step length    6.9942309E-01 a0      max. step      2.4217669E-01 a0

--------------------------------------------------------------------------------

***  Geometry step: 6

 iSCC Total electronic   Diff electronic      SCC error    
    1   -0.19573795E+03    0.00000000E+00    0.43715917E-01
    2   -0.19540815E+03    0.32980463E+00    0.24781735E-01
    3   -0.19540958E+03   -0.14300507E-02    0.46476367E-02
    4   -0.19540987E+03   -0.29205093E-03    0.85681021E-03
    5   -0.19540988E+03   -0.13571316E-04    0.32346639E-03
    6   -0.19540988E+03   -0.66705624E-06    0.12025239E-03
    7   -0.19540988E+03   -0.93409085E-08    0.31867477E-04
    8   -0.19540988E+03   -0.68965278E-09    0.62844444E-05
    9   -0.19540988E+03   -0.12752821E-09    0.12481272E-05
   10   -0.19540988E+03   -0.41211479E-11    0.14774553E-06
   11   -0.19540988E+03   -0.22737368E-12    0.33099519E-07
   12   -0.19540988E+03    0.00000000E+00    0.80700042E-08

Total Energy:                     -193.0772229681 H        -5253.8986 eV
Extrapolated to 0K:               -193.0772229681 H        -5253.8986 eV
Total Mermin free energy:         -193.0772229681 H        -5253.8986 eV
Force related energy:             -193.0772229681 H        -5253.8986 eV

Volume:                              0.105212E+05 au^3   0.155908E+04 A^3
Pressure:                            0.222362E-03 au     0.654212E+10 Pa
>> Charges saved for restart in charges.bin

total energy  -1.9307722E+02 H       energy change -8.6164453E-02 H
gradient norm  1.8785610E-01 H/a0    max. gradient  8.8585113E-02 H/a0
step length    5.6499189E-01 a0      max. step      1.2264621E-01 a0

--------------------------------------------------------------------------------

***  Geometry step: 7

 iSCC Total electronic   Diff electronic      SCC error    
    1   -0.19540988E+03    0.00000000E+00    0.42250863E-01
    2   -0.19520794E+03    0.20194192E+00    0.17452421E-01
    3   -0.19520893E+03   -0.98580236E-03    0.31233523E-02
    4   -0.19520910E+03   -0.17922792E-03    0.39840728E-03
    5   -0.19520911E+03   -0.55073997E-05    0.18820641E-03
    6   -0.19520911E+03   -0.21232322E-06    0.72080457E-04
    7   -0.19520911E+03   -0.56573413E-08    0.17541665E-04
    8   -0.19520911E+03   -0.33065817E-09    0.33553703E-05
    9   -0.19520911E+03   -0.45304205E-10    0.98399344E-06
   10   -0.19520911E+03   -0.25863756E-11    0.96624957E-07
   11   -0.19520911E+03   -0.14210855E-12    0.15966904E-07
   12   -0.19520911E+03    0.00000000E+00    0.32588514E-08

Total Energy:                     -193.1148404668 H        -5254.9222 eV
Extrapolated to 0K:               -193.1148404668 H        -5254.9222 eV
Total Mermin free energy:         -193.1148404668 H        -5254.9222 eV
Force related energy:             -193.1148404668 H        -5254.9222 eV

Volume:                              0.106108E+05 au^3   0.157236E+04 A^3
Pressure:                            0.130251E-03 au     0.383211E+10 Pa
>> Charges saved for restart in charges.bin

total energy  -1.9311484E+02 H       energy change -3.7617499E-02 H
gradient norm  1.5631138E-01 H/a0    max. gradient  7.7018380E-02 H/a0
step length    4.5963065E-01 a0      max. step      8.5186886E-02 a0

--------------------------------------------------------------------------------

***  Geometry step: 8

 iSCC Total electronic   Diff electronic      SCC error    
    1   -0.19520911E+03    0.00000000E+00    0.18734218E-01
    2   -0.19510328E+03    0.10582917E+00    0.78062715E-02
    3   -0.19510366E+03   -0.37365557E-03    0.18898230E-02
    4   -0.19510372E+03   -0.61344830E-04    0.29522085E-03
    5   -0.19510372E+03   -0.18535362E-05    0.69138127E-04
    6   -0.19510372E+03   -0.90429609E-07    0.21690057E-04
    7   -0.19510372E+03   -0.39085251E-08    0.75769386E-05
    8   -0.19510372E+03   -0.17681145E-09    0.21610674E-05
    9   -0.19510372E+03   -0.10942358E-10    0.59190360E-06
   10   -0.19510372E+03   -0.11368684E-11    0.86709649E-07
   11   -0.19510372E+03   -0.85265128E-13    0.13262885E-07
   12   -0.19510372E+03   -0.28421709E-13    0.24812192E-08

Total Energy:                     -193.1375973480 H        -5255.5414 eV
Extrapolated to 0K:               -193.1375973480 H        -5255.5414 eV
Total Mermin free energy:         -193.1375973480 H        -5255.5414 eV
Force related energy:             -193.1375973480 H        -5255.5414 eV

Volume:                              0.106680E+05 au^3   0.158083E+04 A^3
Pressure:                            0.778735E-04 au     0.229112E+10 Pa
>> Charges saved for restart in charges.bin

total energy  -1.9313760E+02 H       energy change -2.2756881E-02 H
gradient norm  1.1309513E-01 H/a0    max. gradient  2.8671066E-02 H/a0
step length    3.5363845E-01 a0      max. step      7.0441514E-02 a0

--------------------------------------------------------------------------------

***  Geometry step: 9

 iSCC Total electronic   Diff electronic      SCC error    
    1   -0.19510372E+03    0.00000000E+00    0.21489700E-01
    2   -0.19508624E+03    0.17480714E-01    0.12505090E-01
    3   -0.19508653E+03   -0.28844870E-03    0.33853301E-02
    4   -0.19508657E+03   -0.45729919E-04    0.38358789E-03
    5   -0.19508657E+03   -0.17121930E-05    0.10536821E-03
    6   -0.19508657E+03   -0.19284806E-06    0.34577297E-04
    7   -0.19508657E+03   -0.28889815E-08    0.72569304E-05
    8   -0.19508657E+03   -0.94104280E-10    0.11374658E-05
    9   -0.19508657E+03   -0.12420287E-10    0.18333815E-06
   10   -0.19508657E+03   -0.13358203E-11    0.53263704E-07
   11   -0.19508657E+03   -0.11368684E-12    0.12474202E-07
   12   -0.19508657E+03    0.00000000E+00    0.16837598E-08

Total Energy:                     -193.1573906257 H        -5256.0800 eV
Extrapolated to 0K:               -193.1573906257 H        -5256.0800 eV
Total Mermin free energy:         -193.1573906257 H        -5256.0800 eV
Force related energy:             -193.1573906257 H        -5256.0800 eV

Volume:                              0.106909E+05 au^3   0.158423E+04 A^3
Pressure:                            0.586646E-04 au     0.172597E+10 Pa
>> Charges saved for restart in charges.bin

total energy  -1.9315739E+02 H       energy change -1.9793278E-02 H
gradient norm  9.6579395E-02 H/a0    max. gradient  2.0193886E-02 H/a0
step length    3.4109786E-01 a0      max. step      6.9645362E-02 a0

--------------------------------------------------------------------------------

***  Geometry step: 10

 iSCC Total electronic   Diff electronic      SCC error    
    1   -0.19508657E+03    0.00000000E+00    0.31437679E-01
    2   -0.19512958E+03   -0.43006944E-01    0.18157370E-01
    3   -0.19513010E+03   -0.51912089E-03    0.28489280E-02
    4   -0.19513021E+03   -0.11255871E-03    0.68622076E-03
    5   -0.19513022E+03   -0.58668184E-05    0.25422775E-03
    6   -0.19513022E+03   -0.20975938E-06    0.70457515E-04
    7   -0.19513022E+03   -0.65532220E-08    0.68624788E-05
    8   -0.19513022E+03   -0.41220005E-09    0.13441256E-05
    9   -0.19513022E+03   -0.33480774E-10    0.37227267E-06
   10   -0.19513022E+03   -0.33253400E-11    0.53953777E-07
   11   -0.19513022E+03   -0.14210855E-12    0.12315473E-07
   12   -0.19513022E+03   -0.56843419E-13    0.23615390E-08

Total Energy:                     -193.1769500299 H        -5256.6123 eV
Extrapolated to 0K:               -193.1769500299 H        -5256.6123 eV
Total Mermin free energy:         -193.1769500299 H        -5256.6123 eV
Force related energy:             -193.1769500299 H        -5256.6123 eV

Volume:                              0.106998E+05 au^3   0.158555E+04 A^3
Pressure:                            0.625754E-04 au     0.184103E+10 Pa
>> Charges saved for restart in charges.bin

total energy  -1.9317695E+02 H       energy change -1.9559404E-02 H
gradient norm  9.8789538E-02 H/a0    max. gradient  3.5544263E-02 H/a0
step length    4.3469239E-01 a0      max. step      7.4777332E-02 a0

--------------------------------------------------------------------------------

***  Geometry step: 11

 iSCC Total electronic   Diff electronic      SCC error    
    1   -0.19513022E+03    0.00000000E+00    0.21833192E-01
    2   -0.19518705E+03   -0.56834468E-01    0.12156646E-01
    3   -0.19518756E+03   -0.50777524E-03    0.33666588E-02
    4   -0.19518766E+03   -0.98441312E-04    0.76171138E-03
    5   -0.19518766E+03   -0.51297243E-05    0.26414036E-03
    6   -0.19518766E+03   -0.29903120E-06    0.77552254E-04
    7   -0.19518766E+03   -0.85682075E-08    0.99058137E-05
    8   -0.19518766E+03   -0.46574655E-09    0.15700379E-05
    9   -0.19518766E+03   -0.39818815E-10    0.30599175E-06
   10   -0.19518766E+03   -0.43200998E-11    0.65094402E-07
   11   -0.19518766E+03    0.00000000E+00    0.13648763E-07
   12   -0.19518766E+03   -0.11368684E-12    0.21772655E-08

Total Energy:                     -193.1876697313 H        -5256.9040 eV
Extrapolated to 0K:               -193.1876697313 H        -5256.9040 eV
Total Mermin free energy:         -193.1876697313 H        -5256.9040 eV
Force related energy:             -193.1876697313 H        -5256.9040 eV

Volume:                              0.106979E+05 au^3   0.158526E+04 A^3
Pressure:                            0.761204E-04 au     0.223954E+10 Pa
>> Charges saved for restart in charges.bin

total energy  -1.9318767E+02 H       energy change -1.0719701E-02 H
gradient norm  9.0560917E-02 H/a0    max. gradient  3.0062274E-02 H/a0
step length    3.1955753E-01 a0      max. step      4.5466619E-02 a0

--------------------------------------------------------------------------------

***  Geometry step: 12

 iSCC Total electronic   Diff electronic      SCC error    
    1   -0.19518766E+03    0.00000000E+00    0.15610953E-01
    2   -0.19521088E+03   -0.23218468E-01    0.94921691E-02
    3   -0.19521101E+03   -0.12373995E-03    0.21741165E-02
    4   -0.19521104E+03   -0.30876286E-04    0.51597946E-03
    5   -0.19521104E+03   -0.17637909E-05    0.16893274E-03
    6   -0.19521104E+03   -0.39326864E-07    0.33472217E-04
    7   -0.19521104E+03   -0.15936905E-08    0.26372184E-05
    8   -0.19521104E+03   -0.20935431E-09    0.84380133E-06
    9   -0.19521104E+03   -0.61106675E-11    0.21949444E-06
   10   -0.19521104E+03   -0.22737368E-12    0.19794026E-07
   11   -0.19521104E+03   -0.56843419E-13    0.30595486E-08

Total Energy:                     -193.1965182175 H        -5257.1447 eV
Extrapolated to 0K:               -193.1965182175 H        -5257.1447 eV
Total Mermin free energy:         -193.1965182175 H        -5257.1447 eV
Force related energy:             -193.1965182175 H        -5257.1447 eV

Volume:                              0.107154E+05 au^3   0.158786E+04 A^3
Pressure:                            0.777962E-04 au     0.228884E+10 Pa
>> Charges saved for restart in charges.bin

total energy  -1.9319652E+02 H       energy change -8.8484862E-03 H
gradient norm  7.4702017E-02 H/a0    max. gradient  2.1310650E-02 H/a0
step length    2.5009738E-01 a0      max. step      4.0800396E-02 a0

--------------------------------------------------------------------------------

***  Geometry step: 13

 iSCC Total electronic   Diff electronic      SCC error    
    1   -0.19521104E+03    0.00000000E+00    0.21805353E-01
    2   -0.19521570E+03   -0.46561099E-02    0.12797082E-01
    3   -0.19521588E+03   -0.18131779E-03    0.27128801E-02
    4   -0.19521592E+03   -0.47114327E-04    0.61774543E-03
    5   -0.19521593E+03   -0.25669856E-05    0.17848073E-03
    6   -0.19521593E+03   -0.69004983E-07    0.40818806E-04
    7   -0.19521593E+03   -0.20752680E-08    0.37985089E-05
    8   -0.19521593E+03   -0.28620661E-09    0.10038369E-05
    9   -0.19521593E+03   -0.11340262E-10    0.27436600E-06
   10   -0.19521593E+03   -0.54001248E-12    0.32499727E-07
   11   -0.19521593E+03    0.56843419E-13    0.66850654E-08

Total Energy:                     -193.2074400856 H        -5257.4419 eV
Extrapolated to 0K:               -193.2074400856 H        -5257.4419 eV
Total Mermin free energy:         -193.2074400856 H        -5257.4419 eV
Force related energy:             -193.2074400856 H        -5257.4419 eV

Volume:                              0.107618E+05 au^3   0.159473E+04 A^3
Pressure:                            0.705553E-04 au     0.207581E+10 Pa
>> Charges saved for restart in charges.bin

total energy  -1.9320744E+02 H       energy change -1.0921868E-02 H
gradient norm  6.5272896E-02 H/a0    max. gradient  1.5302194E-02 H/a0
step length    3.3835626E-01 a0      max. step      5.9708574E-02 a0

--------------------------------------------------------------------------------

***  Geometry step: 14

 iSCC Total electronic   Diff electronic      SCC error    
    1   -0.19521593E+03    0.00000000E+00    0.14140084E-01
    2   -0.19519370E+03    0.22229805E-01    0.81919319E-02
    3   -0.19519377E+03   -0.76493321E-04    0.17032425E-02
    4   -0.19519379E+03   -0.20224552E-04    0.40197303E-03
    5   -0.19519379E+03   -0.10445115E-05    0.15296582E-03
    6   -0.19519379E+03   -0.34528938E-07    0.27812871E-04
    7   -0.19519379E+03   -0.13173178E-08    0.26309382E-05
    8   -0.19519379E+03   -0.14242119E-09    0.84859752E-06
    9   -0.19519379E+03   -0.62811978E-11    0.25816584E-06
   10   -0.19519379E+03   -0.39790393E-12    0.28058937E-07
   11   -0.19519379E+03    0.85265128E-13    0.46749569E-08

Total Energy:                     -193.2142704065 H        -5257.6278 eV
Extrapolated to 0K:               -193.2142704065 H        -5257.6278 eV
Total Mermin free energy:         -193.2142704065 H        -5257.6278 eV
Force related energy:             -193.2142704065 H        -5257.6278 eV

Volume:                              0.108160E+05 au^3   0.160276E+04 A^3
Pressure:                            0.563104E-04 au     0.165671E+10 Pa
>> Charges saved for restart in charges.bin

total energy  -1.9321427E+02 H       energy change -6.8303209E-03 H
gradient norm  5.9363317E-02 H/a0    max. gradient  1.1804601E-02 H/a0
step length    2.7546271E-01 a0      max. step      4.7221791E-02 a0

--------------------------------------------------------------------------------

***  Geometry step: 15

 iSCC Total electronic   Diff electronic      SCC error    
    1   -0.19519379E+03    0.00000000E+00    0.93600681E-02
    2   -0.19516116E+03    0.32637872E-01    0.55076464E-02
    3   -0.19516120E+03   -0.47402395E-04    0.14598682E-02
    4   -0.19516121E+03   -0.10558041E-04    0.31216658E-03
    5   -0.19516122E+03   -0.59835082E-06    0.12213907E-03
    6   -0.19516122E+03   -0.20901041E-07    0.24308406E-04
    7   -0.19516122E+03   -0.83750251E-09    0.27347994E-05
    8   -0.19516122E+03   -0.81456619E-10    0.69131014E-06
    9   -0.19516122E+03   -0.41495696E-11    0.23130921E-06
   10   -0.19516122E+03   -0.28421709E-12    0.29239411E-07
   11   -0.19516122E+03    0.00000000E+00    0.41385340E-08

Total Energy:                     -193.2194970603 H        -5257.7700 eV
Extrapolated to 0K:               -193.2194970603 H        -5257.7700 eV
Total Mermin free energy:         -193.2194970603 H        -5257.7700 eV
Force related energy:             -193.2194970603 H        -5257.7700 eV

Volume:                              0.108731E+05 au^3   0.161123E+04 A^3
Pressure:                            0.380478E-04 au     0.111941E+10 Pa
>> Charges saved for restart in charges.bin

total energy  -1.9321950E+02 H       energy change -5.2266539E-03 H
gradient norm  5.1985049E-02 H/a0    max. gradient  9.0262907E-03 H/a0
step length    2.5898410E-01 a0      max. step      4.8689935E-02 a0

--------------------------------------------------------------------------------

***  Geometry step: 16

 iSCC Total electronic   Diff electronic      SCC error    
    1   -0.19516122E+03    0.00000000E+00    0.79030328E-02
    2   -0.19513773E+03    0.23489594E-01    0.43811582E-02
    3   -0.19513777E+03   -0.48648078E-04    0.13110334E-02
    4   -0.19513778E+03   -0.86026927E-05    0.28477433E-03
    5   -0.19513778E+03   -0.44683338E-06    0.11079365E-03
    6   -0.19513778E+03   -0.20369043E-07    0.26793058E-04
    7   -0.19513778E+03   -0.70087935E-09    0.28978704E-05
    8   -0.19513778E+03   -0.58747673E-10    0.41489734E-06
    9   -0.19513778E+03   -0.33821834E-11    0.11182094E-06
   10   -0.19513778E+03   -0.17053026E-12    0.25498667E-07
   11   -0.19513778E+03    0.56843419E-13    0.45021000E-08

Total Energy:                     -193.2242110820 H        -5257.8983 eV
Extrapolated to 0K:               -193.2242110820 H        -5257.8983 eV
Total Mermin free energy:         -193.2242110820 H        -5257.8983 eV
Force related energy:             -193.2242110820 H        -5257.8983 eV

Volume:                              0.109258E+05 au^3   0.161904E+04 A^3
Pressure:                            0.230490E-04 au     0.678126E+09 Pa
>> Charges saved for restart in charges.bin

total energy  -1.9322421E+02 H       energy change -4.7140217E-03 H
gradient norm  5.0277357E-02 H/a0    max. gradient  1.0610775E-02 H/a0
step length    2.6430288E-01 a0      max. step      5.1017602E-02 a0

--------------------------------------------------------------------------------

***  Geometry step: 17

 iSCC Total electronic   Diff electronic      SCC error    
    1   -0.19513778E+03    0.00000000E+00    0.89762198E-02
    2   -0.19513632E+03    0.14660957E-02    0.52337561E-02
    3   -0.19513637E+03   -0.53334840E-04    0.12983230E-02
    4   -0.19513638E+03   -0.83684698E-05    0.19308376E-03
    5   -0.19513638E+03   -0.46680668E-06    0.81656855E-04
    6   -0.19513638E+03   -0.23201835E-07    0.25755207E-04
    7   -0.19513638E+03   -0.50204108E-09    0.33761357E-05
    8   -0.19513638E+03   -0.39051429E-10    0.84113769E-06
    9   -0.19513638E+03   -0.20747848E-11    0.17000417E-06
   10   -0.19513638E+03   -0.22737368E-12    0.20468278E-07
   11   -0.19513638E+03   -0.11368684E-12    0.27510247E-08

Total Energy:                     -193.2289500765 H        -5258.0273 eV
Extrapolated to 0K:               -193.2289500765 H        -5258.0273 eV
Total Mermin free energy:         -193.2289500765 H        -5258.0273 eV
Force related energy:             -193.2289500765 H        -5258.0273 eV

Volume:                              0.109643E+05 au^3   0.162474E+04 A^3
Pressure:                            0.178464E-04 au     0.525058E+09 Pa
>> Charges saved for restart in charges.bin

total energy  -1.9322895E+02 H       energy change -4.7389945E-03 H
gradient norm  5.2515865E-02 H/a0    max. gradient  1.0920780E-02 H/a0
step length    2.6200588E-01 a0      max. step      4.9062830E-02 a0

--------------------------------------------------------------------------------

***  Geometry step: 18

 iSCC Total electronic   Diff electronic      SCC error    
    1   -0.19513638E+03    0.00000000E+00    0.14561465E-01
    2   -0.19515408E+03   -0.17703765E-01    0.85162969E-02
    3   -0.19515418E+03   -0.99070756E-04    0.22221381E-02
    4   -0.19515420E+03   -0.15079661E-04    0.20513085E-03
    5   -0.19515420E+03   -0.86382062E-06    0.39109760E-04
    6   -0.19515420E+03   -0.38133919E-07    0.10976533E-04
    7   -0.19515420E+03   -0.73265483E-09    0.23961000E-05
    8   -0.19515420E+03   -0.33395509E-10    0.91014446E-06
    9   -0.19515420E+03   -0.17337243E-11    0.32989067E-06
   10   -0.19515420E+03   -0.19895197E-12    0.61126566E-07
   11   -0.19515420E+03   -0.28421709E-13    0.61086238E-08

Total Energy:                     -193.2344188370 H        -5258.1761 eV
Extrapolated to 0K:               -193.2344188370 H        -5258.1761 eV
Total Mermin free energy:         -193.2344188370 H        -5258.1761 eV
Force related energy:             -193.2344188370 H        -5258.1761 eV

Volume:                              0.109972E+05 au^3   0.162961E+04 A^3
Pressure:                            0.208432E-04 au     0.613227E+09 Pa
>> Charges saved for restart in charges.bin

total energy  -1.9323442E+02 H       energy change -5.4687605E-03 H
gradient norm  5.2858459E-02 H/a0    max. gradient  1.0905718E-02 H/a0
step length    3.1905804E-01 a0      max. step      5.6858600E-02 a0

--------------------------------------------------------------------------------

***  Geometry step: 19

 iSCC Total electronic   Diff electronic      SCC error    
    1   -0.19515420E+03    0.00000000E+00    0.12392191E-01
    2   -0.19517411E+03   -0.19906851E-01    0.72404033E-02
    3   -0.19517421E+03   -0.10702321E-03    0.22227462E-02
    4   -0.19517423E+03   -0.13935604E-04    0.17354535E-03
    5   -0.19517423E+03   -0.73228316E-06    0.48442834E-04
    6   -0.19517423E+03   -0.40717907E-07    0.17794814E-04
    7   -0.19517423E+03   -0.10475389E-08    0.43418868E-05
    8   -0.19517423E+03   -0.37488235E-10    0.12814772E-05
    9   -0.19517423E+03   -0.25011104E-11    0.24556119E-06
   10   -0.19517423E+03   -0.34106051E-12    0.37299532E-07
   11   -0.19517423E+03   -0.56843419E-13    0.41169579E-08

Total Energy:                     -193.2391545004 H        -5258.3049 eV
Extrapolated to 0K:               -193.2391545004 H        -5258.3049 eV
Total Mermin free energy:         -193.2391545004 H        -5258.3049 eV
Force related energy:             -193.2391545004 H        -5258.3049 eV

Volume:                              0.110256E+05 au^3   0.163382E+04 A^3
Pressure:                            0.256169E-04 au     0.753674E+09 Pa
>> Charges saved for restart in charges.bin

total energy  -1.9323915E+02 H       energy change -4.7356634E-03 H
gradient norm  5.0449527E-02 H/a0    max. gradient  1.1520199E-02 H/a0
step length    3.1651246E-01 a0      max. step      6.1872346E-02 a0

--------------------------------------------------------------------------------

***  Geometry step: 20

 iSCC Total electronic   Diff electronic      SCC error    
    1   -0.19517423E+03    0.00000000E+00    0.95915268E-02
    2   -0.19518819E+03   -0.13959106E-01    0.48855503E-02
    3   -0.19518831E+03   -0.12778571E-03    0.16000895E-02
    4   -0.19518833E+03   -0.14710963E-04    0.30194585E-03
    5   -0.19518833E+03   -0.68983258E-06    0.84867669E-04
    6   -0.19518833E+03   -0.40581369E-07    0.25233987E-04
    7   -0.19518833E+03   -0.12624639E-08    0.45111086E-05
    8   -0.19518833E+03   -0.64318328E-10    0.97926950E-06
    9   -0.19518833E+03   -0.49453774E-11    0.26875109E-06
   10   -0.19518833E+03   -0.51159077E-12    0.36799602E-07
   11   -0.19518833E+03   -0.28421709E-13    0.41029917E-08

Total Energy:                     -193.2438289457 H        -5258.4321 eV
Extrapolated to 0K:               -193.2438289457 H        -5258.4321 eV
Total Mermin free energy:         -193.2438289457 H        -5258.4321 eV
Force related energy:             -193.2438289457 H        -5258.4321 eV

Volume:                              0.110587E+05 au^3   0.163873E+04 A^3
Pressure:                            0.280104E-04 au     0.824093E+09 Pa
>> Charges saved for restart in charges.bin

total energy  -1.9324383E+02 H       energy change -4.6744452E-03 H
gradient norm  4.4920435E-02 H/a0    max. gradient  9.4719652E-03 H/a0
step length    3.3588295E-01 a0      max. step      6.6785316E-02 a0

--------------------------------------------------------------------------------

***  Geometry step: 21

 iSCC Total electronic   Diff electronic      SCC error    
    1   -0.19518833E+03    0.00000000E+00    0.10539991E-01
    2   -0.19519059E+03   -0.22619027E-02    0.48413074E-02
    3   -0.19519072E+03   -0.13169364E-03    0.19239133E-02
    4   -0.19519074E+03   -0.16361306E-04    0.39466532E-03
    5   -0.19519074E+03   -0.88386710E-06    0.11399797E-03
    6   -0.19519074E+03   -0.42955236E-07    0.26396710E-04
    7   -0.19519074E+03   -0.14210286E-08    0.37344187E-05
    8   -0.19519074E+03   -0.11124257E-09    0.70748176E-06
    9   -0.19519074E+03   -0.75885964E-11    0.16859154E-06
   10   -0.19519074E+03   -0.65369932E-12    0.35377069E-07
   11   -0.19519074E+03    0.28421709E-13    0.49394964E-08

Total Energy:                     -193.2480720486 H        -5258.5476 eV
Extrapolated to 0K:               -193.2480720486 H        -5258.5476 eV
Total Mermin free energy:         -193.2480720486 H        -5258.5476 eV
Force related energy:             -193.2480720486 H        -5258.5476 eV

Volume:                              0.110981E+05 au^3   0.164456E+04 A^3
Pressure:                            0.251696E-04 au     0.740516E+09 Pa
>> Charges saved for restart in charges.bin

total energy  -1.9324807E+02 H       energy change -4.2431029E-03 H
gradient norm  4.0491529E-02 H/a0    max. gradient  8.6106516E-03 H/a0
step length    3.3886554E-01 a0      max. step      6.4675066E-02 a0

--------------------------------------------------------------------------------

***  Geometry step: 22

 iSCC Total electronic   Diff electronic      SCC error    
    1   -0.19519074E+03    0.00000000E+00    0.89049999E-02
    2   -0.19518385E+03    0.68887658E-02    0.48721611E-02
    3   -0.19518391E+03   -0.62754032E-04    0.12680767E-02
    4   -0.19518392E+03   -0.10149244E-04    0.25930961E-03
    5   -0.19518393E+03   -0.55937494E-06    0.87178425E-04
    6   -0.19518393E+03   -0.23225141E-07    0.19531147E-04
    7   -0.19518393E+03   -0.66285111E-09    0.27212512E-05
    8   -0.19518393E+03   -0.63550942E-10    0.48366339E-06
    9   -0.19518393E+03   -0.38085091E-11    0.99345225E-07
   10   -0.19518393E+03   -0.19895197E-12    0.17903678E-07
   11   -0.19518393E+03    0.28421709E-13    0.26675835E-08

Total Energy:                     -193.2505519197 H        -5258.6151 eV
Extrapolated to 0K:               -193.2505519197 H        -5258.6151 eV
Total Mermin free energy:         -193.2505519197 H        -5258.6151 eV
Force related energy:             -193.2505519197 H        -5258.6151 eV

Volume:                              0.111327E+05 au^3   0.164970E+04 A^3
Pressure:                            0.201043E-04 au     0.591489E+09 Pa
>> Charges saved for restart in charges.bin

total energy  -1.9325055E+02 H       energy change -2.4798711E-03 H
gradient norm  3.5052777E-02 H/a0    max. gradient  7.7960759E-03 H/a0
step length    2.4438167E-01 a0      max. step      4.5117166E-02 a0

--------------------------------------------------------------------------------

***  Geometry step: 23

 iSCC Total electronic   Diff electronic      SCC error    
    1   -0.19518393E+03    0.00000000E+00    0.70518062E-02
    2   -0.19517306E+03    0.10861506E-01    0.38712273E-02
    3   -0.19517309E+03   -0.24350120E-04    0.69660630E-03
    4   -0.19517309E+03   -0.50469685E-05    0.10336954E-03
    5   -0.19517309E+03   -0.22764158E-06    0.40538365E-04
    6   -0.19517309E+03   -0.61905325E-08    0.11274919E-04
    7   -0.19517309E+03   -0.23072744E-09    0.19335726E-05
    8   -0.19517309E+03   -0.15290880E-10    0.40162867E-06
    9   -0.19517309E+03   -0.10516032E-11    0.90627528E-07
   10   -0.19517309E+03   -0.19895197E-12    0.16684700E-07
   11   -0.19517309E+03    0.00000000E+00    0.25180129E-08

Total Energy:                     -193.2518739323 H        -5258.6510 eV
Extrapolated to 0K:               -193.2518739323 H        -5258.6510 eV
Total Mermin free energy:         -193.2518739323 H        -5258.6510 eV
Force related energy:             -193.2518739323 H        -5258.6510 eV

Volume:                              0.111587E+05 au^3   0.165354E+04 A^3
Pressure:                            0.143901E-04 au     0.423371E+09 Pa
>> Charges saved for restart in charges.bin

total energy  -1.9325187E+02 H       energy change -1.3220126E-03 H
gradient norm  2.6662155E-02 H/a0    max. gradient  6.9705774E-03 H/a0
step length    1.3418996E-01 a0      max. step      2.6052645E-02 a0

--------------------------------------------------------------------------------

***  Geometry step: 24

 iSCC Total electronic   Diff electronic      SCC error    
    1   -0.19517309E+03    0.00000000E+00    0.45544322E-02
    2   -0.19516487E+03    0.82230906E-02    0.26494538E-02
    3   -0.19516489E+03   -0.21567249E-04    0.71072033E-03
    4   -0.19516490E+03   -0.36969748E-05    0.10674043E-03
    5   -0.19516490E+03   -0.11418655E-06    0.18951016E-04
    6   -0.19516490E+03   -0.64781602E-08    0.64498788E-05
    7   -0.19516490E+03   -0.10172130E-09    0.18010247E-05
    8   -0.19516490E+03   -0.33537617E-11    0.30654978E-06
    9   -0.19516490E+03   -0.45474735E-12    0.71177384E-07
   10   -0.19516490E+03   -0.85265128E-13    0.15695651E-07
   11   -0.19516490E+03    0.00000000E+00    0.17649726E-08

Total Energy:                     -193.2527817656 H        -5258.6758 eV
Extrapolated to 0K:               -193.2527817656 H        -5258.6758 eV
Total Mermin free energy:         -193.2527817656 H        -5258.6758 eV
Force related energy:             -193.2527817656 H        -5258.6758 eV

Volume:                              0.111788E+05 au^3   0.165653E+04 A^3
Pressure:                            0.975527E-05 au     0.287010E+09 Pa
>> Charges saved for restart in charges.bin

total energy  -1.9325278E+02 H       energy change -9.0783334E-04 H
gradient norm  2.2914098E-02 H/a0    max. gradient  5.9035542E-03 H/a0
step length    9.0745633E-02 a0      max. step      1.9594259E-02 a0

--------------------------------------------------------------------------------

***  Geometry step: 25

 iSCC Total electronic   Diff electronic      SCC error    
    1   -0.19516490E+03    0.00000000E+00    0.35957989E-02
    2   -0.19516252E+03    0.23771459E-02    0.20128509E-02
    3   -0.19516253E+03   -0.14542945E-04    0.64124433E-03
    4   -0.19516253E+03   -0.19313021E-05    0.63594645E-04
    5   -0.19516253E+03   -0.60993528E-07    0.71930463E-05
    6   -0.19516253E+03   -0.37725840E-08    0.27550578E-05
    7   -0.19516253E+03   -0.61248784E-10    0.92036678E-06
    8   -0.19516253E+03   -0.17337243E-11    0.29316491E-06
    9   -0.19516253E+03   -0.85265128E-13    0.74988675E-07
   10   -0.19516253E+03    0.28421709E-13    0.15848912E-07
   11   -0.19516253E+03   -0.56843419E-13    0.14617494E-08

Total Energy:                     -193.2534999950 H        -5258.6953 eV
Extrapolated to 0K:               -193.2534999950 H        -5258.6953 eV
Total Mermin free energy:         -193.2534999950 H        -5258.6953 eV
Force related energy:             -193.2534999950 H        -5258.6953 eV

Volume:                              0.111940E+05 au^3   0.165878E+04 A^3
Pressure:                            0.775921E-05 au     0.228284E+09 Pa
>> Charges saved for restart in charges.bin

total energy  -1.9325350E+02 H       energy change -7.1822943E-04 H
gradient norm  2.3191455E-02 H/a0    max. gradient  5.2704758E-03 H/a0
step length    7.0387568E-02 a0      max. step      1.8822722E-02 a0

--------------------------------------------------------------------------------

***  Geometry step: 26

 iSCC Total electronic   Diff electronic      SCC error    
    1   -0.19516253E+03    0.00000000E+00    0.66959489E-02
    2   -0.19516607E+03   -0.35318946E-02    0.38085096E-02
    3   -0.19516611E+03   -0.38818675E-04    0.11210768E-02
    4   -0.19516611E+03   -0.54274279E-05    0.10828686E-03
    5   -0.19516611E+03   -0.20082757E-06    0.35187521E-04
    6   -0.19516611E+03   -0.10277802E-07    0.13444210E-04
    7   -0.19516611E+03   -0.19167601E-09    0.26779340E-05
    8   -0.19516611E+03   -0.10743406E-10    0.55961368E-06
    9   -0.19516611E+03   -0.10516032E-11    0.10375722E-06
   10   -0.19516611E+03    0.56843419E-13    0.17098600E-07
   11   -0.19516611E+03    0.00000000E+00    0.20684054E-08

Total Energy:                     -193.2545961652 H        -5258.7251 eV
Extrapolated to 0K:               -193.2545961652 H        -5258.7251 eV
Total Mermin free energy:         -193.2545961652 H        -5258.7251 eV
Force related energy:             -193.2545961652 H        -5258.7251 eV

Volume:                              0.112191E+05 au^3   0.166250E+04 A^3
Pressure:                            0.754914E-05 au     0.222103E+09 Pa
>> Charges saved for restart in charges.bin

total energy  -1.9325460E+02 H       energy change -1.0961702E-03 H
gradient norm  2.4871427E-02 H/a0    max. gradient  5.7758456E-03 H/a0
step length    1.3425489E-01 a0      max. step      3.4817246E-02 a0

--------------------------------------------------------------------------------

***  Geometry step: 27

 iSCC Total electronic   Diff electronic      SCC error    
    1   -0.19516611E+03    0.00000000E+00    0.57719462E-02
    2   -0.19517133E+03   -0.52202792E-02    0.24839561E-02
    3   -0.19517136E+03   -0.26256903E-04    0.70609113E-03
    4   -0.19517136E+03   -0.39378734E-05    0.13737780E-03
    5   -0.19517136E+03   -0.17484925E-06    0.45539331E-04
    6   -0.19517136E+03   -0.65404038E-08    0.12199787E-04
    7   -0.19517136E+03   -0.14364332E-09    0.17907056E-05
    8   -0.19517136E+03   -0.11112888E-10    0.33203802E-06
    9   -0.19517136E+03   -0.11084467E-11    0.73780009E-07
   10   -0.19517136E+03   -0.28421709E-13    0.13440549E-07
   11   -0.19517136E+03   -0.28421709E-13    0.20787772E-08

Total Energy:                     -193.2554732657 H        -5258.7490 eV
Extrapolated to 0K:               -193.2554732657 H        -5258.7490 eV
Total Mermin free energy:         -193.2554732657 H        -5258.7490 eV
Force related energy:             -193.2554732657 H        -5258.7490 eV

Volume:                              0.112458E+05 au^3   0.166645E+04 A^3
Pressure:                            0.781285E-05 au     0.229862E+09 Pa
>> Charges saved for restart in charges.bin

total energy  -1.9325547E+02 H       energy change -8.7710048E-04 H
gradient norm  2.2650002E-02 H/a0    max. gradient  6.0714863E-03 H/a0
step length    1.4413871E-01 a0      max. step      3.6455183E-02 a0

--------------------------------------------------------------------------------

***  Geometry step: 28

 iSCC Total electronic   Diff electronic      SCC error    
    1   -0.19517136E+03    0.00000000E+00    0.48893715E-02
    2   -0.19517791E+03   -0.65449715E-02    0.23919626E-02
    3   -0.19517793E+03   -0.20957354E-04    0.73737742E-03
    4   -0.19517793E+03   -0.34316864E-05    0.13345717E-03
    5   -0.19517793E+03   -0.14396400E-06    0.42526721E-04
    6   -0.19517793E+03   -0.48482036E-08    0.97343814E-05
    7   -0.19517793E+03   -0.14631496E-09    0.14776253E-05
    8   -0.19517793E+03   -0.87538865E-11    0.31312645E-06
    9   -0.19517793E+03   -0.12505552E-11    0.87936293E-07
   10   -0.19517793E+03   -0.85265128E-13    0.15739619E-07
   11   -0.19517793E+03   -0.56843419E-13    0.22704469E-08

Total Energy:                     -193.2561966430 H        -5258.7687 eV
Extrapolated to 0K:               -193.2561966430 H        -5258.7687 eV
Total Mermin free energy:         -193.2561966430 H        -5258.7687 eV
Force related energy:             -193.2561966430 H        -5258.7687 eV

Volume:                              0.112697E+05 au^3   0.167000E+04 A^3
Pressure:                            0.898513E-05 au     0.264352E+09 Pa
>> Charges saved for restart in charges.bin

total energy  -1.9325620E+02 H       energy change -7.2337731E-04 H
gradient norm  1.8318868E-02 H/a0    max. gradient  3.6969150E-03 H/a0
step length    1.4149252E-01 a0      max. step      3.2748960E-02 a0

--------------------------------------------------------------------------------

***  Geometry step: 29

 iSCC Total electronic   Diff electronic      SCC error    
    1   -0.19517793E+03    0.00000000E+00    0.39863804E-02
    2   -0.19518038E+03   -0.24453092E-02    0.22630845E-02
    3   -0.19518039E+03   -0.11284721E-04    0.56787492E-03
    4   -0.19518039E+03   -0.18898336E-05    0.93184956E-04
    5   -0.19518039E+03   -0.79889816E-07    0.32156052E-04
    6   -0.19518039E+03   -0.24756446E-08    0.61018282E-05
    7   -0.19518039E+03   -0.72361672E-10    0.76527989E-06
    8   -0.19518039E+03   -0.51727511E-11    0.18819821E-06
    9   -0.19518039E+03   -0.45474735E-12    0.58723578E-07
   10   -0.19518039E+03   -0.56843419E-13    0.11266262E-07
   11   -0.19518039E+03    0.28421709E-13    0.11976549E-08

Total Energy:                     -193.2567100280 H        -5258.7826 eV
Extrapolated to 0K:               -193.2567100280 H        -5258.7826 eV
Total Mermin free energy:         -193.2567100280 H        -5258.7826 eV
Force related energy:             -193.2567100280 H        -5258.7826 eV

Volume:                              0.112875E+05 au^3   0.167263E+04 A^3
Pressure:                            0.878755E-05 au     0.258539E+09 Pa
>> Charges saved for restart in charges.bin

total energy  -1.9325671E+02 H       energy change -5.1338493E-04 H
gradient norm  1.6555699E-02 H/a0    max. gradient  4.8610560E-03 H/a0
step length    1.0543035E-01 a0      max. step      2.3452590E-02 a0

--------------------------------------------------------------------------------

***  Geometry step: 30

 iSCC Total electronic   Diff electronic      SCC error    
    1   -0.19518039E+03    0.00000000E+00    0.36991969E-02
    2   -0.19518035E+03    0.43560808E-04    0.21085781E-02
    3   -0.19518035E+03   -0.64040566E-05    0.40555427E-03
    4   -0.19518035E+03   -0.12376309E-05    0.60513960E-04
    5   -0.19518035E+03   -0.54868821E-07    0.21619192E-04
    6   -0.19518035E+03   -0.12345822E-08    0.42945224E-05
    7   -0.19518035E+03   -0.31434411E-10    0.57972541E-06
    8   -0.19518035E+03   -0.26716407E-11    0.11077130E-06
    9   -0.19518035E+03   -0.22737368E-12    0.35306062E-07
   10   -0.19518035E+03   -0.56843419E-13    0.54423861E-08

Total Energy:                     -193.2571013287 H        -5258.7933 eV
Extrapolated to 0K:               -193.2571013287 H        -5258.7933 eV
Total Mermin free energy:         -193.2571013287 H        -5258.7933 eV
Force related energy:             -193.2571013287 H        -5258.7933 eV

Volume:                              0.112994E+05 au^3   0.167439E+04 A^3
Pressure:                            0.797899E-05 au     0.234750E+09 Pa
>> Charges saved for restart in charges.bin

total energy  -1.9325710E+02 H       energy change -3.9130077E-04 H
gradient norm  1.5511818E-02 H/a0    max. gradient  5.1076371E-03 H/a0
step length    7.6838370E-02 a0      max. step      1.5744780E-02 a0

--------------------------------------------------------------------------------

***  Geometry step: 31

 iSCC Total electronic   Diff electronic      SCC error    
    1   -0.19518035E+03    0.00000000E+00    0.38402037E-02
    2   -0.19517767E+03    0.26871251E-02    0.21723651E-02
    3   -0.19517767E+03   -0.51582958E-05    0.41904642E-03
    4   -0.19517767E+03   -0.94591374E-06    0.54663744E-04
    5   -0.19517767E+03   -0.43207933E-07    0.18674239E-04
    6   -0.19517767E+03   -0.15922694E-08    0.51040647E-05
    7   -0.19517767E+03   -0.32088110E-10    0.80939117E-06
    8   -0.19517767E+03   -0.19610980E-11    0.15402960E-06
    9   -0.19517767E+03   -0.14210855E-12    0.38112979E-07
   10   -0.19517767E+03   -0.85265128E-13    0.65494499E-08

Total Energy:                     -193.2574569665 H        -5258.8030 eV
Extrapolated to 0K:               -193.2574569665 H        -5258.8030 eV
Total Mermin free energy:         -193.2574569665 H        -5258.8030 eV
Force related energy:             -193.2574569665 H        -5258.8030 eV

Volume:                              0.113095E+05 au^3   0.167589E+04 A^3
Pressure:                            0.614497E-05 au     0.180791E+09 Pa
>> Charges saved for restart in charges.bin

total energy  -1.9325746E+02 H       energy change -3.5563775E-04 H
gradient norm  1.4722873E-02 H/a0    max. gradient  4.2062767E-03 H/a0
step length    6.8679513E-02 a0      max. step      1.4455040E-02 a0

--------------------------------------------------------------------------------

***  Geometry step: 32

 iSCC Total electronic   Diff electronic      SCC error    
    1   -0.19517767E+03    0.00000000E+00    0.30806471E-02
    2   -0.19517507E+03    0.25988636E-02    0.17406747E-02
    3   -0.19517508E+03   -0.47969271E-05    0.40231058E-03
    4   -0.19517508E+03   -0.82264859E-06    0.44976269E-04
    5   -0.19517508E+03   -0.34289656E-07    0.15478990E-04
    6   -0.19517508E+03   -0.13303065E-08    0.37532040E-05
    7   -0.19517508E+03   -0.35754510E-10    0.97572178E-06
    8   -0.19517508E+03   -0.10516032E-11    0.20618499E-06
    9   -0.19517508E+03   -0.14210855E-12    0.36064233E-07
   10   -0.19517508E+03   -0.11368684E-12    0.73760149E-08

Total Energy:                     -193.2578394753 H        -5258.8134 eV
Extrapolated to 0K:               -193.2578394753 H        -5258.8134 eV
Total Mermin free energy:         -193.2578394753 H        -5258.8134 eV
Force related energy:             -193.2578394753 H        -5258.8134 eV

Volume:                              0.113185E+05 au^3   0.167723E+04 A^3
Pressure:                            0.438409E-05 au     0.128984E+09 Pa
>> Charges saved for restart in charges.bin

total energy  -1.9325784E+02 H       energy change -3.8250885E-04 H
gradient norm  1.5672539E-02 H/a0    max. gradient  3.2773729E-03 H/a0
step length    7.9736847E-02 a0      max. step      1.8375546E-02 a0

--------------------------------------------------------------------------------

***  Geometry step: 33

 iSCC Total electronic   Diff electronic      SCC error    
    1   -0.19517508E+03    0.00000000E+00    0.27062469E-02
    2   -0.19517338E+03    0.17019084E-02    0.13031316E-02
    3   -0.19517338E+03   -0.59612642E-05    0.38476927E-03
    4   -0.19517338E+03   -0.96880100E-06    0.43107912E-04
    5   -0.19517338E+03   -0.31325072E-07    0.15484855E-04
    6   -0.19517338E+03   -0.15952253E-08    0.37514925E-05
    7   -0.19517338E+03   -0.54626526E-10    0.98665982E-06
    8   -0.19517338E+03   -0.14495072E-11    0.21821696E-06
    9   -0.19517338E+03   -0.19895197E-12    0.43863362E-07
   10   -0.19517338E+03    0.28421709E-13    0.91125485E-08

Total Energy:                     -193.2583226648 H        -5258.8265 eV
Extrapolated to 0K:               -193.2583226648 H        -5258.8265 eV
Total Mermin free energy:         -193.2583226648 H        -5258.8265 eV
Force related energy:             -193.2583226648 H        -5258.8265 eV

Volume:                              0.113295E+05 au^3   0.167886E+04 A^3
Pressure:                            0.284527E-05 au     0.837108E+08 Pa
>> Charges saved for restart in charges.bin

total energy  -1.9325832E+02 H       energy change -4.8318943E-04 H
gradient norm  1.8014747E-02 H/a0    max. gradient  3.8999948E-03 H/a0
step length    1.0792907E-01 a0      max. step      2.5670695E-02 a0

--------------------------------------------------------------------------------

***  Geometry step: 34

 iSCC Total electronic   Diff electronic      SCC error    
    1   -0.19517338E+03    0.00000000E+00    0.38086930E-02
    2   -0.19517445E+03   -0.10669443E-02    0.15646230E-02
    3   -0.19517446E+03   -0.10027247E-04    0.45136762E-03
    4   -0.19517446E+03   -0.15824772E-05    0.96309793E-04
    5   -0.19517446E+03   -0.42078057E-07    0.27704517E-04
    6   -0.19517446E+03   -0.25002578E-08    0.69083881E-05
    7   -0.19517446E+03   -0.76170181E-10    0.13577729E-05
    8   -0.19517446E+03   -0.28137492E-11    0.27937065E-06
    9   -0.19517446E+03   -0.36948222E-12    0.47603249E-07
   10   -0.19517446E+03   -0.11368684E-12    0.80071505E-08

Total Energy:                     -193.2589718654 H        -5258.8442 eV
Extrapolated to 0K:               -193.2589718654 H        -5258.8442 eV
Total Mermin free energy:         -193.2589718654 H        -5258.8442 eV
Force related energy:             -193.2589718654 H        -5258.8442 eV

Volume:                              0.113438E+05 au^3   0.168098E+04 A^3
Pressure:                            0.226393E-05 au     0.666072E+08 Pa
>> Charges saved for restart in charges.bin

total energy  -1.9325897E+02 H       energy change -6.4920059E-04 H
gradient norm  2.0846061E-02 H/a0    max. gradient  4.1622493E-03 H/a0
step length    1.6113682E-01 a0      max. step      3.8208050E-02 a0

--------------------------------------------------------------------------------

***  Geometry step: 35

 iSCC Total electronic   Diff electronic      SCC error    
    1   -0.19517446E+03    0.00000000E+00    0.35296094E-02
    2   -0.19517842E+03   -0.39568964E-02    0.18977967E-02
    3   -0.19517843E+03   -0.12469577E-04    0.54261287E-03
    4   -0.19517843E+03   -0.19317110E-05    0.10430569E-03
    5   -0.19517843E+03   -0.51376929E-07    0.32183308E-04
    6   -0.19517843E+03   -0.26861926E-08    0.86055668E-05
    7   -0.19517843E+03   -0.51443294E-10    0.11243553E-05
    8   -0.19517843E+03   -0.40358827E-11    0.22510729E-06
    9   -0.19517843E+03   -0.31263880E-12    0.49550687E-07
   10   -0.19517843E+03    0.00000000E+00    0.63981505E-08

Total Energy:                     -193.2596319514 H        -5258.8622 eV
Extrapolated to 0K:               -193.2596319514 H        -5258.8622 eV
Total Mermin free energy:         -193.2596319514 H        -5258.8622 eV
Force related energy:             -193.2596319514 H        -5258.8622 eV

Volume:                              0.113595E+05 au^3   0.168331E+04 A^3
Pressure:                            0.273191E-05 au     0.803756E+08 Pa
>> Charges saved for restart in charges.bin

total energy  -1.9325963E+02 H       energy change -6.6008602E-04 H
gradient norm  1.9650769E-02 H/a0    max. gradient  5.7412953E-03 H/a0
step length    1.8461039E-01 a0      max. step      4.2330600E-02 a0

--------------------------------------------------------------------------------

***  Geometry step: 36

 iSCC Total electronic   Diff electronic      SCC error    
    1   -0.19517843E+03    0.00000000E+00    0.47715886E-02
    2   -0.19518432E+03   -0.58802304E-02    0.26633896E-02
    3   -0.19518433E+03   -0.12933740E-04    0.69032022E-03
    4   -0.19518433E+03   -0.20648093E-05    0.79139058E-04
    5   -0.19518433E+03   -0.60587467E-07    0.25847555E-04
    6   -0.19518433E+03   -0.26779219E-08    0.76653856E-05
    7   -0.19518433E+03   -0.41723069E-10    0.11751657E-05
    8   -0.19518433E+03   -0.30411229E-11    0.15721008E-06
    9   -0.19518433E+03   -0.34106051E-12    0.43647102E-07
   10   -0.19518433E+03    0.28421709E-13    0.56897722E-08

Total Energy:                     -193.2601821057 H        -5258.8771 eV
Extrapolated to 0K:               -193.2601821057 H        -5258.8771 eV
Total Mermin free energy:         -193.2601821057 H        -5258.8771 eV
Force related energy:             -193.2601821057 H        -5258.8771 eV

Volume:                              0.113729E+05 au^3   0.168529E+04 A^3
Pressure:                            0.421067E-05 au     0.123882E+09 Pa
>> Charges saved for restart in charges.bin

total energy  -1.9326018E+02 H       energy change -5.5015432E-04 H
gradient norm  1.6247383E-02 H/a0    max. gradient  6.7461830E-03 H/a0
step length    1.6959967E-01 a0      max. step      3.7588233E-02 a0

--------------------------------------------------------------------------------

***  Geometry step: 37

 iSCC Total electronic   Diff electronic      SCC error    
    1   -0.19518433E+03    0.00000000E+00    0.36674756E-02
    2   -0.19518859E+03   -0.42646668E-02    0.20828186E-02
    3   -0.19518860E+03   -0.92211843E-05    0.57283939E-03
    4   -0.19518861E+03   -0.14438417E-05    0.43336015E-04
    5   -0.19518861E+03   -0.45759322E-07    0.15746631E-04
    6   -0.19518861E+03   -0.20530138E-08    0.54937042E-05
    7   -0.19518861E+03   -0.40614623E-10    0.11692620E-05
    8   -0.19518861E+03   -0.16768809E-11    0.23917764E-06
    9   -0.19518861E+03   -0.17053026E-12    0.55208753E-07
   10   -0.19518861E+03    0.00000000E+00    0.91258459E-08

Total Energy:                     -193.2605909830 H        -5258.8882 eV
Extrapolated to 0K:               -193.2605909830 H        -5258.8882 eV
Total Mermin free energy:         -193.2605909830 H        -5258.8882 eV
Force related energy:             -193.2605909830 H        -5258.8882 eV

Volume:                              0.113833E+05 au^3   0.168683E+04 A^3
Pressure:                            0.542256E-05 au     0.159537E+09 Pa
>> Charges saved for restart in charges.bin

total energy  -1.9326059E+02 H       energy change -4.0887733E-04 H
gradient norm  1.4842742E-02 H/a0    max. gradient  5.6113092E-03 H/a0
step length    1.2909375E-01 a0      max. step      2.7471856E-02 a0

--------------------------------------------------------------------------------

***  Geometry step: 38

 iSCC Total electronic   Diff electronic      SCC error    
    1   -0.19518861E+03    0.00000000E+00    0.36680192E-02
    2   -0.19519020E+03   -0.15986416E-02    0.20993847E-02
    3   -0.19519021E+03   -0.84299347E-05    0.54855884E-03
    4   -0.19519021E+03   -0.14002389E-05    0.62800412E-04
    5   -0.19519021E+03   -0.52614325E-07    0.23276956E-04
    6   -0.19519021E+03   -0.25384281E-08    0.76064658E-05
    7   -0.19519021E+03   -0.64034111E-10    0.14583696E-05
    8   -0.19519021E+03   -0.27853275E-11    0.30460511E-06
    9   -0.19519021E+03   -0.22737368E-12    0.65958765E-07
   10   -0.19519021E+03   -0.85265128E-13    0.11693663E-07
   11   -0.19519021E+03   -0.28421709E-13    0.15061286E-08

Total Energy:                     -193.2610002216 H        -5258.8994 eV
Extrapolated to 0K:               -193.2610002216 H        -5258.8994 eV
Total Mermin free energy:         -193.2610002216 H        -5258.8994 eV
Force related energy:             -193.2610002216 H        -5258.8994 eV

Volume:                              0.113927E+05 au^3   0.168823E+04 A^3
Pressure:                            0.542853E-05 au     0.159713E+09 Pa
>> Charges saved for restart in charges.bin

total energy  -1.9326100E+02 H       energy change -4.0923858E-04 H
gradient norm  1.6284221E-02 H/a0    max. gradient  4.3264786E-03 H/a0
step length    1.1863074E-01 a0      max. step      2.4555873E-02 a0

--------------------------------------------------------------------------------

***  Geometry step: 39

 iSCC Total electronic   Diff electronic      SCC error    
    1   -0.19519021E+03    0.00000000E+00    0.37507150E-02
    2   -0.19518984E+03    0.37878688E-03    0.21952073E-02
    3   -0.19518985E+03   -0.13029176E-04    0.58228498E-03
    4   -0.19518985E+03   -0.20569279E-05    0.83485220E-04
    5   -0.19518985E+03   -0.97569171E-07    0.30563246E-04
    6   -0.19518985E+03   -0.39274823E-08    0.94532890E-05
    7   -0.19518985E+03   -0.70940587E-10    0.19124225E-05
    8   -0.19518985E+03   -0.42632564E-11    0.37870019E-06
    9   -0.19518985E+03   -0.42632564E-12    0.63399295E-07
   10   -0.19518985E+03    0.28421709E-13    0.11527841E-07
   11   -0.19518985E+03   -0.56843419E-13    0.18290320E-08

Total Energy:                     -193.2615089542 H        -5258.9132 eV
Extrapolated to 0K:               -193.2615089542 H        -5258.9132 eV
Total Mermin free energy:         -193.2615089542 H        -5258.9132 eV
Force related energy:             -193.2615089542 H        -5258.9132 eV

Volume:                              0.114025E+05 au^3   0.168968E+04 A^3
Pressure:                            0.455597E-05 au     0.134041E+09 Pa
>> Charges saved for restart in charges.bin

total energy  -1.9326151E+02 H       energy change -5.0873262E-04 H
gradient norm  1.8608922E-02 H/a0    max. gradient  4.0074675E-03 H/a0
step length    1.4519894E-01 a0      max. step      2.9447094E-02 a0

--------------------------------------------------------------------------------

***  Geometry step: 40

 iSCC Total electronic   Diff electronic      SCC error    
    1   -0.19518985E+03    0.00000000E+00    0.44537442E-02
    2   -0.19518796E+03    0.18920978E-02    0.20558179E-02
    3   -0.19518797E+03   -0.15229793E-04    0.60678604E-03
    4   -0.19518798E+03   -0.22325791E-05    0.88425861E-04
    5   -0.19518798E+03   -0.12104016E-06    0.33204153E-04
    6   -0.19518798E+03   -0.41617056E-08    0.95013024E-05
    7   -0.19518798E+03   -0.71167960E-10    0.22044031E-05
    8   -0.19518798E+03   -0.50306426E-11    0.37685217E-06
    9   -0.19518798E+03   -0.71054274E-12    0.57487962E-07
   10   -0.19518798E+03    0.00000000E+00    0.81443967E-08

Total Energy:                     -193.2620472717 H        -5258.9279 eV
Extrapolated to 0K:               -193.2620472717 H        -5258.9279 eV
Total Mermin free energy:         -193.2620472717 H        -5258.9279 eV
Force related energy:             -193.2620472717 H        -5258.9279 eV

Volume:                              0.114117E+05 au^3   0.169104E+04 A^3
Pressure:                            0.314753E-05 au     0.926036E+08 Pa
>> Charges saved for restart in charges.bin

total energy  -1.9326205E+02 H       energy change -5.3831750E-04 H
gradient norm  1.7550114E-02 H/a0    max. gradient  3.6463491E-03 H/a0
step length    1.5912391E-01 a0      max. step      3.4070610E-02 a0

--------------------------------------------------------------------------------

***  Geometry step: 41

 iSCC Total electronic   Diff electronic      SCC error    
    1   -0.19518798E+03    0.00000000E+00    0.44508788E-02
    2   -0.19518666E+03    0.13141680E-02    0.21762119E-02
    3   -0.19518668E+03   -0.15361299E-04    0.62318495E-03
    4   -0.19518668E+03   -0.20807206E-05    0.64163566E-04
    5   -0.19518668E+03   -0.96761966E-07    0.26100271E-04
    6   -0.19518668E+03   -0.35450967E-08    0.82482937E-05
    7   -0.19518668E+03   -0.63039352E-10    0.19649874E-05
    8   -0.19518668E+03   -0.32684966E-11    0.33971788E-06
    9   -0.19518668E+03   -0.56843419E-12    0.72659119E-07
   10   -0.19518668E+03    0.00000000E+00    0.10033603E-07
   11   -0.19518668E+03    0.56843419E-13    0.14065460E-08

Total Energy:                     -193.2625182338 H        -5258.9407 eV
Extrapolated to 0K:               -193.2625182338 H        -5258.9407 eV
Total Mermin free energy:         -193.2625182338 H        -5258.9407 eV
Force related energy:             -193.2625182338 H        -5258.9407 eV

Volume:                              0.114185E+05 au^3   0.169205E+04 A^3
Pressure:                            0.207767E-05 au     0.611270E+08 Pa
>> Charges saved for restart in charges.bin

total energy  -1.9326252E+02 H       energy change -4.7096211E-04 H
gradient norm  1.4526884E-02 H/a0    max. gradient  3.3204275E-03 H/a0
step length    1.5111246E-01 a0      max. step      3.4032070E-02 a0

--------------------------------------------------------------------------------

***  Geometry step: 42

 iSCC Total electronic   Diff electronic      SCC error    
    1   -0.19518668E+03    0.00000000E+00    0.29089412E-02
    2   -0.19518741E+03   -0.73398031E-03    0.15305319E-02
    3   -0.19518742E+03   -0.86021765E-05    0.41519239E-03
    4   -0.19518742E+03   -0.11224487E-05    0.37178804E-04
    5   -0.19518742E+03   -0.34618836E-07    0.91963301E-05
    6   -0.19518742E+03   -0.17335537E-08    0.35637693E-05
    7   -0.19518742E+03   -0.34020786E-10    0.83409905E-06
    8   -0.19518742E+03   -0.13073986E-11    0.17289504E-06
    9   -0.19518742E+03   -0.11368684E-12    0.40402698E-07
   10   -0.19518742E+03    0.00000000E+00    0.82932834E-08

Total Energy:                     -193.2628505294 H        -5258.9497 eV
Extrapolated to 0K:               -193.2628505294 H        -5258.9497 eV
Total Mermin free energy:         -193.2628505294 H        -5258.9497 eV
Force related energy:             -193.2628505294 H        -5258.9497 eV

Volume:                              0.114229E+05 au^3   0.169270E+04 A^3
Pressure:                            0.207958E-05 au     0.611834E+08 Pa
>> Charges saved for restart in charges.bin

total energy  -1.9326285E+02 H       energy change -3.3229554E-04 H
gradient norm  1.3467471E-02 H/a0    max. gradient  2.6339166E-03 H/a0
step length    1.1308120E-01 a0      max. step      2.5225943E-02 a0

--------------------------------------------------------------------------------

***  Geometry step: 43

 iSCC Total electronic   Diff electronic      SCC error    
    1   -0.19518742E+03    0.00000000E+00    0.35932002E-02
    2   -0.19518977E+03   -0.23449028E-02    0.19671396E-02
    3   -0.19518978E+03   -0.77469599E-05    0.53207788E-03
    4   -0.19518978E+03   -0.11904131E-05    0.50676188E-04
    5   -0.19518978E+03   -0.34108979E-07    0.10552175E-04
    6   -0.19518978E+03   -0.20903599E-08    0.38716719E-05
    7   -0.19518978E+03   -0.51755933E-10    0.92570224E-06
    8   -0.19518978E+03   -0.14779289E-11    0.27396147E-06
    9   -0.19518978E+03   -0.85265128E-13    0.52918110E-07
   10   -0.19518978E+03   -0.28421709E-13    0.99213717E-08

Total Energy:                     -193.2631794683 H        -5258.9587 eV
Extrapolated to 0K:               -193.2631794683 H        -5258.9587 eV
Total Mermin free energy:         -193.2631794683 H        -5258.9587 eV
Force related energy:             -193.2631794683 H        -5258.9587 eV

Volume:                              0.114281E+05 au^3   0.169347E+04 A^3
Pressure:                            0.252682E-05 au     0.743416E+08 Pa
>> Charges saved for restart in charges.bin

total energy  -1.9326318E+02 H       energy change -3.2893896E-04 H
gradient norm  1.3555350E-02 H/a0    max. gradient  3.3008668E-03 H/a0
step length    1.1281106E-01 a0      max. step      2.2775926E-02 a0

--------------------------------------------------------------------------------

***  Geometry step: 44

 iSCC Total electronic   Diff electronic      SCC error    
    1   -0.19518978E+03    0.00000000E+00    0.37254612E-02
    2   -0.19519350E+03   -0.37186998E-02    0.20835040E-02
    3   -0.19519350E+03   -0.86713581E-05    0.50083626E-03
    4   -0.19519351E+03   -0.15074875E-05    0.57121074E-04
    5   -0.19519351E+03   -0.53311084E-07    0.12173847E-04
    6   -0.19519351E+03   -0.30211424E-08    0.40291669E-05
    7   -0.19519351E+03   -0.82621909E-10    0.10002855E-05
    8   -0.19519351E+03   -0.23021585E-11    0.29637395E-06
    9   -0.19519351E+03   -0.19895197E-12    0.50313144E-07
   10   -0.19519351E+03    0.56843419E-13    0.75124840E-08

Total Energy:                     -193.2634924925 H        -5258.9672 eV
Extrapolated to 0K:               -193.2634924925 H        -5258.9672 eV
Total Mermin free energy:         -193.2634924925 H        -5258.9672 eV
Force related energy:             -193.2634924925 H        -5258.9672 eV

Volume:                              0.114343E+05 au^3   0.169439E+04 A^3
Pressure:                            0.352218E-05 au     0.103626E+09 Pa
>> Charges saved for restart in charges.bin

total energy  -1.9326349E+02 H       energy change -3.1302418E-04 H
gradient norm  1.3319929E-02 H/a0    max. gradient  3.2951570E-03 H/a0
step length    1.2959879E-01 a0      max. step      2.4612925E-02 a0

--------------------------------------------------------------------------------

***  Geometry step: 45

 iSCC Total electronic   Diff electronic      SCC error    
    1   -0.19519351E+03    0.00000000E+00    0.27586905E-02
    2   -0.19519610E+03   -0.25944626E-02    0.16784025E-02
    3   -0.19519611E+03   -0.61949852E-05    0.47628206E-03
    4   -0.19519611E+03   -0.10201544E-05    0.62785173E-04
    5   -0.19519611E+03   -0.43531571E-07    0.85597804E-05
    6   -0.19519611E+03   -0.24859617E-08    0.28768706E-05
    7   -0.19519611E+03   -0.62613026E-10    0.74126164E-06
    8   -0.19519611E+03   -0.13926638E-11    0.23955914E-06
    9   -0.19519611E+03   -0.28421709E-12    0.51580486E-07
   10   -0.19519611E+03    0.85265128E-13    0.65824057E-08

Total Energy:                     -193.2637486704 H        -5258.9742 eV
Extrapolated to 0K:               -193.2637486704 H        -5258.9742 eV
Total Mermin free energy:         -193.2637486704 H        -5258.9742 eV
Force related energy:             -193.2637486704 H        -5258.9742 eV

Volume:                              0.114400E+05 au^3   0.169523E+04 A^3
Pressure:                            0.412380E-05 au     0.121326E+09 Pa
>> Charges saved for restart in charges.bin

total energy  -1.9326375E+02 H       energy change -2.5617787E-04 H
gradient norm  1.2046581E-02 H/a0    max. gradient  3.3769450E-03 H/a0
step length    1.1445129E-01 a0      max. step      2.1895535E-02 a0

--------------------------------------------------------------------------------

***  Geometry step: 46

 iSCC Total electronic   Diff electronic      SCC error    
    1   -0.19519611E+03    0.00000000E+00    0.32227023E-02
    2   -0.19519804E+03   -0.19331278E-02    0.17144382E-02
    3   -0.19519805E+03   -0.80144272E-05    0.50647834E-03
    4   -0.19519805E+03   -0.12045734E-05    0.67854895E-04
    5   -0.19519805E+03   -0.62023901E-07    0.98654561E-05
    6   -0.19519805E+03   -0.31824356E-08    0.27690532E-05
    7   -0.19519805E+03   -0.62073013E-10    0.70058986E-06
    8   -0.19519805E+03   -0.15347723E-11    0.25135521E-06
    9   -0.19519805E+03   -0.85265128E-13    0.61851322E-07
   10   -0.19519805E+03   -0.28421709E-13    0.11150999E-07
   11   -0.19519805E+03   -0.11368684E-12    0.14016361E-08

Total Energy:                     -193.2640229003 H        -5258.9816 eV
Extrapolated to 0K:               -193.2640229003 H        -5258.9816 eV
Total Mermin free energy:         -193.2640229003 H        -5258.9816 eV
Force related energy:             -193.2640229003 H        -5258.9816 eV

Volume:                              0.114448E+05 au^3   0.169594E+04 A^3
Pressure:                            0.465687E-05 au     0.137010E+09 Pa
>> Charges saved for restart in charges.bin

total energy  -1.9326402E+02 H       energy change -2.7422994E-04 H
gradient norm  1.1624942E-02 H/a0    max. gradient  3.2217117E-03 H/a0
step length    1.2195120E-01 a0      max. step      2.4998526E-02 a0

--------------------------------------------------------------------------------

***  Geometry step: 47

 iSCC Total electronic   Diff electronic      SCC error    
    1   -0.19519805E+03    0.00000000E+00    0.34050470E-02
    2   -0.19519732E+03    0.73449230E-03    0.17988112E-02
    3   -0.19519732E+03   -0.64421163E-05    0.45813170E-03
    4   -0.19519732E+03   -0.95738295E-06    0.48753859E-04
    5   -0.19519732E+03   -0.55358925E-07    0.93854010E-05
    6   -0.19519732E+03   -0.27351348E-08    0.35268526E-05
    7   -0.19519732E+03   -0.32827074E-10    0.74168818E-06
    8   -0.19519732E+03   -0.93791641E-12    0.20130125E-06
    9   -0.19519732E+03   -0.85265128E-13    0.48567962E-07
   10   -0.19519732E+03    0.85265128E-13    0.61895866E-08

Total Energy:                     -193.2642626944 H        -5258.9882 eV
Extrapolated to 0K:               -193.2642626944 H        -5258.9882 eV
Total Mermin free energy:         -193.2642626944 H        -5258.9882 eV
Force related energy:             -193.2642626944 H        -5258.9882 eV

Volume:                              0.114488E+05 au^3   0.169654E+04 A^3
Pressure:                            0.436175E-05 au     0.128327E+09 Pa
>> Charges saved for restart in charges.bin

total energy  -1.9326426E+02 H       energy change -2.3979402E-04 H
gradient norm  1.2128726E-02 H/a0    max. gradient  2.7954157E-03 H/a0
step length    1.0512411E-01 a0      max. step      2.3705281E-02 a0

--------------------------------------------------------------------------------

***  Geometry step: 48

 iSCC Total electronic   Diff electronic      SCC error    
    1   -0.19519732E+03    0.00000000E+00    0.34805694E-02
    2   -0.19519507E+03    0.22546085E-02    0.20146814E-02
    3   -0.19519508E+03   -0.88059936E-05    0.48561017E-03
    4   -0.19519508E+03   -0.13215052E-05    0.55531989E-04
    5   -0.19519508E+03   -0.69080130E-07    0.15704075E-04
    6   -0.19519508E+03   -0.41312376E-08    0.55925768E-05
    7   -0.19519508E+03   -0.45162096E-10    0.12197724E-05
    8   -0.19519508E+03   -0.13926638E-11    0.26652643E-06
    9   -0.19519508E+03   -0.85265128E-13    0.49598445E-07
   10   -0.19519508E+03   -0.28421709E-13    0.73168769E-08

Total Energy:                     -193.2645136385 H        -5258.9950 eV
Extrapolated to 0K:               -193.2645136385 H        -5258.9950 eV
Total Mermin free energy:         -193.2645136385 H        -5258.9950 eV
Force related energy:             -193.2645136385 H        -5258.9950 eV

Volume:                              0.114521E+05 au^3   0.169703E+04 A^3
Pressure:                            0.340963E-05 au     0.100315E+09 Pa
>> Charges saved for restart in charges.bin

total energy  -1.9326451E+02 H       energy change -2.5094415E-04 H
gradient norm  1.1791062E-02 H/a0    max. gradient  2.4735977E-03 H/a0
step length    1.0600625E-01 a0      max. step      2.5541137E-02 a0

--------------------------------------------------------------------------------

***  Geometry step: 49

 iSCC Total electronic   Diff electronic      SCC error    
    1   -0.19519508E+03    0.00000000E+00    0.30069813E-02
    2   -0.19519308E+03    0.19981528E-02    0.16660241E-02
    3   -0.19519309E+03   -0.74699453E-05    0.40000521E-03
    4   -0.19519309E+03   -0.11786100E-05    0.57075442E-04
    5   -0.19519309E+03   -0.43806864E-07    0.11874346E-04
    6   -0.19519309E+03   -0.31193110E-08    0.42011327E-05
    7   -0.19519309E+03   -0.51414872E-10    0.11180893E-05
    8   -0.19519309E+03   -0.11937118E-11    0.25375243E-06
    9   -0.19519309E+03   -0.85265128E-13    0.44200464E-07
   10   -0.19519309E+03    0.28421709E-13    0.74195965E-08

Total Energy:                     -193.2647258675 H        -5259.0008 eV
Extrapolated to 0K:               -193.2647258675 H        -5259.0008 eV
Total Mermin free energy:         -193.2647258675 H        -5259.0008 eV
Force related energy:             -193.2647258675 H        -5259.0008 eV

Volume:                              0.114530E+05 au^3   0.169716E+04 A^3
Pressure:                            0.243172E-05 au     0.715437E+08 Pa
>> Charges saved for restart in charges.bin

total energy  -1.9326473E+02 H       energy change -2.1222903E-04 H
gradient norm  1.0723283E-02 H/a0    max. gradient  2.1589433E-03 H/a0
step length    8.0890347E-02 a0      max. step      2.0559852E-02 a0

--------------------------------------------------------------------------------

***  Geometry step: 50

 iSCC Total electronic   Diff electronic      SCC error    
    1   -0.19519309E+03    0.00000000E+00    0.26410247E-02
    2   -0.19519278E+03    0.31394609E-03    0.11469014E-02
    3   -0.19519278E+03   -0.54616561E-05    0.33005019E-03
    4   -0.19519278E+03   -0.83891547E-06    0.43971280E-04
    5   -0.19519278E+03   -0.20784057E-07    0.10396217E-04
    6   -0.19519278E+03   -0.15143087E-08    0.36627690E-05
    7   -0.19519278E+03   -0.37573500E-10    0.83364869E-06
    8   -0.19519278E+03   -0.10231815E-11    0.21962652E-06
    9   -0.19519278E+03   -0.28421709E-13    0.48581974E-07
   10   -0.19519278E+03   -0.56843419E-13    0.72089104E-08

Total Energy:                     -193.2649192067 H        -5259.0060 eV
Extrapolated to 0K:               -193.2649192067 H        -5259.0060 eV
Total Mermin free energy:         -193.2649192067 H        -5259.0060 eV
Force related energy:             -193.2649192067 H        -5259.0060 eV

Volume:                              0.114539E+05 au^3   0.169730E+04 A^3
Pressure:                            0.227963E-05 au     0.670691E+08 Pa
>> Charges saved for restart in charges.bin
[...]
Pressure:                           -0.139040E-07 au    -0.409069E+06 Pa
>> Charges saved for restart in charges.bin

total energy  -1.9327514E+02 H       energy change -4.6940499E-07 H
gradient norm  5.9612351E-04 H/a0    max. gradient  1.6304922E-04 H/a0
step length    1.4474119E-03 a0      max. step      3.0194185E-04 a0

--------------------------------------------------------------------------------

***  Geometry step: 167

 iSCC Total electronic   Diff electronic      SCC error    
    1   -0.19518296E+03    0.00000000E+00    0.21444181E-03
    2   -0.19518293E+03    0.30453374E-04    0.84589470E-04
    3   -0.19518293E+03   -0.37729052E-07    0.26564027E-04
    4   -0.19518293E+03   -0.54222937E-08    0.50408738E-05
    5   -0.19518293E+03   -0.14361490E-09    0.14428328E-05
    6   -0.19518293E+03   -0.11169732E-10    0.46568084E-06
    7   -0.19518293E+03   -0.31263880E-12    0.49647654E-07
    8   -0.19518293E+03   -0.85265128E-13    0.56381424E-08

Total Energy:                     -193.2751372119 H        -5259.2841 eV
Extrapolated to 0K:               -193.2751372119 H        -5259.2841 eV
Total Mermin free energy:         -193.2751372119 H        -5259.2841 eV
Force related energy:             -193.2751372119 H        -5259.2841 eV

Volume:                              0.112227E+05 au^3   0.166303E+04 A^3
Pressure:                           -0.583100E-07 au    -0.171554E+07 Pa
>> Charges saved for restart in charges.bin

total energy  -1.9327514E+02 H       energy change -1.1985479E-06 H
gradient norm  8.9928748E-04 H/a0    max. gradient  3.5255287E-04 H/a0
step length    8.1863968E-03 a0      max. step      1.7269936E-03 a0

--------------------------------------------------------------------------------

***  Geometry step: 168

 iSCC Total electronic   Diff electronic      SCC error    
    1   -0.19518293E+03    0.00000000E+00    0.15981802E-03
    2   -0.19518290E+03    0.24777498E-04    0.59974684E-04
    3   -0.19518290E+03   -0.25496007E-07    0.20843230E-04
    4   -0.19518290E+03   -0.34918628E-08    0.20004976E-05
    5   -0.19518290E+03   -0.61646688E-10    0.59761062E-06
    6   -0.19518290E+03   -0.32969183E-11    0.21868263E-06
    7   -0.19518290E+03    0.00000000E+00    0.38083166E-07
    8   -0.19518290E+03   -0.28421709E-13    0.55785208E-08

Total Energy:                     -193.2751386179 H        -5259.2841 eV
Extrapolated to 0K:               -193.2751386179 H        -5259.2841 eV
Total Mermin free energy:         -193.2751386179 H        -5259.2841 eV
Force related energy:             -193.2751386179 H        -5259.2841 eV

Volume:                              0.112228E+05 au^3   0.166305E+04 A^3
Pressure:                           -0.795942E-07 au    -0.234174E+07 Pa
>> Charges saved for restart in charges.bin

total energy  -1.9327514E+02 H       energy change -1.4059974E-06 H
gradient norm  1.0549045E-03 H/a0    max. gradient  3.5050422E-04 H/a0
step length    1.0897480E-02 a0      max. step      2.5486967E-03 a0

--------------------------------------------------------------------------------

***  Geometry step: 169

 iSCC Total electronic   Diff electronic      SCC error    
    1   -0.19518290E+03    0.00000000E+00    0.17312793E-03
    2   -0.19518308E+03   -0.17524089E-03    0.67598683E-04
    3   -0.19518308E+03   -0.28403264E-07    0.19932988E-04
    4   -0.19518308E+03   -0.36039580E-08    0.20245268E-05
    5   -0.19518308E+03   -0.72304829E-10    0.49380622E-06
    6   -0.19518308E+03   -0.34958703E-11    0.18073004E-06
    7   -0.19518308E+03   -0.28421709E-12    0.38816371E-07
    8   -0.19518308E+03    0.00000000E+00    0.38564885E-08

Total Energy:                     -193.2751389934 H        -5259.2841 eV
Extrapolated to 0K:               -193.2751389934 H        -5259.2841 eV
Total Mermin free energy:         -193.2751389934 H        -5259.2841 eV
Force related energy:             -193.2751389934 H        -5259.2841 eV

Volume:                              0.112227E+05 au^3   0.166303E+04 A^3
Pressure:                            0.693226E-07 au     0.203954E+07 Pa
>> Charges saved for restart in charges.bin

total energy  -1.9327514E+02 H       energy change -3.7553787E-07 H
gradient norm  1.6469847E-03 H/a0    max. gradient  1.1156651E-03 H/a0
step length    1.0977609E-03 a0      max. step      3.5843130E-04 a0

--------------------------------------------------------------------------------

***  Geometry step: 170

 iSCC Total electronic   Diff electronic      SCC error    
    1   -0.19518308E+03    0.00000000E+00    0.23879583E-03
    2   -0.19518307E+03    0.79055057E-05    0.10133584E-03
    3   -0.19518307E+03   -0.65816693E-07    0.34619379E-04
    4   -0.19518307E+03   -0.88313641E-08    0.24813199E-05
    5   -0.19518307E+03   -0.14077273E-09    0.66669452E-06
    6   -0.19518307E+03   -0.64801498E-11    0.20510092E-06
    7   -0.19518307E+03   -0.11368684E-12    0.38737174E-07
    8   -0.19518307E+03    0.00000000E+00    0.81460700E-08

Total Energy:                     -193.2751414002 H        -5259.2842 eV
Extrapolated to 0K:               -193.2751414002 H        -5259.2842 eV
Total Mermin free energy:         -193.2751414002 H        -5259.2842 eV
Force related energy:             -193.2751414002 H        -5259.2842 eV

Volume:                              0.112230E+05 au^3   0.166308E+04 A^3
Pressure:                           -0.947902E-08 au    -0.278882E+06 Pa
>> Charges saved for restart in charges.bin

total energy  -1.9327514E+02 H       energy change -2.4067647E-06 H
gradient norm  1.0410930E-03 H/a0    max. gradient  5.3456080E-04 H/a0
step length    2.0677033E-02 a0      max. step      5.4047542E-03 a0

--------------------------------------------------------------------------------

***  Geometry step: 171

 iSCC Total electronic   Diff electronic      SCC error    
    1   -0.19518307E+03    0.00000000E+00    0.23322386E-03
    2   -0.19518301E+03    0.60986511E-04    0.96402835E-04
    3   -0.19518301E+03   -0.32452760E-07    0.26776372E-04
    4   -0.19518301E+03   -0.45118895E-08    0.22385359E-05
    5   -0.19518301E+03   -0.11314683E-09    0.80725088E-06
    6   -0.19518301E+03   -0.48032689E-11    0.28185391E-06
    7   -0.19518301E+03   -0.14210855E-12    0.38286265E-07
    8   -0.19518301E+03   -0.56843419E-13    0.41313104E-08

Total Energy:                     -193.2751425949 H        -5259.2842 eV
Extrapolated to 0K:               -193.2751425949 H        -5259.2842 eV
Total Mermin free energy:         -193.2751425949 H        -5259.2842 eV
Force related energy:             -193.2751425949 H        -5259.2842 eV

Volume:                              0.112231E+05 au^3   0.166309E+04 A^3
Pressure:                           -0.507855E-07 au    -0.149416E+07 Pa
>> Charges saved for restart in charges.bin

total energy  -1.9327514E+02 H       energy change -1.1946690E-06 H
gradient norm  6.6000462E-04 H/a0    max. gradient  1.5849097E-04 H/a0
step length    1.8991837E-02 a0      max. step      4.8684237E-03 a0

--------------------------------------------------------------------------------

***  Geometry step: 172

 iSCC Total electronic   Diff electronic      SCC error    
    1   -0.19518301E+03    0.00000000E+00    0.95049150E-04
    2   -0.19518308E+03   -0.70355356E-04    0.55371642E-04
    3   -0.19518308E+03   -0.10235766E-07    0.15348677E-04
    4   -0.19518308E+03   -0.17316495E-08    0.16893339E-05
    5   -0.19518308E+03   -0.54825477E-10    0.59771929E-06
    6   -0.19518308E+03   -0.21316282E-11    0.16087220E-06
    7   -0.19518308E+03    0.28421709E-13    0.15659346E-07
    8   -0.19518308E+03   -0.11368684E-12    0.26570621E-08

Total Energy:                     -193.2751430507 H        -5259.2842 eV
Extrapolated to 0K:               -193.2751430507 H        -5259.2842 eV
Total Mermin free energy:         -193.2751430507 H        -5259.2842 eV
Force related energy:             -193.2751430507 H        -5259.2842 eV

Volume:                              0.112231E+05 au^3   0.166309E+04 A^3
Pressure:                           -0.508914E-07 au    -0.149728E+07 Pa
>> Charges saved for restart in charges.bin

total energy  -1.9327514E+02 H       energy change -4.5582897E-07 H
gradient norm  5.6112588E-04 H/a0    max. gradient  1.7822362E-04 H/a0
step length    2.0129762E-03 a0      max. step      3.8562842E-04 a0

--------------------------------------------------------------------------------

***  Geometry step: 173

 iSCC Total electronic   Diff electronic      SCC error    
    1   -0.19518308E+03    0.00000000E+00    0.13908585E-03
    2   -0.19518314E+03   -0.53845932E-04    0.82659406E-04
    3   -0.19518314E+03   -0.14889252E-07    0.23327285E-04
    4   -0.19518314E+03   -0.24193412E-08    0.24959741E-05
    5   -0.19518314E+03   -0.78927087E-10    0.83703806E-06
    6   -0.19518314E+03   -0.39506176E-11    0.27153594E-06
    7   -0.19518314E+03    0.56843419E-13    0.29073925E-07
    8   -0.19518314E+03    0.00000000E+00    0.33978131E-08

Total Energy:                     -193.2751434226 H        -5259.2842 eV
Extrapolated to 0K:               -193.2751434226 H        -5259.2842 eV
Total Mermin free energy:         -193.2751434226 H        -5259.2842 eV
Force related energy:             -193.2751434226 H        -5259.2842 eV

Volume:                              0.112230E+05 au^3   0.166307E+04 A^3
Pressure:                           -0.245229E-07 au    -0.721488E+06 Pa
>> Charges saved for restart in charges.bin

total energy  -1.9327514E+02 H       energy change -3.7190776E-07 H
gradient norm  5.4958223E-04 H/a0    max. gradient  1.5691351E-04 H/a0
step length    2.1111185E-03 a0      max. step      4.1924725E-04 a0

--------------------------------------------------------------------------------

***  Geometry step: 174

 iSCC Total electronic   Diff electronic      SCC error    
    1   -0.19518314E+03    0.00000000E+00    0.70961056E-04
    2   -0.19518316E+03   -0.21986492E-04    0.20172857E-04
    3   -0.19518316E+03   -0.51675499E-08    0.61699879E-05
    4   -0.19518316E+03   -0.62996719E-09    0.10426608E-05
    5   -0.19518316E+03   -0.10800250E-10    0.19879111E-06
    6   -0.19518316E+03   -0.65369932E-12    0.73804409E-07
    7   -0.19518316E+03   -0.85265128E-13    0.16230111E-07
    8   -0.19518316E+03    0.00000000E+00    0.12012826E-08

Total Energy:                     -193.2751435565 H        -5259.2842 eV
Extrapolated to 0K:               -193.2751435565 H        -5259.2842 eV
Total Mermin free energy:         -193.2751435565 H        -5259.2842 eV
Force related energy:             -193.2751435565 H        -5259.2842 eV

Volume:                              0.112230E+05 au^3   0.166307E+04 A^3
Pressure:                            0.109085E-07 au     0.320940E+06 Pa
>> Charges saved for restart in charges.bin

total energy  -1.9327514E+02 H       energy change -1.3392957E-07 H
gradient norm  9.4201184E-04 H/a0    max. gradient  5.3731691E-04 H/a0
step length    5.4958223E-04 a0      max. step      1.5691351E-04 a0

--------------------------------------------------------------------------------

***  Geometry step: 175

 iSCC Total electronic   Diff electronic      SCC error    
    1   -0.19518316E+03    0.00000000E+00    0.80233185E-04
    2   -0.19518305E+03    0.11033727E-03    0.43510159E-04
    3   -0.19518305E+03   -0.56432157E-08    0.12062385E-04
    4   -0.19518305E+03   -0.81567464E-09    0.17851638E-05
    5   -0.19518305E+03   -0.19639401E-10    0.54671783E-06
    6   -0.19518305E+03   -0.11652901E-11    0.16366910E-06
    7   -0.19518305E+03   -0.85265128E-13    0.14614680E-07
    8   -0.19518305E+03    0.00000000E+00    0.19245769E-08

Total Energy:                     -193.2751440495 H        -5259.2843 eV
Extrapolated to 0K:               -193.2751440495 H        -5259.2843 eV
Total Mermin free energy:         -193.2751440495 H        -5259.2843 eV
Force related energy:             -193.2751440495 H        -5259.2843 eV

Volume:                              0.112230E+05 au^3   0.166308E+04 A^3
Pressure:                           -0.283889E-07 au    -0.835229E+06 Pa
>> Charges saved for restart in charges.bin

total energy  -1.9327514E+02 H       energy change -4.9291995E-07 H
gradient norm  7.2576573E-04 H/a0    max. gradient  3.2932743E-04 H/a0
step length    1.6804139E-03 a0      max. step      3.0134424E-04 a0

--------------------------------------------------------------------------------

***  Geometry step: 176

 iSCC Total electronic   Diff electronic      SCC error    
    1   -0.19518305E+03    0.00000000E+00    0.31141784E-03
    2   -0.19518277E+03    0.27739396E-03    0.12521924E-03
    3   -0.19518277E+03   -0.65782842E-07    0.40753392E-04
    4   -0.19518277E+03   -0.89511332E-08    0.54419423E-05
    5   -0.19518277E+03   -0.26525981E-09    0.17923714E-05
    6   -0.19518277E+03   -0.13415047E-10    0.57163295E-06
    7   -0.19518277E+03   -0.25579538E-12    0.50466630E-07
    8   -0.19518277E+03   -0.56843419E-13    0.76782030E-08

Total Energy:                     -193.2751454050 H        -5259.2843 eV
Extrapolated to 0K:               -193.2751454050 H        -5259.2843 eV
Total Mermin free energy:         -193.2751454050 H        -5259.2843 eV
Force related energy:             -193.2751454050 H        -5259.2843 eV

Volume:                              0.112236E+05 au^3   0.166317E+04 A^3
Pressure:                           -0.203664E-06 au    -0.599200E+07 Pa
>> Charges saved for restart in charges.bin

total energy  -1.9327515E+02 H       energy change -1.3554909E-06 H
gradient norm  9.4949832E-04 H/a0    max. gradient  3.5357423E-04 H/a0
step length    2.0515632E-02 a0      max. step      4.7929039E-03 a0

--------------------------------------------------------------------------------

***  Geometry step: 177

 iSCC Total electronic   Diff electronic      SCC error    
    1   -0.19518277E+03    0.00000000E+00    0.13881761E-03
    2   -0.19518282E+03   -0.46729099E-04    0.75479733E-04
    3   -0.19518282E+03   -0.12061321E-07    0.21498162E-04
    4   -0.19518282E+03   -0.17758168E-08    0.17940629E-05
    5   -0.19518282E+03   -0.45275783E-10    0.58835934E-06
    6   -0.19518282E+03   -0.23305802E-11    0.20176159E-06
    7   -0.19518282E+03   -0.85265128E-13    0.33701084E-07
    8   -0.19518282E+03    0.85265128E-13    0.46257718E-08

Total Energy:                     -193.2751459860 H        -5259.2843 eV
Extrapolated to 0K:               -193.2751459860 H        -5259.2843 eV
Total Mermin free energy:         -193.2751459860 H        -5259.2843 eV
Force related energy:             -193.2751459860 H        -5259.2843 eV

Volume:                              0.112235E+05 au^3   0.166316E+04 A^3
Pressure:                           -0.155302E-06 au    -0.456914E+07 Pa
>> Charges saved for restart in charges.bin

total energy  -1.9327515E+02 H       energy change -5.8100534E-07 H
gradient norm  6.3379786E-04 H/a0    max. gradient  1.7776006E-04 H/a0
step length    2.4554193E-03 a0      max. step      5.7788746E-04 a0

--------------------------------------------------------------------------------

***  Geometry step: 178

 iSCC Total electronic   Diff electronic      SCC error    
    1   -0.19518282E+03    0.00000000E+00    0.22028784E-03
    2   -0.19518295E+03   -0.12888652E-03    0.12402712E-03
    3   -0.19518295E+03   -0.42435516E-07    0.40537710E-04
    4   -0.19518295E+03   -0.54358793E-08    0.33592200E-05
    5   -0.19518295E+03   -0.16584067E-09    0.52669096E-06
    6   -0.19518295E+03   -0.84696694E-11    0.18841464E-06
    7   -0.19518295E+03   -0.19895197E-12    0.49415476E-07
    8   -0.19518295E+03    0.28421709E-13    0.91551056E-08

Total Energy:                     -193.2751468054 H        -5259.2843 eV
Extrapolated to 0K:               -193.2751468054 H        -5259.2843 eV
Total Mermin free energy:         -193.2751468054 H        -5259.2843 eV
Force related energy:             -193.2751468054 H        -5259.2843 eV

Volume:                              0.112236E+05 au^3   0.166316E+04 A^3
Pressure:                           -0.121586E-06 au    -0.357719E+07 Pa
>> Charges saved for restart in charges.bin

total energy  -1.9327515E+02 H       energy change -8.1949111E-07 H
gradient norm  6.2829127E-04 H/a0    max. gradient  2.2360077E-04 H/a0
step length    7.9046846E-03 a0      max. step      1.8951208E-03 a0

--------------------------------------------------------------------------------

***  Geometry step: 179

 iSCC Total electronic   Diff electronic      SCC error    
    1   -0.19518295E+03    0.00000000E+00    0.18877477E-03
    2   -0.19518306E+03   -0.11463684E-03    0.99931594E-04
    3   -0.19518306E+03   -0.31622733E-07    0.36385472E-04
    4   -0.19518306E+03   -0.35315111E-08    0.31225361E-05
    5   -0.19518306E+03   -0.89272589E-10    0.40738410E-06
    6   -0.19518306E+03   -0.53148597E-11    0.12920151E-06
    7   -0.19518306E+03   -0.28421709E-13    0.23713255E-07
    8   -0.19518306E+03   -0.11368684E-12    0.46719597E-08

Total Energy:                     -193.2751474075 H        -5259.2844 eV
Extrapolated to 0K:               -193.2751474075 H        -5259.2844 eV
Total Mermin free energy:         -193.2751474075 H        -5259.2844 eV
Force related energy:             -193.2751474075 H        -5259.2844 eV

Volume:                              0.112236E+05 au^3   0.166316E+04 A^3
Pressure:                           -0.823809E-07 au    -0.242373E+07 Pa
>> Charges saved for restart in charges.bin

total energy  -1.9327515E+02 H       energy change -6.0202245E-07 H
gradient norm  5.0051537E-04 H/a0    max. gradient  1.1993724E-04 H/a0
step length    1.2116545E-02 a0      max. step      2.8600085E-03 a0

--------------------------------------------------------------------------------

***  Geometry step: 180

 iSCC Total electronic   Diff electronic      SCC error    
    1   -0.19518306E+03    0.00000000E+00    0.66431785E-04
    2   -0.19518309E+03   -0.34353037E-04    0.38806760E-04
    3   -0.19518309E+03   -0.30165381E-08    0.78645542E-05
    4   -0.19518309E+03   -0.61669425E-09    0.10478657E-05
    5   -0.19518309E+03   -0.24328983E-10    0.26911296E-06
    6   -0.19518309E+03   -0.85265128E-12    0.93488167E-07
    7   -0.19518309E+03    0.00000000E+00    0.17972794E-07
    8   -0.19518309E+03   -0.85265128E-13    0.27035090E-08

Total Energy:                     -193.2751476713 H        -5259.2844 eV
Extrapolated to 0K:               -193.2751476713 H        -5259.2844 eV
Total Mermin free energy:         -193.2751476713 H        -5259.2844 eV
Force related energy:             -193.2751476713 H        -5259.2844 eV

Volume:                              0.112235E+05 au^3   0.166315E+04 A^3
Pressure:                           -0.770895E-07 au    -0.226805E+07 Pa
>> Charges saved for restart in charges.bin

total energy  -1.9327515E+02 H       energy change -2.6386184E-07 H
gradient norm  3.5768864E-04 H/a0    max. gradient  7.0635883E-05 H/a0
step length    8.2360762E-04 a0      max. step      1.4860909E-04 a0

Geometry converged

--------------------------------------------------------------------------------
DFTB+ running times                          cpu [s]             wall clock [s]
--------------------------------------------------------------------------------
Pre-SCC initialisation                 +       6.27 (  0.2%)       2.98 (  0.8%)
SCC                                    +    2515.31 ( 92.5%)     331.49 ( 90.6%)
Post-SCC processing                    +     197.06 (  7.2%)      31.45 (  8.6%)
--------------------------------------------------------------------------------
Missing                                +       0.23 (  0.0%)       0.00 (  0.0%)
Total                                  =    2718.87 (100.0%)     365.92 (100.0%)
--------------------------------------------------------------------------------
