|===============================================================================
|
|  DFTB+ release 24.1
|
|  Copyright (C) 2006 - 2024  DFTB+ developers group
|
|===============================================================================
|
|  When publishing results obtained with DFTB+, please cite the following
|  reference:
|
|  * DFTB+, a software package for efficient approximate density functional
|    theory based atomistic simulations, J. Chem. Phys. 152, 124101 (2020).
|    [doi: 10.1063/1.5143190]
|
|  You should also cite additional publications crediting the parametrization
|  data you use. Please consult the documentation of the SK-files for the
|  references.
|
|===============================================================================

Reading input file 'dftb_in.hsd'
Parser version: 14

--------------------------------------------------------------------------------
Reading SK-files:
./SKFiles/Si-Si.skf
./SKFiles/Si-Ge.skf
./SKFiles/Si-O.skf
./SKFiles/Ge-Ge.skf
./SKFiles/Ge-O.skf
./SKFiles/O-O.skf
Done.


Processed input in HSD format written to 'dftb_pin.hsd'

Starting initialization...
--------------------------------------------------------------------------------
WARNING!
-> Dipole printed for extended system : value printed is not well defined
MPI processes:               1
OpenMP threads:              8
BLACS orbital grid size:     1 x 1
BLACS atom grid size:        1 x 1
Chosen random seed:          149381119
Current stacksize:           unlimited
Mode:                        Static calculation
Self consistent charges:     Yes
SCC-tolerance:                 0.100000E-07
Max. scc iterations:                    500
Shell resolved Hubbard:      No
Spin polarisation:           No
Nr. of up electrons:           192.000000
Nr. of down electrons:         192.000000
Periodic boundaries:         Yes
Electronic solver:           Relatively robust
Mixer:                       Broyden mixer
Mixing parameter:                  0.200000
Maximal SCC-cycles:                     500
Nr. of chrg. vec. in memory:            500
Electronic temperature:              0.100000E-07 H      0.272114E-06 eV
Initial charges:             Set automatically (system chrg:   0.000E+00)
Included shells:            Si:  s, p, d
                            Ge:  s, p, d
                             O:  s, p
K-points and weights:           1:  0.500000  0.500000  0.500000     1.000000

K-points in absolute space:     1:  0.025319  0.017606  0.037774

Extra options:
                             Mulliken analysis
Force type                   original

--------------------------------------------------------------------------------

***  Geometry step: 0

 iSCC Total electronic   Diff electronic      SCC error    
    1    0.00000000E+00    0.00000000E+00    0.14261730E+01
    2   -0.19732408E+03   -0.19732408E+03    0.97901909E+00
    3   -0.19766700E+03   -0.34292549E+00    0.40086971E-01
    4   -0.19795566E+03   -0.28865138E+00    0.32496506E-01
    5   -0.19795729E+03   -0.16362972E-02    0.51973025E-02
    6   -0.19795741E+03   -0.11349619E-03    0.14496579E-02
    7   -0.19795741E+03   -0.35876157E-05    0.33737204E-03
    8   -0.19795741E+03   -0.61627389E-06    0.66617492E-04
    9   -0.19795741E+03   -0.41614783E-07    0.20651729E-04
   10   -0.19795741E+03   -0.26366820E-09    0.44407330E-05
   11   -0.19795741E+03   -0.98907549E-10    0.50841743E-06
   12   -0.19795741E+03   -0.52580162E-11    0.15017480E-06
   13   -0.19795741E+03   -0.11368684E-12    0.20580375E-07
   14   -0.19795741E+03    0.28421709E-13    0.75876763E-08

Total Energy:                     -190.4252715558 H        -5181.7353 eV
Extrapolated to 0K:               -190.4252715558 H        -5181.7353 eV
Total Mermin free energy:         -190.4252715558 H        -5181.7353 eV
Force related energy:             -190.4252715558 H        -5181.7353 eV

Volume:                              0.913789E+04 au^3   0.135410E+04 A^3
Pressure:                            0.249386E-02 au     0.733719E+11 Pa
>> Charges saved for restart in charges.bin

total energy  -1.9042527E+02 H       energy change -1.9042527E+02 H
gradient norm  2.2477295E+00 H/a0    max. gradient  1.3922177E+00 H/a0
step length    0.0000000E+00 a0      max. step      0.0000000E+00 a0

--------------------------------------------------------------------------------

***  Geometry step: 1

 iSCC Total electronic   Diff electronic      SCC error    
    1   -0.19795741E+03    0.00000000E+00    0.13617823E+00
    2   -0.19728436E+03    0.67304724E+00    0.63834980E-01
    3   -0.19730025E+03   -0.15889795E-01    0.20371593E-01
    4   -0.19730309E+03   -0.28360931E-02    0.22222995E-02
    5   -0.19730316E+03   -0.75216478E-04    0.74121475E-03
    6   -0.19730317E+03   -0.42029257E-05    0.23988739E-03
    7   -0.19730317E+03   -0.13866085E-06    0.28940812E-04
    8   -0.19730317E+03   -0.17191638E-07    0.75000518E-05
    9   -0.19730317E+03   -0.92629193E-09    0.29355339E-05
   10   -0.19730317E+03   -0.17394086E-10    0.80381620E-06
   11   -0.19730317E+03   -0.56843419E-12    0.11052462E-06
   12   -0.19730317E+03   -0.22737368E-12    0.22641830E-07
   13   -0.19730317E+03   -0.56843419E-13    0.25997471E-08

Total Energy:                     -191.1436833339 H        -5201.2843 eV
Extrapolated to 0K:               -191.1436833339 H        -5201.2843 eV
Total Mermin free energy:         -191.1436833339 H        -5201.2843 eV
Force related energy:             -191.1436833339 H        -5201.2843 eV

Volume:                              0.969268E+04 au^3   0.143631E+04 A^3
Pressure:                            0.178395E-02 au     0.524855E+11 Pa
>> Charges saved for restart in charges.bin

total energy  -1.9114368E+02 H       energy change -7.1841178E-01 H
gradient norm  1.4665955E+00 H/a0    max. gradient  2.5876121E-01 H/a0
step length    8.0199585E-01 a0      max. step      4.9674697E-01 a0

--------------------------------------------------------------------------------

***  Geometry step: 2

 iSCC Total electronic   Diff electronic      SCC error    
    1   -0.19730317E+03    0.00000000E+00    0.54283153E-01
    2   -0.19694606E+03    0.35711311E+00    0.25904594E-01
    3   -0.19694952E+03   -0.34679950E-02    0.60327251E-02
    4   -0.19695022E+03   -0.69593148E-03    0.10538350E-02
    5   -0.19695024E+03   -0.19424657E-04    0.38842459E-03
    6   -0.19695024E+03   -0.12335944E-05    0.16129746E-03
    7   -0.19695024E+03   -0.19898948E-07    0.35489346E-04
    8   -0.19695024E+03   -0.26072939E-08    0.65000462E-05
    9   -0.19695024E+03   -0.27483793E-09    0.16909613E-05
   10   -0.19695024E+03   -0.34106051E-11    0.41223276E-06
   11   -0.19695024E+03   -0.19895197E-12    0.68592336E-07
   12   -0.19695024E+03   -0.56843419E-13    0.11704889E-07
   13   -0.19695024E+03    0.28421709E-13    0.17701991E-08

Total Energy:                     -191.9401005273 H        -5222.9559 eV
Extrapolated to 0K:               -191.9401005273 H        -5222.9559 eV
Total Mermin free energy:         -191.9401005273 H        -5222.9559 eV
Force related energy:             -191.9401005273 H        -5222.9559 eV

Volume:                              0.984828E+04 au^3   0.145936E+04 A^3
Pressure:                            0.131205E-02 au     0.386020E+11 Pa
>> Charges saved for restart in charges.bin

total energy  -1.9194010E+02 H       energy change -7.9641719E-01 H
gradient norm  9.3988992E-01 H/a0    max. gradient  1.7366367E-01 H/a0
step length    7.5119667E-01 a0      max. step      1.3657867E-01 a0

--------------------------------------------------------------------------------

***  Geometry step: 3

 iSCC Total electronic   Diff electronic      SCC error    
    1   -0.19695024E+03    0.00000000E+00    0.72019929E-01
    2   -0.19657068E+03    0.37955813E+00    0.30591667E-01
    3   -0.19657483E+03   -0.41457807E-02    0.10184254E-01
    4   -0.19657553E+03   -0.70384223E-03    0.98016473E-03
    5   -0.19657557E+03   -0.35565084E-04    0.29845342E-03
    6   -0.19657557E+03   -0.15812951E-05    0.11861172E-03
    7   -0.19657557E+03   -0.31700637E-07    0.21572027E-04
    8   -0.19657557E+03   -0.32335095E-08    0.65318973E-05
    9   -0.19657557E+03   -0.39969450E-09    0.20134624E-05
   10   -0.19657557E+03   -0.11084467E-10    0.52016839E-06
   11   -0.19657557E+03   -0.39790393E-12    0.12787087E-06
   12   -0.19657557E+03    0.56843419E-13    0.18448171E-07
   13   -0.19657557E+03   -0.14210855E-12    0.26310794E-08

Total Energy:                     -192.4860520103 H        -5237.8120 eV
Extrapolated to 0K:               -192.4860520103 H        -5237.8120 eV
Total Mermin free energy:         -192.4860520103 H        -5237.8120 eV
Force related energy:             -192.4860520103 H        -5237.8120 eV

Volume:                              0.997535E+04 au^3   0.147819E+04 A^3
Pressure:                            0.941669E-03 au     0.277049E+11 Pa
>> Charges saved for restart in charges.bin

total energy  -1.9248605E+02 H       energy change -5.4595148E-01 H
gradient norm  5.8778871E-01 H/a0    max. gradient  1.3190315E-01 H/a0
step length    7.8459262E-01 a0      max. step      1.5976348E-01 a0

--------------------------------------------------------------------------------

***  Geometry step: 4

 iSCC Total electronic   Diff electronic      SCC error    
    1   -0.19657557E+03    0.00000000E+00    0.59877579E-01
    2   -0.19617663E+03    0.39893477E+00    0.35645094E-01
    3   -0.19617892E+03   -0.22911448E-02    0.66229791E-02
    4   -0.19617947E+03   -0.54580707E-03    0.11196762E-02
    5   -0.19617950E+03   -0.32763802E-04    0.32038823E-03
    6   -0.19617950E+03   -0.14367799E-05    0.10191974E-03
    7   -0.19617950E+03   -0.26341496E-07    0.34862319E-04
    8   -0.19617950E+03   -0.22544384E-08    0.92637622E-05
    9   -0.19617950E+03   -0.29473313E-09    0.24072085E-05
   10   -0.19617950E+03   -0.81001872E-11    0.40170039E-06
   11   -0.19617950E+03   -0.54001248E-12    0.83901041E-07
   12   -0.19617950E+03    0.56843419E-13    0.23375198E-07
   13   -0.19617950E+03   -0.14210855E-12    0.33511909E-08

Total Energy:                     -192.8042903527 H        -5246.4717 eV
Extrapolated to 0K:               -192.8042903527 H        -5246.4717 eV
Total Mermin free energy:         -192.8042903527 H        -5246.4717 eV
Force related energy:             -192.8042903527 H        -5246.4717 eV

Volume:                              0.101109E+05 au^3   0.149829E+04 A^3
Pressure:                            0.651531E-03 au     0.191687E+11 Pa
>> Charges saved for restart in charges.bin

total energy  -1.9280429E+02 H       energy change -3.1823834E-01 H
gradient norm  4.4302211E-01 H/a0    max. gradient  2.2105148E-01 H/a0
step length    7.3971395E-01 a0      max. step      1.3178564E-01 a0

--------------------------------------------------------------------------------

***  Geometry step: 5

 iSCC Total electronic   Diff electronic      SCC error    
    1   -0.19617950E+03    0.00000000E+00    0.64671394E-01
    2   -0.19573106E+03    0.44844235E+00    0.39573514E-01
    3   -0.19573287E+03   -0.18106467E-02    0.71229177E-02
    4   -0.19573333E+03   -0.45708991E-03    0.14412367E-02
    5   -0.19573336E+03   -0.28256434E-04    0.30209920E-03
    6   -0.19573336E+03   -0.78970714E-06    0.10150158E-03
    7   -0.19573336E+03   -0.16257871E-07    0.33442212E-04
    8   -0.19573336E+03   -0.13402257E-08    0.85026175E-05
    9   -0.19573336E+03   -0.16879653E-09    0.22111008E-05
   10   -0.19573336E+03   -0.70201622E-11    0.24648681E-06
   11   -0.19573336E+03   -0.45474735E-12    0.33862354E-07
   12   -0.19573336E+03    0.56843419E-13    0.15111248E-07
   13   -0.19573336E+03   -0.28421709E-13    0.52142259E-08

Total Energy:                     -192.9938907379 H        -5251.6310 eV
Extrapolated to 0K:               -192.9938907379 H        -5251.6310 eV
Total Mermin free energy:         -192.9938907379 H        -5251.6310 eV
Force related energy:             -192.9938907379 H        -5251.6310 eV

Volume:                              0.103175E+05 au^3   0.152889E+04 A^3
Pressure:                            0.390662E-03 au     0.114937E+11 Pa
>> Charges saved for restart in charges.bin

total energy  -1.9299389E+02 H       energy change -1.8960039E-01 H
gradient norm  3.0535384E-01 H/a0    max. gradient  1.5299033E-01 H/a0
step length    7.1057171E-01 a0      max. step      2.3534735E-01 a0

--------------------------------------------------------------------------------

***  Geometry step: 6

 iSCC Total electronic   Diff electronic      SCC error    
    1   -0.19573336E+03    0.00000000E+00    0.51605577E-01
    2   -0.19541211E+03    0.32124696E+00    0.28822260E-01
    3   -0.19541354E+03   -0.14230181E-02    0.41310138E-02
    4   -0.19541386E+03   -0.32563713E-03    0.83008891E-03
    5   -0.19541387E+03   -0.13553684E-04    0.21422419E-03
    6   -0.19541388E+03   -0.60979912E-06    0.94410349E-04
    7   -0.19541388E+03   -0.70106125E-08    0.22434865E-04
    8   -0.19541388E+03   -0.64795813E-09    0.43748967E-05
    9   -0.19541388E+03   -0.96321173E-10    0.98842521E-06
   10   -0.19541388E+03   -0.29274361E-11    0.13493664E-06
   11   -0.19541388E+03   -0.22737368E-12    0.30162167E-07
   12   -0.19541388E+03   -0.85265128E-13    0.82069653E-08

Total Energy:                     -193.0810095365 H        -5254.0016 eV
Extrapolated to 0K:               -193.0810095365 H        -5254.0016 eV
Total Mermin free energy:         -193.0810095365 H        -5254.0016 eV
Force related energy:             -193.0810095365 H        -5254.0016 eV

Volume:                              0.104555E+05 au^3   0.154934E+04 A^3
Pressure:                            0.224319E-03 au     0.659969E+10 Pa
>> Charges saved for restart in charges.bin

total energy  -1.9308101E+02 H       energy change -8.7118799E-02 H
gradient norm  1.8417537E-01 H/a0    max. gradient  9.0624813E-02 H/a0
step length    5.7331012E-01 a0      max. step      1.1324518E-01 a0

--------------------------------------------------------------------------------

***  Geometry step: 7

 iSCC Total electronic   Diff electronic      SCC error    
    1   -0.19541388E+03    0.00000000E+00    0.38329734E-01
    2   -0.19521108E+03    0.20279815E+00    0.18556856E-01
    3   -0.19521196E+03   -0.88359227E-03    0.32782021E-02
    4   -0.19521213E+03   -0.16838261E-03    0.50864131E-03
    5   -0.19521213E+03   -0.58458433E-05    0.14363785E-03
    6   -0.19521214E+03   -0.25806966E-06    0.53511255E-04
    7   -0.19521214E+03   -0.63184018E-08    0.14007143E-04
    8   -0.19521214E+03   -0.36334313E-09    0.35508421E-05
    9   -0.19521214E+03   -0.34390268E-10    0.96631907E-06
   10   -0.19521214E+03   -0.31263880E-11    0.11934293E-06
   11   -0.19521214E+03   -0.85265128E-13    0.20273695E-07
   12   -0.19521214E+03   -0.28421709E-13    0.41707997E-08

Total Energy:                     -193.1164830102 H        -5254.9669 eV
Extrapolated to 0K:               -193.1164830102 H        -5254.9669 eV
Total Mermin free energy:         -193.1164830102 H        -5254.9669 eV
Force related energy:             -193.1164830102 H        -5254.9669 eV

Volume:                              0.105461E+05 au^3   0.156276E+04 A^3
Pressure:                            0.132906E-03 au     0.391023E+10 Pa
>> Charges saved for restart in charges.bin

total energy  -1.9311648E+02 H       energy change -3.5473474E-02 H
gradient norm  1.5272832E-01 H/a0    max. gradient  7.9899949E-02 H/a0
step length    4.4962980E-01 a0      max. step      8.5086730E-02 a0

--------------------------------------------------------------------------------

***  Geometry step: 8

 iSCC Total electronic   Diff electronic      SCC error    
    1   -0.19521214E+03    0.00000000E+00    0.18438812E-01
    2   -0.19510463E+03    0.10750133E+00    0.86299586E-02
    3   -0.19510493E+03   -0.29982321E-03    0.18160204E-02
    4   -0.19510499E+03   -0.57195233E-04    0.36031395E-03
    5   -0.19510499E+03   -0.16400168E-05    0.99921389E-04
    6   -0.19510499E+03   -0.77296960E-07    0.21799242E-04
    7   -0.19510499E+03   -0.49367941E-08    0.69887887E-05
    8   -0.19510499E+03   -0.20773427E-09    0.23199398E-05
    9   -0.19510499E+03   -0.75601747E-11    0.62045327E-06
   10   -0.19510499E+03   -0.96633812E-12    0.86702804E-07
   11   -0.19510499E+03   -0.14210855E-12    0.14988604E-07
   12   -0.19510499E+03    0.56843419E-13    0.31995544E-08

Total Energy:                     -193.1378809184 H        -5255.5491 eV
Extrapolated to 0K:               -193.1378809184 H        -5255.5491 eV
Total Mermin free energy:         -193.1378809184 H        -5255.5491 eV
Force related energy:             -193.1378809184 H        -5255.5491 eV

Volume:                              0.106065E+05 au^3   0.157172E+04 A^3
Pressure:                            0.789420E-04 au     0.232255E+10 Pa
>> Charges saved for restart in charges.bin

total energy  -1.9313788E+02 H       energy change -2.1397908E-02 H
gradient norm  1.1286220E-01 H/a0    max. gradient  2.5961784E-02 H/a0
step length    3.4542263E-01 a0      max. step      7.1466251E-02 a0

--------------------------------------------------------------------------------

***  Geometry step: 9

 iSCC Total electronic   Diff electronic      SCC error    
    1   -0.19510499E+03    0.00000000E+00    0.19051392E-01
    2   -0.19509317E+03    0.11821749E-01    0.11223631E-01
    3   -0.19509354E+03   -0.36669453E-03    0.33241184E-02
    4   -0.19509360E+03   -0.58111018E-04    0.43308353E-03
    5   -0.19509360E+03   -0.20442519E-05    0.52837765E-04
    6   -0.19509360E+03   -0.23369117E-06    0.19779084E-04
    7   -0.19509360E+03   -0.35829544E-08    0.57640372E-05
    8   -0.19509360E+03   -0.11374368E-09    0.13123515E-05
    9   -0.19509360E+03   -0.87254648E-11    0.32121212E-06
   10   -0.19509360E+03   -0.76738615E-12    0.10011654E-06
   11   -0.19509360E+03   -0.56843419E-13    0.26318224E-07
   12   -0.19509360E+03    0.00000000E+00    0.30227185E-08

Total Energy:                     -193.1569957071 H        -5256.0693 eV
Extrapolated to 0K:               -193.1569957071 H        -5256.0693 eV
Total Mermin free energy:         -193.1569957071 H        -5256.0693 eV
Force related energy:             -193.1569957071 H        -5256.0693 eV

Volume:                              0.106277E+05 au^3   0.157486E+04 A^3
Pressure:                            0.621492E-04 au     0.182849E+10 Pa
>> Charges saved for restart in charges.bin

total energy  -1.9315700E+02 H       energy change -1.9114789E-02 H
gradient norm  1.0359911E-01 H/a0    max. gradient  2.3953185E-02 H/a0
step length    3.3760981E-01 a0      max. step      6.2239939E-02 a0

--------------------------------------------------------------------------------

***  Geometry step: 10

 iSCC Total electronic   Diff electronic      SCC error    
    1   -0.19509360E+03    0.00000000E+00    0.30106426E-01
    2   -0.19512894E+03   -0.35337556E-01    0.17594907E-01
    3   -0.19512953E+03   -0.59794358E-03    0.30514087E-02
    4   -0.19512966E+03   -0.12400217E-03    0.50858072E-03
    5   -0.19512966E+03   -0.64481041E-05    0.18468704E-03
    6   -0.19512966E+03   -0.21627690E-06    0.65144861E-04
    7   -0.19512966E+03   -0.51045959E-08    0.11769519E-04
    8   -0.19512966E+03   -0.25366376E-09    0.24709576E-05
    9   -0.19512966E+03   -0.27313263E-10    0.42944190E-06
   10   -0.19512966E+03   -0.24158453E-11    0.10574878E-06
   11   -0.19512966E+03   -0.14210855E-12    0.15458583E-07
   12   -0.19512966E+03    0.00000000E+00    0.44380668E-08

Total Energy:                     -193.1778049912 H        -5256.6355 eV
Extrapolated to 0K:               -193.1778049912 H        -5256.6355 eV
Total Mermin free energy:         -193.1778049912 H        -5256.6355 eV
Force related energy:             -193.1778049912 H        -5256.6355 eV

Volume:                              0.106483E+05 au^3   0.157792E+04 A^3
Pressure:                            0.625909E-04 au     0.184149E+10 Pa
>> Charges saved for restart in charges.bin

total energy  -1.9317780E+02 H       energy change -2.0809284E-02 H
gradient norm  1.0180382E-01 H/a0    max. gradient  3.2766792E-02 H/a0
step length    4.4763489E-01 a0      max. step      7.5177191E-02 a0

--------------------------------------------------------------------------------

***  Geometry step: 11

 iSCC Total electronic   Diff electronic      SCC error    
    1   -0.19512966E+03    0.00000000E+00    0.25193471E-01
    2   -0.19518297E+03   -0.53310113E-01    0.15485710E-01
    3   -0.19518341E+03   -0.43286486E-03    0.27984055E-02
    4   -0.19518350E+03   -0.95945827E-04    0.44354262E-03
    5   -0.19518351E+03   -0.48225133E-05    0.16899991E-03
    6   -0.19518351E+03   -0.21227069E-06    0.57085731E-04
    7   -0.19518351E+03   -0.55728435E-08    0.11717372E-04
    8   -0.19518351E+03   -0.22194513E-09    0.20768789E-05
    9   -0.19518351E+03   -0.22026825E-10    0.33102231E-06
   10   -0.19518351E+03   -0.26432190E-11    0.89847791E-07
   11   -0.19518351E+03   -0.85265128E-13    0.21471728E-07
   12   -0.19518351E+03    0.56843419E-13    0.37480459E-08

Total Energy:                     -193.1905920917 H        -5256.9835 eV
Extrapolated to 0K:               -193.1905920917 H        -5256.9835 eV
Total Mermin free energy:         -193.1905920917 H        -5256.9835 eV
Force related energy:             -193.1905920917 H        -5256.9835 eV

Volume:                              0.106537E+05 au^3   0.157872E+04 A^3
Pressure:                            0.741043E-04 au     0.218022E+10 Pa
>> Charges saved for restart in charges.bin

total energy  -1.9319059E+02 H       energy change -1.2787101E-02 H
gradient norm  8.4905009E-02 H/a0    max. gradient  2.0252709E-02 H/a0
step length    3.4523799E-01 a0      max. step      5.1069198E-02 a0

--------------------------------------------------------------------------------

***  Geometry step: 12

 iSCC Total electronic   Diff electronic      SCC error    
    1   -0.19518351E+03    0.00000000E+00    0.22345638E-01
    2   -0.19521414E+03   -0.30630931E-01    0.13415845E-01
    3   -0.19521431E+03   -0.17194746E-03    0.17404876E-02
    4   -0.19521436E+03   -0.46030730E-04    0.46784663E-03
    5   -0.19521436E+03   -0.23219196E-05    0.18373454E-03
    6   -0.19521436E+03   -0.38919922E-07    0.48276488E-04
    7   -0.19521436E+03   -0.16271144E-08    0.70171186E-05
    8   -0.19521436E+03   -0.12761348E-09    0.82813103E-06
    9   -0.19521436E+03   -0.10032863E-10    0.19960999E-06
   10   -0.19521436E+03   -0.54001248E-12    0.33492157E-07
   11   -0.19521436E+03    0.00000000E+00    0.65230159E-08

Total Energy:                     -193.2008312030 H        -5257.2621 eV
Extrapolated to 0K:               -193.2008312030 H        -5257.2621 eV
Total Mermin free energy:         -193.2008312030 H        -5257.2621 eV
Force related energy:             -193.2008312030 H        -5257.2621 eV

Volume:                              0.106727E+05 au^3   0.158154E+04 A^3
Pressure:                            0.774425E-04 au     0.227843E+10 Pa
>> Charges saved for restart in charges.bin

total energy  -1.9320083E+02 H       energy change -1.0239111E-02 H
gradient norm  7.4028270E-02 H/a0    max. gradient  1.8425989E-02 H/a0
step length    3.0674191E-01 a0      max. step      5.1440034E-02 a0

--------------------------------------------------------------------------------

***  Geometry step: 13

 iSCC Total electronic   Diff electronic      SCC error    
    1   -0.19521436E+03    0.00000000E+00    0.21099597E-01
    2   -0.19522117E+03   -0.68104949E-02    0.12341167E-01
    3   -0.19522133E+03   -0.15705135E-03    0.18238089E-02
    4   -0.19522137E+03   -0.43293808E-04    0.46585865E-03
    5   -0.19522137E+03   -0.20373755E-05    0.15977742E-03
    6   -0.19522137E+03   -0.53914164E-07    0.53956013E-04
    7   -0.19522137E+03   -0.94311758E-09    0.68059493E-05
    8   -0.19522137E+03   -0.14841817E-09    0.97571548E-06
    9   -0.19522137E+03   -0.11993961E-10    0.27981757E-06
   10   -0.19522137E+03   -0.34106051E-12    0.50462659E-07
   11   -0.19522137E+03    0.56843419E-13    0.66664301E-08

Total Energy:                     -193.2105580638 H        -5257.5268 eV
Extrapolated to 0K:               -193.2105580638 H        -5257.5268 eV
Total Mermin free energy:         -193.2105580638 H        -5257.5268 eV
Force related energy:             -193.2105580638 H        -5257.5268 eV

Volume:                              0.107135E+05 au^3   0.158757E+04 A^3
Pressure:                            0.716735E-04 au     0.210871E+10 Pa
>> Charges saved for restart in charges.bin

total energy  -1.9321056E+02 H       energy change -9.7268608E-03 H
gradient norm  6.4265802E-02 H/a0    max. gradient  1.3457724E-02 H/a0
step length    3.2112990E-01 a0      max. step      5.5733327E-02 a0

--------------------------------------------------------------------------------

***  Geometry step: 14

 iSCC Total electronic   Diff electronic      SCC error    
    1   -0.19522137E+03    0.00000000E+00    0.15647155E-01
    2   -0.19520018E+03    0.21191690E-01    0.89057724E-02
    3   -0.19520027E+03   -0.90523042E-04    0.14284410E-02
    4   -0.19520029E+03   -0.23465343E-04    0.36375623E-03
    5   -0.19520030E+03   -0.11258646E-05    0.14819328E-03
    6   -0.19520030E+03   -0.35871068E-07    0.41727050E-04
    7   -0.19520030E+03   -0.10538770E-08    0.57888786E-05
    8   -0.19520030E+03   -0.89698915E-10    0.86597128E-06
    9   -0.19520030E+03   -0.73612227E-11    0.26262021E-06
   10   -0.19520030E+03   -0.51159077E-12    0.35142534E-07
   11   -0.19520030E+03    0.00000000E+00    0.46788529E-08

Total Energy:                     -193.2172914489 H        -5257.7100 eV
Extrapolated to 0K:               -193.2172914489 H        -5257.7100 eV
Total Mermin free energy:         -193.2172914489 H        -5257.7100 eV
Force related energy:             -193.2172914489 H        -5257.7100 eV

Volume:                              0.107663E+05 au^3   0.159540E+04 A^3
Pressure:                            0.576971E-04 au     0.169751E+10 Pa
>> Charges saved for restart in charges.bin

total energy  -1.9321729E+02 H       energy change -6.7333851E-03 H
gradient norm  5.8449947E-02 H/a0    max. gradient  1.1871765E-02 H/a0
step length    2.6991071E-01 a0      max. step      4.9971994E-02 a0

--------------------------------------------------------------------------------

***  Geometry step: 15

 iSCC Total electronic   Diff electronic      SCC error    
    1   -0.19520030E+03    0.00000000E+00    0.10260277E-01
    2   -0.19516772E+03    0.32574058E-01    0.57171028E-02
    3   -0.19516778E+03   -0.54587696E-04    0.11265049E-02
    4   -0.19516779E+03   -0.11374594E-04    0.26824688E-03
    5   -0.19516779E+03   -0.59950938E-06    0.10846853E-03
    6   -0.19516779E+03   -0.23809577E-07    0.33282041E-04
    7   -0.19516779E+03   -0.62277650E-09    0.45920671E-05
    8   -0.19516779E+03   -0.47521098E-10    0.66372744E-06
    9   -0.19516779E+03   -0.38369308E-11    0.21871327E-06
   10   -0.19516779E+03   -0.31263880E-12    0.22257414E-07
   11   -0.19516779E+03    0.56843419E-13    0.38632781E-08

Total Energy:                     -193.2223650759 H        -5257.8481 eV
Extrapolated to 0K:               -193.2223650759 H        -5257.8481 eV
Total Mermin free energy:         -193.2223650759 H        -5257.8481 eV
Force related energy:             -193.2223650759 H        -5257.8481 eV

Volume:                              0.108214E+05 au^3   0.160356E+04 A^3
Pressure:                            0.393573E-04 au     0.115793E+10 Pa
>> Charges saved for restart in charges.bin

total energy  -1.9322237E+02 H       energy change -5.0736270E-03 H
gradient norm  5.0932718E-02 H/a0    max. gradient  8.7910982E-03 H/a0
step length    2.4745794E-01 a0      max. step      4.6370721E-02 a0

--------------------------------------------------------------------------------

***  Geometry step: 16

 iSCC Total electronic   Diff electronic      SCC error    
    1   -0.19516779E+03    0.00000000E+00    0.75287976E-02
    2   -0.19514388E+03    0.23907607E-01    0.42096829E-02
    3   -0.19514392E+03   -0.37972716E-04    0.96161426E-03
    4   -0.19514392E+03   -0.61283164E-05    0.23868835E-03
    5   -0.19514393E+03   -0.31630145E-06    0.93530297E-04
    6   -0.19514393E+03   -0.20116289E-07    0.26692367E-04
    7   -0.19514393E+03   -0.50761173E-09    0.35018943E-05
    8   -0.19514393E+03   -0.35839776E-10    0.43120695E-06
    9   -0.19514393E+03   -0.23305802E-11    0.15567755E-06
   10   -0.19514393E+03   -0.11368684E-12    0.19597824E-07
   11   -0.19514393E+03   -0.28421709E-13    0.35800984E-08

Total Energy:                     -193.2268294769 H        -5257.9696 eV
Extrapolated to 0K:               -193.2268294769 H        -5257.9696 eV
Total Mermin free energy:         -193.2268294769 H        -5257.9696 eV
Force related energy:             -193.2268294769 H        -5257.9696 eV

Volume:                              0.108703E+05 au^3   0.161081E+04 A^3
Pressure:                            0.247968E-04 au     0.729546E+09 Pa
>> Charges saved for restart in charges.bin

total energy  -1.9322683E+02 H       energy change -4.4644011E-03 H
gradient norm  4.9902072E-02 H/a0    max. gradient  9.0573694E-03 H/a0
step length    2.3469332E-01 a0      max. step      4.4455484E-02 a0

--------------------------------------------------------------------------------

***  Geometry step: 17

 iSCC Total electronic   Diff electronic      SCC error    
    1   -0.19514393E+03    0.00000000E+00    0.11368622E-01
    2   -0.19513825E+03    0.56746555E-02    0.63480074E-02
    3   -0.19513831E+03   -0.55995996E-04    0.14407436E-02
    4   -0.19513832E+03   -0.90596140E-05    0.19029740E-03
    5   -0.19513832E+03   -0.48396649E-06    0.84032640E-04
    6   -0.19513832E+03   -0.26003164E-07    0.25307910E-04
    7   -0.19513832E+03   -0.72270723E-09    0.38616492E-05
    8   -0.19513832E+03   -0.45957904E-10    0.84360075E-06
    9   -0.19513832E+03   -0.30979663E-11    0.17720687E-06
   10   -0.19513832E+03   -0.36948222E-12    0.33247749E-07
   11   -0.19513832E+03    0.28421709E-13    0.28295020E-08

Total Energy:                     -193.2318339070 H        -5258.1057 eV
Extrapolated to 0K:               -193.2318339070 H        -5258.1057 eV
Total Mermin free energy:         -193.2318339070 H        -5258.1057 eV
Force related energy:             -193.2318339070 H        -5258.1057 eV

Volume:                              0.109142E+05 au^3   0.161732E+04 A^3
Pressure:                            0.173642E-04 au     0.510871E+09 Pa
>> Charges saved for restart in charges.bin

total energy  -1.9323183E+02 H       energy change -5.0044301E-03 H
gradient norm  5.4453951E-02 H/a0    max. gradient  1.2096029E-02 H/a0
step length    2.7525658E-01 a0      max. step      5.0429398E-02 a0

--------------------------------------------------------------------------------

***  Geometry step: 18

 iSCC Total electronic   Diff electronic      SCC error    
    1   -0.19513832E+03    0.00000000E+00    0.15158986E-01
    2   -0.19515097E+03   -0.12658344E-01    0.89005752E-02
    3   -0.19515106E+03   -0.90601589E-04    0.23686731E-02
    4   -0.19515108E+03   -0.14345163E-04    0.26733762E-03
    5   -0.19515108E+03   -0.76864816E-06    0.80185458E-04
    6   -0.19515108E+03   -0.44126239E-07    0.27942404E-04
    7   -0.19515108E+03   -0.11521877E-08    0.59384474E-05
    8   -0.19515108E+03   -0.52978066E-10    0.17736430E-05
    9   -0.19515108E+03   -0.37516656E-11    0.31371927E-06
   10   -0.19515108E+03   -0.42632564E-12    0.42598467E-07
   11   -0.19515108E+03   -0.85265128E-13    0.42224957E-08

Total Energy:                     -193.2370266406 H        -5258.2470 eV
Extrapolated to 0K:               -193.2370266406 H        -5258.2470 eV
Total Mermin free energy:         -193.2370266406 H        -5258.2470 eV
Force related energy:             -193.2370266406 H        -5258.2470 eV

Volume:                              0.109501E+05 au^3   0.162264E+04 A^3
Pressure:                            0.184546E-04 au     0.542952E+09 Pa
>> Charges saved for restart in charges.bin

total energy  -1.9323703E+02 H       energy change -5.1927336E-03 H
gradient norm  5.3851950E-02 H/a0    max. gradient  1.2233105E-02 H/a0
step length    3.0517297E-01 a0      max. step      5.1268680E-02 a0

--------------------------------------------------------------------------------

***  Geometry step: 19

 iSCC Total electronic   Diff electronic      SCC error    
    1   -0.19515108E+03    0.00000000E+00    0.13693470E-01
    2   -0.19517107E+03   -0.19990535E-01    0.81125182E-02
    3   -0.19517119E+03   -0.12052814E-03    0.25381808E-02
    4   -0.19517121E+03   -0.17094724E-04    0.31797871E-03
    5   -0.19517121E+03   -0.81390442E-06    0.79081488E-04
    6   -0.19517121E+03   -0.50182223E-07    0.30049189E-04
    7   -0.19517121E+03   -0.13425847E-08    0.76955598E-05
    8   -0.19517121E+03   -0.47748472E-10    0.22092082E-05
    9   -0.19517121E+03   -0.37516656E-11    0.35487976E-06
   10   -0.19517121E+03   -0.51159077E-12    0.52377892E-07
   11   -0.19517121E+03    0.00000000E+00    0.49304214E-08

Total Energy:                     -193.2416607170 H        -5258.3731 eV
Extrapolated to 0K:               -193.2416607170 H        -5258.3731 eV
Total Mermin free energy:         -193.2416607170 H        -5258.3731 eV
Force related energy:             -193.2416607170 H        -5258.3731 eV

Volume:                              0.109814E+05 au^3   0.162728E+04 A^3
Pressure:                            0.232501E-04 au     0.684042E+09 Pa
>> Charges saved for restart in charges.bin

total energy  -1.9324166E+02 H       energy change -4.6340765E-03 H
gradient norm  4.8596605E-02 H/a0    max. gradient  9.9570082E-03 H/a0
step length    3.1413084E-01 a0      max. step      5.7214741E-02 a0

--------------------------------------------------------------------------------

***  Geometry step: 20

 iSCC Total electronic   Diff electronic      SCC error    
    1   -0.19517121E+03    0.00000000E+00    0.88244340E-02
    2   -0.19518750E+03   -0.16291260E-01    0.51026910E-02
    3   -0.19518761E+03   -0.11134879E-03    0.17071962E-02
    4   -0.19518762E+03   -0.12863841E-04    0.26711156E-03
    5   -0.19518763E+03   -0.61168072E-06    0.75007393E-04
    6   -0.19518763E+03   -0.35506531E-07    0.25383464E-04
    7   -0.19518763E+03   -0.92884989E-09    0.48348597E-05
    8   -0.19518763E+03   -0.48515858E-10    0.11236937E-05
    9   -0.19518763E+03   -0.35242920E-11    0.30746132E-06
   10   -0.19518763E+03   -0.25579538E-12    0.42435750E-07
   11   -0.19518763E+03   -0.56843419E-13    0.41504014E-08

Total Energy:                     -193.2457943339 H        -5258.4856 eV
Extrapolated to 0K:               -193.2457943339 H        -5258.4856 eV
Total Mermin free energy:         -193.2457943339 H        -5258.4856 eV
Force related energy:             -193.2457943339 H        -5258.4856 eV

Volume:                              0.110138E+05 au^3   0.163207E+04 A^3
Pressure:                            0.261313E-04 au     0.768810E+09 Pa
>> Charges saved for restart in charges.bin

total energy  -1.9324579E+02 H       energy change -4.1336168E-03 H
gradient norm  4.3082424E-02 H/a0    max. gradient  8.8533749E-03 H/a0
step length    3.0755327E-01 a0      max. step      5.7216276E-02 a0

--------------------------------------------------------------------------------

***  Geometry step: 21

 iSCC Total electronic   Diff electronic      SCC error    
    1   -0.19518763E+03    0.00000000E+00    0.99987296E-02
    2   -0.19519815E+03   -0.10525818E-01    0.49225778E-02
    3   -0.19519827E+03   -0.12298138E-03    0.20034109E-02
    4   -0.19519829E+03   -0.14579543E-04    0.44313971E-03
    5   -0.19519829E+03   -0.78218645E-06    0.13376049E-03
    6   -0.19519829E+03   -0.36733894E-07    0.36157792E-04
    7   -0.19519829E+03   -0.93896801E-09    0.42608122E-05
    8   -0.19519829E+03   -0.87680974E-10    0.88639839E-06
    9   -0.19519829E+03   -0.46895821E-11    0.23261341E-06
   10   -0.19519829E+03   -0.36948222E-12    0.27470874E-07
   11   -0.19519829E+03   -0.28421709E-13    0.62928183E-08

Total Energy:                     -193.2497036048 H        -5258.5920 eV
Extrapolated to 0K:               -193.2497036048 H        -5258.5920 eV
Total Mermin free energy:         -193.2497036048 H        -5258.5920 eV
Force related energy:             -193.2497036048 H        -5258.5920 eV

Volume:                              0.110520E+05 au^3   0.163774E+04 A^3
Pressure:                            0.265157E-04 au     0.780120E+09 Pa
>> Charges saved for restart in charges.bin

total energy  -1.9324970E+02 H       energy change -3.9092709E-03 H
gradient norm  3.9425864E-02 H/a0    max. gradient  9.1829827E-03 H/a0
step length    3.2312467E-01 a0      max. step      6.0986387E-02 a0

--------------------------------------------------------------------------------

***  Geometry step: 22

 iSCC Total electronic   Diff electronic      SCC error    
    1   -0.19519829E+03    0.00000000E+00    0.94402152E-02
    2   -0.19519357E+03    0.47170538E-02    0.51638048E-02
    3   -0.19519363E+03   -0.55327942E-04    0.15305231E-02
    4   -0.19519364E+03   -0.90563757E-05    0.35699526E-03
    5   -0.19519364E+03   -0.49572242E-06    0.11713321E-03
    6   -0.19519364E+03   -0.23479288E-07    0.25369560E-04
    7   -0.19519364E+03   -0.77261575E-09    0.39028563E-05
    8   -0.19519364E+03   -0.60140337E-10    0.65780183E-06
    9   -0.19519364E+03   -0.40358827E-11    0.15676951E-06
   10   -0.19519364E+03   -0.28421709E-12    0.24913629E-07
   11   -0.19519364E+03    0.28421709E-13    0.35142471E-08

Total Energy:                     -193.2521368431 H        -5258.6582 eV
Extrapolated to 0K:               -193.2521368431 H        -5258.6582 eV
Total Mermin free energy:         -193.2521368431 H        -5258.6582 eV
Force related energy:             -193.2521368431 H        -5258.6582 eV

Volume:                              0.110887E+05 au^3   0.164318E+04 A^3
Pressure:                            0.227269E-04 au     0.668647E+09 Pa
>> Charges saved for restart in charges.bin

total energy  -1.9325214E+02 H       energy change -2.4332383E-03 H
gradient norm  3.5601805E-02 H/a0    max. gradient  8.6105867E-03 H/a0
step length    2.3541137E-01 a0      max. step      4.5268814E-02 a0

--------------------------------------------------------------------------------

***  Geometry step: 23

 iSCC Total electronic   Diff electronic      SCC error    
    1   -0.19519364E+03    0.00000000E+00    0.61374877E-02
    2   -0.19518061E+03    0.13026704E-01    0.37006772E-02
    3   -0.19518064E+03   -0.27964610E-04    0.86163499E-03
    4   -0.19518064E+03   -0.59273586E-05    0.20468777E-03
    5   -0.19518064E+03   -0.25026907E-06    0.73281307E-04
    6   -0.19518064E+03   -0.94476604E-08    0.16871912E-04
    7   -0.19518064E+03   -0.39409542E-09    0.32673263E-05
    8   -0.19518064E+03   -0.20719426E-10    0.40132540E-06
    9   -0.19518064E+03   -0.17905677E-11    0.81842971E-07
   10   -0.19518064E+03   -0.56843419E-13    0.11742193E-07
   11   -0.19518064E+03    0.00000000E+00    0.24705495E-08

Total Energy:                     -193.2535382844 H        -5258.6963 eV
Extrapolated to 0K:               -193.2535382844 H        -5258.6963 eV
Total Mermin free energy:         -193.2535382844 H        -5258.6963 eV
Force related energy:             -193.2535382844 H        -5258.6963 eV

Volume:                              0.111193E+05 au^3   0.164771E+04 A^3
Pressure:                            0.160428E-04 au     0.471996E+09 Pa
>> Charges saved for restart in charges.bin

total energy  -1.9325354E+02 H       energy change -1.4014413E-03 H
gradient norm  2.6902235E-02 H/a0    max. gradient  8.7569693E-03 H/a0
step length    1.4666618E-01 a0      max. step      2.6670066E-02 a0

--------------------------------------------------------------------------------

***  Geometry step: 24

 iSCC Total electronic   Diff electronic      SCC error    
    1   -0.19518064E+03    0.00000000E+00    0.43631333E-02
    2   -0.19516998E+03    0.10665425E-01    0.25216078E-02
    3   -0.19517000E+03   -0.24042111E-04    0.74622271E-03
    4   -0.19517001E+03   -0.40711272E-05    0.11697625E-03
    5   -0.19517001E+03   -0.12180072E-06    0.34956123E-04
    6   -0.19517001E+03   -0.78335916E-08    0.10992224E-04
    7   -0.19517001E+03   -0.13534418E-09    0.24137659E-05
    8   -0.19517001E+03   -0.63096195E-11    0.38441144E-06
    9   -0.19517001E+03   -0.96633812E-12    0.77310056E-07
   10   -0.19517001E+03   -0.28421709E-13    0.12361970E-07
   11   -0.19517001E+03   -0.28421709E-13    0.33673269E-08

Total Energy:                     -193.2544141790 H        -5258.7202 eV
Extrapolated to 0K:               -193.2544141790 H        -5258.7202 eV
Total Mermin free energy:         -193.2544141790 H        -5258.7202 eV
Force related energy:             -193.2544141790 H        -5258.7202 eV

Volume:                              0.111402E+05 au^3   0.165081E+04 A^3
Pressure:                            0.105012E-04 au     0.308957E+09 Pa
>> Charges saved for restart in charges.bin

total energy  -1.9325441E+02 H       energy change -8.7589465E-04 H
gradient norm  2.1829202E-02 H/a0    max. gradient  6.1279672E-03 H/a0
step length    8.5333364E-02 a0      max. step      1.8809480E-02 a0

--------------------------------------------------------------------------------

***  Geometry step: 25

 iSCC Total electronic   Diff electronic      SCC error    
    1   -0.19517001E+03    0.00000000E+00    0.41348299E-02
    2   -0.19516622E+03    0.37837023E-02    0.16746960E-02
    3   -0.19516624E+03   -0.14946490E-04    0.53939824E-03
    4   -0.19516624E+03   -0.19651082E-05    0.61425943E-04
    5   -0.19516624E+03   -0.58551052E-07    0.12749477E-04
    6   -0.19516624E+03   -0.38798191E-08    0.49323626E-05
    7   -0.19516624E+03   -0.52722271E-10    0.14276974E-05
    8   -0.19516624E+03   -0.18189894E-11    0.35856867E-06
    9   -0.19516624E+03   -0.11368684E-12    0.74513775E-07
   10   -0.19516624E+03   -0.56843419E-13    0.11955765E-07
   11   -0.19516624E+03   -0.28421709E-13    0.17459012E-08

Total Energy:                     -193.2550863923 H        -5258.7385 eV
Extrapolated to 0K:               -193.2550863923 H        -5258.7385 eV
Total Mermin free energy:         -193.2550863923 H        -5258.7385 eV
Force related energy:             -193.2550863923 H        -5258.7385 eV

Volume:                              0.111546E+05 au^3   0.165294E+04 A^3
Pressure:                            0.764037E-05 au     0.224787E+09 Pa
>> Charges saved for restart in charges.bin

total energy  -1.9325509E+02 H       energy change -6.7221331E-04 H
gradient norm  2.2877584E-02 H/a0    max. gradient  5.5976819E-03 H/a0
step length    6.5735569E-02 a0      max. step      1.8207583E-02 a0

--------------------------------------------------------------------------------

***  Geometry step: 26

 iSCC Total electronic   Diff electronic      SCC error    
    1   -0.19516624E+03    0.00000000E+00    0.53376118E-02
    2   -0.19516804E+03   -0.17997139E-02    0.30241050E-02
    3   -0.19516807E+03   -0.29387901E-04    0.90752341E-03
    4   -0.19516807E+03   -0.38781528E-05    0.89178645E-04
    5   -0.19516807E+03   -0.15288501E-06    0.24419647E-04
    6   -0.19516807E+03   -0.71472357E-08    0.91499858E-05
    7   -0.19516807E+03   -0.78330231E-10    0.19764638E-05
    8   -0.19516807E+03   -0.55706550E-11    0.42554334E-06
    9   -0.19516807E+03   -0.82422957E-12    0.95949339E-07
   10   -0.19516807E+03    0.00000000E+00    0.14899596E-07
   11   -0.19516807E+03    0.85265128E-13    0.25584228E-08

Total Energy:                     -193.2560961755 H        -5258.7659 eV
Extrapolated to 0K:               -193.2560961755 H        -5258.7659 eV
Total Mermin free energy:         -193.2560961755 H        -5258.7659 eV
Force related energy:             -193.2560961755 H        -5258.7659 eV

Volume:                              0.111774E+05 au^3   0.165632E+04 A^3
Pressure:                            0.668165E-05 au     0.196581E+09 Pa
>> Charges saved for restart in charges.bin

total energy  -1.9325610E+02 H       energy change -1.0097832E-03 H
gradient norm  2.4716367E-02 H/a0    max. gradient  6.0889337E-03 H/a0
step length    1.1815014E-01 a0      max. step      3.2545201E-02 a0

--------------------------------------------------------------------------------

***  Geometry step: 27

 iSCC Total electronic   Diff electronic      SCC error    
    1   -0.19516807E+03    0.00000000E+00    0.52725065E-02
    2   -0.19517337E+03   -0.52987808E-02    0.26338138E-02
    3   -0.19517340E+03   -0.23499047E-04    0.76725132E-03
    4   -0.19517340E+03   -0.37421157E-05    0.14041338E-03
    5   -0.19517340E+03   -0.19396433E-06    0.48465537E-04
    6   -0.19517340E+03   -0.59203273E-08    0.12257705E-04
    7   -0.19517340E+03   -0.10712142E-09    0.18712401E-05
    8   -0.19517340E+03   -0.80717655E-11    0.30185037E-06
    9   -0.19517340E+03   -0.10800250E-11    0.59894778E-07
   10   -0.19517340E+03   -0.85265128E-13    0.10636295E-07
   11   -0.19517340E+03    0.28421709E-13    0.31254914E-08

Total Energy:                     -193.2570103654 H        -5258.7908 eV
Extrapolated to 0K:               -193.2570103654 H        -5258.7908 eV
Total Mermin free energy:         -193.2570103654 H        -5258.7908 eV
Force related energy:             -193.2570103654 H        -5258.7908 eV

Volume:                              0.112047E+05 au^3   0.166036E+04 A^3
Pressure:                            0.712971E-05 au     0.209763E+09 Pa
>> Charges saved for restart in charges.bin

total energy  -1.9325701E+02 H       energy change -9.1418986E-04 H
gradient norm  2.2452830E-02 H/a0    max. gradient  5.7662652E-03 H/a0
step length    1.4499305E-01 a0      max. step      3.7458864E-02 a0

--------------------------------------------------------------------------------

***  Geometry step: 28

 iSCC Total electronic   Diff electronic      SCC error    
    1   -0.19517340E+03    0.00000000E+00    0.46377029E-02
    2   -0.19517942E+03   -0.60161171E-02    0.26796205E-02
    3   -0.19517943E+03   -0.17495093E-04    0.78528435E-03
    4   -0.19517944E+03   -0.31670533E-05    0.14173113E-03
    5   -0.19517944E+03   -0.15701937E-06    0.50989603E-04
    6   -0.19517944E+03   -0.42587374E-08    0.12194178E-04
    7   -0.19517944E+03   -0.11687007E-09    0.19056764E-05
    8   -0.19517944E+03   -0.89244168E-11    0.31467691E-06
    9   -0.19517944E+03   -0.96633812E-12    0.82150757E-07
   10   -0.19517944E+03   -0.85265128E-13    0.10497326E-07
   11   -0.19517944E+03    0.00000000E+00    0.28202694E-08

Total Energy:                     -193.2577302283 H        -5258.8104 eV
Extrapolated to 0K:               -193.2577302283 H        -5258.8104 eV
Total Mermin free energy:         -193.2577302283 H        -5258.8104 eV
Force related energy:             -193.2577302283 H        -5258.8104 eV

Volume:                              0.112301E+05 au^3   0.166413E+04 A^3
Pressure:                            0.787839E-05 au     0.231790E+09 Pa
>> Charges saved for restart in charges.bin

total energy  -1.9325773E+02 H       energy change -7.1986296E-04 H
gradient norm  1.8457948E-02 H/a0    max. gradient  3.8268226E-03 H/a0
step length    1.4498461E-01 a0      max. step      3.3938943E-02 a0

--------------------------------------------------------------------------------

***  Geometry step: 29

 iSCC Total electronic   Diff electronic      SCC error    
    1   -0.19517944E+03    0.00000000E+00    0.34365878E-02
    2   -0.19518370E+03   -0.42579883E-02    0.19567236E-02
    3   -0.19518371E+03   -0.10979928E-04    0.62699347E-03
    4   -0.19518371E+03   -0.19698808E-05    0.10857727E-03
    5   -0.19518371E+03   -0.85879918E-07    0.38627383E-04
    6   -0.19518371E+03   -0.24813005E-08    0.86083328E-05
    7   -0.19518371E+03   -0.61788796E-10    0.12333596E-05
    8   -0.19518371E+03   -0.51443294E-11    0.19228613E-06
    9   -0.19518371E+03   -0.51159077E-12    0.44496961E-07
   10   -0.19518371E+03   -0.85265128E-13    0.64248282E-08

Total Energy:                     -193.2582386537 H        -5258.8242 eV
Extrapolated to 0K:               -193.2582386537 H        -5258.8242 eV
Total Mermin free energy:         -193.2582386537 H        -5258.8242 eV
Force related energy:             -193.2582386537 H        -5258.8242 eV

Volume:                              0.112489E+05 au^3   0.166691E+04 A^3
Pressure:                            0.848180E-05 au     0.249543E+09 Pa
>> Charges saved for restart in charges.bin

total energy  -1.9325824E+02 H       energy change -5.0842539E-04 H
gradient norm  1.5761877E-02 H/a0    max. gradient  4.7594880E-03 H/a0
step length    1.1478910E-01 a0      max. step      2.3880009E-02 a0

--------------------------------------------------------------------------------

***  Geometry step: 30

 iSCC Total electronic   Diff electronic      SCC error    
    1   -0.19518371E+03    0.00000000E+00    0.32982640E-02
    2   -0.19518472E+03   -0.10079503E-02    0.18952072E-02
    3   -0.19518472E+03   -0.68223947E-05    0.44394324E-03
    4   -0.19518472E+03   -0.12853337E-05    0.82409497E-04
    5   -0.19518472E+03   -0.52705730E-07    0.27944113E-04
    6   -0.19518472E+03   -0.13233148E-08    0.55208664E-05
    7   -0.19518472E+03   -0.26744829E-10    0.71554523E-06
    8   -0.19518472E+03   -0.22737368E-11    0.12554384E-06
    9   -0.19518472E+03   -0.28421709E-12    0.28992054E-07
   10   -0.19518472E+03    0.28421709E-13    0.27777070E-08

Total Energy:                     -193.2586234866 H        -5258.8347 eV
Extrapolated to 0K:               -193.2586234866 H        -5258.8347 eV
Total Mermin free energy:         -193.2586234866 H        -5258.8347 eV
Force related energy:             -193.2586234866 H        -5258.8347 eV

Volume:                              0.112615E+05 au^3   0.166879E+04 A^3
Pressure:                            0.838876E-05 au     0.246806E+09 Pa
>> Charges saved for restart in charges.bin

total energy  -1.9325862E+02 H       energy change -3.8483285E-04 H
gradient norm  1.4873191E-02 H/a0    max. gradient  5.7359393E-03 H/a0
step length    8.3829202E-02 a0      max. step      1.5726905E-02 a0

--------------------------------------------------------------------------------

***  Geometry step: 31

 iSCC Total electronic   Diff electronic      SCC error    
    1   -0.19518472E+03    0.00000000E+00    0.41066436E-02
    2   -0.19518215E+03    0.25712021E-02    0.23540502E-02
    3   -0.19518216E+03   -0.45658572E-05    0.39090423E-03
    4   -0.19518216E+03   -0.93541630E-06    0.58655805E-04
    5   -0.19518216E+03   -0.46793872E-07    0.21240327E-04
    6   -0.19518216E+03   -0.10212773E-08    0.41890822E-05
    7   -0.19518216E+03   -0.25551117E-10    0.84963175E-06
    8   -0.19518216E+03   -0.16768809E-11    0.15399614E-06
    9   -0.19518216E+03   -0.85265128E-13    0.19159805E-07
   10   -0.19518216E+03    0.00000000E+00    0.33977776E-08

Total Energy:                     -193.2589790903 H        -5258.8444 eV
Extrapolated to 0K:               -193.2589790903 H        -5258.8444 eV
Total Mermin free energy:         -193.2589790903 H        -5258.8444 eV
Force related energy:             -193.2589790903 H        -5258.8444 eV

Volume:                              0.112713E+05 au^3   0.167023E+04 A^3
Pressure:                            0.697817E-05 au     0.205305E+09 Pa
>> Charges saved for restart in charges.bin

total energy  -1.9325898E+02 H       energy change -3.5560375E-04 H
gradient norm  1.4460450E-02 H/a0    max. gradient  5.0394590E-03 H/a0
step length    7.2397096E-02 a0      max. step      1.4541018E-02 a0

--------------------------------------------------------------------------------

***  Geometry step: 32

 iSCC Total electronic   Diff electronic      SCC error    
    1   -0.19518216E+03    0.00000000E+00    0.36780084E-02
    2   -0.19517849E+03    0.36691498E-02    0.21201339E-02
    3   -0.19517849E+03   -0.38287695E-05    0.33574657E-03
    4   -0.19517849E+03   -0.79194297E-06    0.30884695E-04
    5   -0.19517849E+03   -0.42656808E-07    0.11544113E-04
    6   -0.19517849E+03   -0.13349393E-08    0.33208135E-05
    7   -0.19517849E+03   -0.29075409E-10    0.74867466E-06
    8   -0.19517849E+03   -0.13073986E-11    0.20275354E-06
    9   -0.19517849E+03   -0.14210855E-12    0.42957735E-07
   10   -0.19517849E+03   -0.11368684E-12    0.58277596E-08

Total Energy:                     -193.2593479384 H        -5258.8544 eV
Extrapolated to 0K:               -193.2593479384 H        -5258.8544 eV
Total Mermin free energy:         -193.2593479384 H        -5258.8544 eV
Force related energy:             -193.2593479384 H        -5258.8544 eV

Volume:                              0.112788E+05 au^3   0.167135E+04 A^3
Pressure:                            0.509647E-05 au     0.149943E+09 Pa
>> Charges saved for restart in charges.bin

total energy  -1.9325935E+02 H       energy change -3.6884811E-04 H
gradient norm  1.5589341E-02 H/a0    max. gradient  3.2715735E-03 H/a0
step length    7.6980618E-02 a0      max. step      1.7406873E-02 a0

--------------------------------------------------------------------------------

***  Geometry step: 33

 iSCC Total electronic   Diff electronic      SCC error    
    1   -0.19517849E+03    0.00000000E+00    0.29071084E-02
    2   -0.19517498E+03    0.35100619E-02    0.17101388E-02
    3   -0.19517499E+03   -0.54755524E-05    0.38865622E-03
    4   -0.19517499E+03   -0.10308210E-05    0.38399083E-04
    5   -0.19517499E+03   -0.49831186E-07    0.11212273E-04
    6   -0.19517499E+03   -0.19979325E-08    0.39098534E-05
    7   -0.19517499E+03   -0.41950443E-10    0.10315382E-05
    8   -0.19517499E+03   -0.14495072E-11    0.29864920E-06
    9   -0.19517499E+03   -0.14210855E-12    0.71049762E-07
   10   -0.19517499E+03   -0.11368684E-12    0.10758138E-07
   11   -0.19517499E+03    0.85265128E-13    0.14861912E-08

Total Energy:                     -193.2598127085 H        -5258.8671 eV
Extrapolated to 0K:               -193.2598127085 H        -5258.8671 eV
Total Mermin free energy:         -193.2598127085 H        -5258.8671 eV
Force related energy:             -193.2598127085 H        -5258.8671 eV

Volume:                              0.112872E+05 au^3   0.167259E+04 A^3
Pressure:                            0.300166E-05 au     0.883117E+08 Pa
>> Charges saved for restart in charges.bin

total energy  -1.9325981E+02 H       energy change -4.6477009E-04 H
gradient norm  1.7156854E-02 H/a0    max. gradient  3.3160056E-03 H/a0
step length    1.0535739E-01 a0      max. step      2.4778863E-02 a0

--------------------------------------------------------------------------------

***  Geometry step: 34

 iSCC Total electronic   Diff electronic      SCC error    
    1   -0.19517499E+03    0.00000000E+00    0.28658361E-02
    2   -0.19517479E+03    0.20027005E-03    0.16114304E-02
    3   -0.19517480E+03   -0.80536099E-05    0.39881715E-03
    4   -0.19517480E+03   -0.13281055E-05    0.49400821E-04
    5   -0.19517480E+03   -0.48195318E-07    0.96359019E-05
    6   -0.19517480E+03   -0.20225457E-08    0.33862799E-05
    7   -0.19517480E+03   -0.32656544E-10    0.92199201E-06
    8   -0.19517480E+03   -0.11937118E-11    0.21427722E-06
    9   -0.19517480E+03   -0.85265128E-13    0.39163758E-07
   10   -0.19517480E+03   -0.56843419E-13    0.70369484E-08

Total Energy:                     -193.2603710756 H        -5258.8823 eV
Extrapolated to 0K:               -193.2603710756 H        -5258.8823 eV
Total Mermin free energy:         -193.2603710756 H        -5258.8823 eV
Force related energy:             -193.2603710756 H        -5258.8823 eV

Volume:                              0.112960E+05 au^3   0.167389E+04 A^3
Pressure:                            0.230364E-05 au     0.677754E+08 Pa
>> Charges saved for restart in charges.bin

total energy  -1.9326037E+02 H       energy change -5.5836708E-04 H
gradient norm  1.8870494E-02 H/a0    max. gradient  3.9889691E-03 H/a0
step length    1.3622062E-01 a0      max. step      3.2129088E-02 a0

--------------------------------------------------------------------------------

***  Geometry step: 35

 iSCC Total electronic   Diff electronic      SCC error    
    1   -0.19517480E+03    0.00000000E+00    0.37996004E-02
    2   -0.19517776E+03   -0.29586575E-02    0.20080231E-02
    3   -0.19517777E+03   -0.12803300E-04    0.57887135E-03
    4   -0.19517777E+03   -0.19955835E-05    0.59238457E-04
    5   -0.19517777E+03   -0.58700635E-07    0.18465461E-04
    6   -0.19517777E+03   -0.24294593E-08    0.60100716E-05
    7   -0.19517777E+03   -0.28336444E-10    0.13585129E-05
    8   -0.19517777E+03   -0.13073986E-11    0.22837554E-06
    9   -0.19517777E+03   -0.22737368E-12    0.40962369E-07
   10   -0.19517777E+03    0.00000000E+00    0.72517063E-08

Total Energy:                     -193.2609604141 H        -5258.8983 eV
Extrapolated to 0K:               -193.2609604141 H        -5258.8983 eV
Total Mermin free energy:         -193.2609604141 H        -5258.8983 eV
Force related energy:             -193.2609604141 H        -5258.8983 eV

Volume:                              0.113076E+05 au^3   0.167562E+04 A^3
Pressure:                            0.243396E-05 au     0.716095E+08 Pa
>> Charges saved for restart in charges.bin

total energy  -1.9326096E+02 H       energy change -5.8933851E-04 H
gradient norm  1.7507997E-02 H/a0    max. gradient  5.7454205E-03 H/a0
step length    1.6716504E-01 a0      max. step      3.7813047E-02 a0

--------------------------------------------------------------------------------

***  Geometry step: 36

 iSCC Total electronic   Diff electronic      SCC error    
    1   -0.19517777E+03    0.00000000E+00    0.44385591E-02
    2   -0.19518434E+03   -0.65660871E-02    0.25449596E-02
    3   -0.19518435E+03   -0.97321886E-05    0.64821749E-03
    4   -0.19518435E+03   -0.16039137E-05    0.61705636E-04
    5   -0.19518435E+03   -0.58669059E-07    0.21530055E-04
    6   -0.19518435E+03   -0.23130156E-08    0.70809558E-05
    7   -0.19518435E+03   -0.34674486E-10    0.10264717E-05
    8   -0.19518435E+03   -0.27284841E-11    0.23186113E-06
    9   -0.19518435E+03   -0.31263880E-12    0.40468041E-07
   10   -0.19518435E+03    0.85265128E-13    0.51326809E-08

Total Energy:                     -193.2614279345 H        -5258.9110 eV
Extrapolated to 0K:               -193.2614279345 H        -5258.9110 eV
Total Mermin free energy:         -193.2614279345 H        -5258.9110 eV
Force related energy:             -193.2614279345 H        -5258.9110 eV

Volume:                              0.113172E+05 au^3   0.167704E+04 A^3
Pressure:                            0.418810E-05 au     0.123218E+09 Pa
>> Charges saved for restart in charges.bin

total energy  -1.9326143E+02 H       energy change -4.6752034E-04 H
gradient norm  1.5574497E-02 H/a0    max. gradient  6.3782753E-03 H/a0
step length    1.4413490E-01 a0      max. step      3.0109428E-02 a0

--------------------------------------------------------------------------------

***  Geometry step: 37

 iSCC Total electronic   Diff electronic      SCC error    
    1   -0.19518435E+03    0.00000000E+00    0.38675598E-02
    2   -0.19519056E+03   -0.62124459E-02    0.22697829E-02
    3   -0.19519057E+03   -0.10423600E-04    0.63913440E-03
    4   -0.19519058E+03   -0.16359297E-05    0.56955122E-04
    5   -0.19519058E+03   -0.60554214E-07    0.19303925E-04
    6   -0.19519058E+03   -0.27506246E-08    0.68180465E-05
    7   -0.19519058E+03   -0.47464255E-10    0.10822206E-05
    8   -0.19519058E+03   -0.27853275E-11    0.23682356E-06
    9   -0.19519058E+03   -0.14210855E-12    0.50954010E-07
   10   -0.19519058E+03   -0.17053026E-12    0.63180527E-08

Total Energy:                     -193.2618198935 H        -5258.9217 eV
Extrapolated to 0K:               -193.2618198935 H        -5258.9217 eV
Total Mermin free energy:         -193.2618198935 H        -5258.9217 eV
Force related energy:             -193.2618198935 H        -5258.9217 eV

Volume:                              0.113265E+05 au^3   0.167841E+04 A^3
Pressure:                            0.607874E-05 au     0.178843E+09 Pa
>> Charges saved for restart in charges.bin

total energy  -1.9326182E+02 H       energy change -3.9195906E-04 H
gradient norm  1.4698091E-02 H/a0    max. gradient  5.0515156E-03 H/a0
step length    1.2813214E-01 a0      max. step      2.4737657E-02 a0

--------------------------------------------------------------------------------

***  Geometry step: 38

 iSCC Total electronic   Diff electronic      SCC error    
    1   -0.19519058E+03    0.00000000E+00    0.31251607E-02
    2   -0.19519383E+03   -0.32556318E-02    0.18482192E-02
    3   -0.19519384E+03   -0.80781424E-05    0.51863647E-03
    4   -0.19519384E+03   -0.12948120E-05    0.63325664E-04
    5   -0.19519384E+03   -0.52430210E-07    0.21980011E-04
    6   -0.19519384E+03   -0.28559839E-08    0.74474599E-05
    7   -0.19519384E+03   -0.61220362E-10    0.10197200E-05
    8   -0.19519384E+03   -0.28137492E-11    0.17303185E-06
    9   -0.19519384E+03   -0.28421709E-12    0.49019245E-07
   10   -0.19519384E+03    0.56843419E-13    0.60358829E-08

Total Energy:                     -193.2622067189 H        -5258.9322 eV
Extrapolated to 0K:               -193.2622067189 H        -5258.9322 eV
Total Mermin free energy:         -193.2622067189 H        -5258.9322 eV
Force related energy:             -193.2622067189 H        -5258.9322 eV

Volume:                              0.113359E+05 au^3   0.167980E+04 A^3
Pressure:                            0.668253E-05 au     0.196607E+09 Pa
>> Charges saved for restart in charges.bin

total energy  -1.9326221E+02 H       energy change -3.8682542E-04 H
gradient norm  1.5401707E-02 H/a0    max. gradient  4.0139275E-03 H/a0
step length    1.1752243E-01 a0      max. step      2.2363021E-02 a0

--------------------------------------------------------------------------------

***  Geometry step: 39

 iSCC Total electronic   Diff electronic      SCC error    
    1   -0.19519384E+03    0.00000000E+00    0.48718587E-02
    2   -0.19519482E+03   -0.98038908E-03    0.28765420E-02
    3   -0.19519484E+03   -0.14534716E-04    0.82183395E-03
    4   -0.19519484E+03   -0.21708979E-05    0.92799981E-04
    5   -0.19519484E+03   -0.99125543E-07    0.33159764E-04
    6   -0.19519484E+03   -0.45162665E-08    0.11370637E-04
    7   -0.19519484E+03   -0.83815621E-10    0.17317823E-05
    8   -0.19519484E+03   -0.51443294E-11    0.23558727E-06
    9   -0.19519484E+03   -0.34106051E-12    0.67060312E-07
   10   -0.19519484E+03   -0.56843419E-13    0.97797797E-08

Total Energy:                     -193.2627203847 H        -5258.9462 eV
Extrapolated to 0K:               -193.2627203847 H        -5258.9462 eV
Total Mermin free energy:         -193.2627203847 H        -5258.9462 eV
Force related energy:             -193.2627203847 H        -5258.9462 eV

Volume:                              0.113469E+05 au^3   0.168144E+04 A^3
Pressure:                            0.610513E-05 au     0.179619E+09 Pa
>> Charges saved for restart in charges.bin

total energy  -1.9326272E+02 H       energy change -5.1366576E-04 H
gradient norm  1.7125154E-02 H/a0    max. gradient  3.5810645E-03 H/a0
step length    1.5436084E-01 a0      max. step      3.0319794E-02 a0

--------------------------------------------------------------------------------

***  Geometry step: 40

 iSCC Total electronic   Diff electronic      SCC error    
    1   -0.19519484E+03    0.00000000E+00    0.43423982E-02
    2   -0.19519337E+03    0.14646862E-02    0.25528058E-02
    3   -0.19519339E+03   -0.13641478E-04    0.74814400E-03
    4   -0.19519339E+03   -0.18075310E-05    0.86766772E-04
    5   -0.19519339E+03   -0.10188219E-06    0.32299606E-04
    6   -0.19519339E+03   -0.32699745E-08    0.93017660E-05
    7   -0.19519339E+03   -0.58435035E-10    0.14485256E-05
    8   -0.19519339E+03   -0.44337867E-11    0.22698164E-06
    9   -0.19519339E+03   -0.39790393E-12    0.44911077E-07
   10   -0.19519339E+03    0.28421709E-13    0.85848209E-08

Total Energy:                     -193.2632240898 H        -5258.9599 eV
Extrapolated to 0K:               -193.2632240898 H        -5258.9599 eV
Total Mermin free energy:         -193.2632240898 H        -5258.9599 eV
Force related energy:             -193.2632240898 H        -5258.9599 eV

Volume:                              0.113554E+05 au^3   0.168269E+04 A^3
Pressure:                            0.511942E-05 au     0.150618E+09 Pa
>> Charges saved for restart in charges.bin

total energy  -1.9326322E+02 H       energy change -5.0370509E-04 H
gradient norm  1.6666914E-02 H/a0    max. gradient  3.9792256E-03 H/a0
step length    1.5597131E-01 a0      max. step      3.2975539E-02 a0

--------------------------------------------------------------------------------

***  Geometry step: 41

 iSCC Total electronic   Diff electronic      SCC error    
    1   -0.19519339E+03    0.00000000E+00    0.42739984E-02
    2   -0.19518948E+03    0.39040701E-02    0.16655277E-02
    3   -0.19518950E+03   -0.15913287E-04    0.49050477E-03
    4   -0.19518950E+03   -0.17987036E-05    0.62063169E-04
    5   -0.19518950E+03   -0.92300382E-07    0.23591670E-04
    6   -0.19518950E+03   -0.28292106E-08    0.62512762E-05
    7   -0.19518950E+03   -0.39136694E-10    0.11856970E-05
    8   -0.19518950E+03   -0.28137492E-11    0.18144139E-06
    9   -0.19518950E+03   -0.42632564E-12    0.38033741E-07
   10   -0.19518950E+03    0.11368684E-12    0.62310082E-08

Total Energy:                     -193.2636736938 H        -5258.9721 eV
Extrapolated to 0K:               -193.2636736938 H        -5258.9721 eV
Total Mermin free energy:         -193.2636736938 H        -5258.9721 eV
Force related energy:             -193.2636736938 H        -5258.9721 eV

Volume:                              0.113634E+05 au^3   0.168389E+04 A^3
Pressure:                            0.310724E-05 au     0.914182E+08 Pa
>> Charges saved for restart in charges.bin

total energy  -1.9326367E+02 H       energy change -4.4960404E-04 H
gradient norm  1.5219491E-02 H/a0    max. gradient  3.6919781E-03 H/a0
step length    1.5480166E-01 a0      max. step      3.4627423E-02 a0

--------------------------------------------------------------------------------

***  Geometry step: 42

 iSCC Total electronic   Diff electronic      SCC error    
    1   -0.19518950E+03    0.00000000E+00    0.36461461E-02
    2   -0.19518791E+03    0.15877949E-02    0.14827753E-02
    3   -0.19518792E+03   -0.98545355E-05    0.44493386E-03
    4   -0.19518793E+03   -0.12960882E-05    0.71633064E-04
    5   -0.19518793E+03   -0.53387879E-07    0.18009963E-04
    6   -0.19518793E+03   -0.28627767E-08    0.69739460E-05
    7   -0.19518793E+03   -0.50647486E-10    0.15042491E-05
    8   -0.19518793E+03   -0.19326762E-11    0.25804232E-06
    9   -0.19518793E+03   -0.17053026E-12    0.61417171E-07
   10   -0.19518793E+03   -0.85265128E-13    0.11325415E-07
   11   -0.19518793E+03    0.11368684E-12    0.12599672E-08

Total Energy:                     -193.2640477774 H        -5258.9823 eV
Extrapolated to 0K:               -193.2640477774 H        -5258.9823 eV
Total Mermin free energy:         -193.2640477774 H        -5258.9823 eV
Force related energy:             -193.2640477774 H        -5258.9823 eV

Volume:                              0.113691E+05 au^3   0.168472E+04 A^3
Pressure:                            0.224329E-05 au     0.659999E+08 Pa
>> Charges saved for restart in charges.bin

total energy  -1.9326405E+02 H       energy change -3.7408363E-04 H
gradient norm  1.4192178E-02 H/a0    max. gradient  2.9450335E-03 H/a0
step length    1.2229873E-01 a0      max. step      2.7842201E-02 a0

--------------------------------------------------------------------------------

***  Geometry step: 43

 iSCC Total electronic   Diff electronic      SCC error    
    1   -0.19518793E+03    0.00000000E+00    0.35900086E-02
    2   -0.19518816E+03   -0.23389448E-03    0.18459862E-02
    3   -0.19518817E+03   -0.11298020E-04    0.56695232E-03
    4   -0.19518817E+03   -0.17811991E-05    0.75892114E-04
    5   -0.19518817E+03   -0.67305280E-07    0.11426794E-04
    6   -0.19518817E+03   -0.37958046E-08    0.44294696E-05
    7   -0.19518817E+03   -0.70372153E-10    0.11760231E-05
    8   -0.19518817E+03   -0.18758328E-11    0.28158733E-06
    9   -0.19518817E+03   -0.17053026E-12    0.50204367E-07
   10   -0.19518817E+03    0.00000000E+00    0.10121636E-07
   11   -0.19518817E+03   -0.28421709E-13    0.11745631E-08

Total Energy:                     -193.2644225533 H        -5258.9925 eV
Extrapolated to 0K:               -193.2644225533 H        -5258.9925 eV
Total Mermin free energy:         -193.2644225533 H        -5258.9925 eV
Force related energy:             -193.2644225533 H        -5258.9925 eV

Volume:                              0.113766E+05 au^3   0.168583E+04 A^3
Pressure:                            0.175005E-05 au     0.514882E+08 Pa
>> Charges saved for restart in charges.bin

total energy  -1.9326442E+02 H       energy change -3.7477588E-04 H
gradient norm  1.4201850E-02 H/a0    max. gradient  3.0462701E-03 H/a0
step length    1.2776254E-01 a0      max. step      2.8081597E-02 a0

--------------------------------------------------------------------------------

***  Geometry step: 44

 iSCC Total electronic   Diff electronic      SCC error    
    1   -0.19518817E+03    0.00000000E+00    0.37407164E-02
    2   -0.19519158E+03   -0.34111382E-02    0.22508773E-02
    3   -0.19519159E+03   -0.76913602E-05    0.61121829E-03
    4   -0.19519159E+03   -0.13150270E-05    0.78976379E-04
    5   -0.19519159E+03   -0.55219630E-07    0.20197241E-04
    6   -0.19519159E+03   -0.35345522E-08    0.71446102E-05
    7   -0.19519159E+03   -0.65654149E-10    0.13264046E-05
    8   -0.19519159E+03   -0.25863756E-11    0.33563536E-06
    9   -0.19519159E+03   -0.11368684E-12    0.52448676E-07
   10   -0.19519159E+03   -0.56843419E-13    0.73339050E-08

Total Energy:                     -193.2647411671 H        -5259.0012 eV
Extrapolated to 0K:               -193.2647411671 H        -5259.0012 eV
Total Mermin free energy:         -193.2647411671 H        -5259.0012 eV
Force related energy:             -193.2647411671 H        -5259.0012 eV

Volume:                              0.113835E+05 au^3   0.168686E+04 A^3
Pressure:                            0.261660E-05 au     0.769830E+08 Pa
>> Charges saved for restart in charges.bin

total energy  -1.9326474E+02 H       energy change -3.1861373E-04 H
gradient norm  1.3054276E-02 H/a0    max. gradient  2.7896242E-03 H/a0
step length    1.2108340E-01 a0      max. step      2.4815734E-02 a0

--------------------------------------------------------------------------------

***  Geometry step: 45

 iSCC Total electronic   Diff electronic      SCC error    
    1   -0.19519159E+03    0.00000000E+00    0.29606138E-02
    2   -0.19519557E+03   -0.39817609E-02    0.17312463E-02
    3   -0.19519558E+03   -0.66515522E-05    0.46307822E-03
    4   -0.19519558E+03   -0.10564294E-05    0.58270081E-04
    5   -0.19519558E+03   -0.46313431E-07    0.19265104E-04
    6   -0.19519558E+03   -0.26400073E-08    0.65142428E-05
    7   -0.19519558E+03   -0.59429794E-10    0.10682420E-05
    8   -0.19519558E+03   -0.25863756E-11    0.26578975E-06
    9   -0.19519558E+03   -0.85265128E-13    0.44063134E-07
   10   -0.19519558E+03   -0.56843419E-13    0.57973502E-08

Total Energy:                     -193.2650178911 H        -5259.0087 eV
Extrapolated to 0K:               -193.2650178911 H        -5259.0087 eV
Total Mermin free energy:         -193.2650178911 H        -5259.0087 eV
Force related energy:             -193.2650178911 H        -5259.0087 eV

Volume:                              0.113909E+05 au^3   0.168795E+04 A^3
Pressure:                            0.368442E-05 au     0.108399E+09 Pa
>> Charges saved for restart in charges.bin

total energy  -1.9326502E+02 H       energy change -2.7672402E-04 H
gradient norm  1.1759207E-02 H/a0    max. gradient  3.1261404E-03 H/a0
step length    1.2267309E-01 a0      max. step      2.4023410E-02 a0

--------------------------------------------------------------------------------

***  Geometry step: 46

 iSCC Total electronic   Diff electronic      SCC error    
    1   -0.19519558E+03    0.00000000E+00    0.24592124E-02
    2   -0.19519869E+03   -0.31049360E-02    0.14722421E-02
    3   -0.19519869E+03   -0.55507229E-05    0.46261230E-03
    4   -0.19519869E+03   -0.71111978E-06    0.51546005E-04
    5   -0.19519869E+03   -0.34974420E-07    0.15799024E-04
    6   -0.19519869E+03   -0.19697950E-08    0.51518414E-05
    7   -0.19519869E+03   -0.42831516E-10    0.61121300E-06
    8   -0.19519869E+03   -0.22453150E-11    0.13099102E-06
    9   -0.19519869E+03   -0.28421709E-13    0.38743047E-07
   10   -0.19519869E+03   -0.17053026E-12    0.45808437E-08

Total Energy:                     -193.2652616538 H        -5259.0153 eV
Extrapolated to 0K:               -193.2652616538 H        -5259.0153 eV
Total Mermin free energy:         -193.2652616538 H        -5259.0153 eV
Force related energy:             -193.2652616538 H        -5259.0153 eV

Volume:                              0.113983E+05 au^3   0.168906E+04 A^3
Pressure:                            0.436921E-05 au     0.128546E+09 Pa
>> Charges saved for restart in charges.bin

total energy  -1.9326526E+02 H       energy change -2.4376275E-04 H
gradient norm  1.1770781E-02 H/a0    max. gradient  3.4016475E-03 H/a0
step length    1.1893294E-01 a0      max. step      2.3262422E-02 a0

--------------------------------------------------------------------------------

***  Geometry step: 47

 iSCC Total electronic   Diff electronic      SCC error    
    1   -0.19519869E+03    0.00000000E+00    0.31071441E-02
    2   -0.19520073E+03   -0.20397272E-02    0.14926990E-02
    3   -0.19520074E+03   -0.72254404E-05    0.45589255E-03
    4   -0.19520074E+03   -0.92032917E-06    0.73009062E-04
    5   -0.19520074E+03   -0.48424738E-07    0.23514679E-04
    6   -0.19520074E+03   -0.27386307E-08    0.75091538E-05
    7   -0.19520074E+03   -0.53319127E-10    0.85380937E-06
    8   -0.19520074E+03   -0.25863756E-11    0.12726723E-06
    9   -0.19520074E+03   -0.22737368E-12    0.32827384E-07
   10   -0.19520074E+03    0.00000000E+00    0.42588910E-08

Total Energy:                     -193.2655361659 H        -5259.0228 eV
Extrapolated to 0K:               -193.2655361659 H        -5259.0228 eV
Total Mermin free energy:         -193.2655361659 H        -5259.0228 eV
Force related energy:             -193.2655361659 H        -5259.0228 eV

Volume:                              0.114058E+05 au^3   0.169017E+04 A^3
Pressure:                            0.482113E-05 au     0.141842E+09 Pa
>> Charges saved for restart in charges.bin

total energy  -1.9326554E+02 H       energy change -2.7451205E-04 H
gradient norm  1.2503305E-02 H/a0    max. gradient  3.1563533E-03 H/a0
step length    1.3235175E-01 a0      max. step      2.7789738E-02 a0

--------------------------------------------------------------------------------

***  Geometry step: 48

 iSCC Total electronic   Diff electronic      SCC error    
    1   -0.19520074E+03    0.00000000E+00    0.34543268E-02
    2   -0.19519996E+03    0.77864992E-03    0.19931556E-02
    3   -0.19519997E+03   -0.72576464E-05    0.50632041E-03
    4   -0.19519997E+03   -0.10818314E-05    0.94097654E-04
    5   -0.19519997E+03   -0.59369597E-07    0.21865265E-04
    6   -0.19519997E+03   -0.34402774E-08    0.69257041E-05
    7   -0.19519997E+03   -0.56758154E-10    0.12920755E-05
    8   -0.19519997E+03   -0.20747848E-11    0.23688094E-06
    9   -0.19519997E+03   -0.19895197E-12    0.57392790E-07
   10   -0.19519997E+03   -0.11368684E-12    0.86873242E-08

Total Energy:                     -193.2657976037 H        -5259.0299 eV
Extrapolated to 0K:               -193.2657976037 H        -5259.0299 eV
Total Mermin free energy:         -193.2657976037 H        -5259.0299 eV
Force related energy:             -193.2657976037 H        -5259.0299 eV

Volume:                              0.114124E+05 au^3   0.169115E+04 A^3
Pressure:                            0.419865E-05 au     0.123529E+09 Pa
>> Charges saved for restart in charges.bin

total energy  -1.9326580E+02 H       energy change -2.6143784E-04 H
gradient norm  1.1868506E-02 H/a0    max. gradient  2.0108601E-03 H/a0
step length    1.2120128E-01 a0      max. step      2.7281262E-02 a0

--------------------------------------------------------------------------------

***  Geometry step: 49

 iSCC Total electronic   Diff electronic      SCC error    
    1   -0.19519997E+03    0.00000000E+00    0.32117213E-02
    2   -0.19519814E+03    0.18265467E-02    0.18363243E-02
    3   -0.19519815E+03   -0.64876414E-05    0.45076321E-03
    4   -0.19519815E+03   -0.11121337E-05    0.67028989E-04
    5   -0.19519815E+03   -0.47778457E-07    0.12362848E-04
    6   -0.19519815E+03   -0.33990943E-08    0.40505878E-05
    7   -0.19519815E+03   -0.53432814E-10    0.11681146E-05
    8   -0.19519815E+03   -0.13358203E-11    0.30467930E-06
    9   -0.19519815E+03   -0.11368684E-12    0.55536308E-07
   10   -0.19519815E+03    0.28421709E-13    0.78534335E-08

Total Energy:                     -193.2660089980 H        -5259.0357 eV
Extrapolated to 0K:               -193.2660089980 H        -5259.0357 eV
Total Mermin free energy:         -193.2660089980 H        -5259.0357 eV
Force related energy:             -193.2660089980 H        -5259.0357 eV

Volume:                              0.114150E+05 au^3   0.169152E+04 A^3
Pressure:                            0.340531E-05 au     0.100188E+09 Pa
>> Charges saved for restart in charges.bin

total energy  -1.9326601E+02 H       energy change -2.1139424E-04 H
gradient norm  1.0061308E-02 H/a0    max. gradient  1.8398293E-03 H/a0
step length    8.4897588E-02 a0      max. step      2.0972645E-02 a0

--------------------------------------------------------------------------------

***  Geometry step: 50

 iSCC Total electronic   Diff electronic      SCC error    
    1   -0.19519815E+03    0.00000000E+00    0.21499674E-02
    2   -0.19519603E+03    0.21267124E-02    0.11587654E-02
    3   -0.19519603E+03   -0.41367331E-05    0.30680630E-03
    4   -0.19519603E+03   -0.71047378E-06    0.38835672E-04
    5   -0.19519603E+03   -0.20289036E-07    0.65482957E-05
    6   -0.19519603E+03   -0.11729071E-08    0.14986854E-05
    7   -0.19519603E+03   -0.29018565E-10    0.29662196E-06
    8   -0.19519603E+03   -0.54001248E-12    0.88880738E-07
    9   -0.19519603E+03   -0.85265128E-13    0.28985951E-07
   10   -0.19519603E+03   -0.28421709E-13    0.66427348E-08

Total Energy:                     -193.2661619587 H        -5259.0398 eV
Extrapolated to 0K:               -193.2661619587 H        -5259.0398 eV
Total Mermin free energy:         -193.2661619587 H        -5259.0398 eV
Force related energy:             -193.2661619587 H        -5259.0398 eV

Volume:                              0.114169E+05 au^3   0.169181E+04 A^3
Pressure:                            0.253410E-05 au     0.745557E+08 Pa
>> Charges saved for restart in charges.bin

[...]
Force related energy:             -193.2759553494 H        -5259.3063 eV

Volume:                              0.111912E+05 au^3   0.165837E+04 A^3
Pressure:                           -0.506746E-07 au    -0.149090E+07 Pa
>> Charges saved for restart in charges.bin

total energy  -1.9327596E+02 H       energy change -4.5592344E-08 H
gradient norm  8.8571443E-04 H/a0    max. gradient  3.7359935E-04 H/a0
step length    1.0822617E-02 a0      max. step      2.2490554E-03 a0

--------------------------------------------------------------------------------

***  Geometry step: 182

 iSCC Total electronic   Diff electronic      SCC error    
    1   -0.19518492E+03    0.00000000E+00    0.18943388E-03
    2   -0.19518501E+03   -0.93569670E-04    0.87092991E-04
    3   -0.19518501E+03   -0.32338846E-07    0.19782957E-04
    4   -0.19518501E+03   -0.54419047E-08    0.31013947E-05
    5   -0.19518501E+03   -0.92910568E-10    0.84542698E-06
    6   -0.19518501E+03   -0.45758952E-11    0.22768150E-06
    7   -0.19518501E+03   -0.14210855E-12    0.28117634E-07
    8   -0.19518501E+03   -0.56843419E-13    0.36022962E-08

Total Energy:                     -193.2759560970 H        -5259.3064 eV
Extrapolated to 0K:               -193.2759560970 H        -5259.3064 eV
Total Mermin free energy:         -193.2759560970 H        -5259.3064 eV
Force related energy:             -193.2759560970 H        -5259.3064 eV

Volume:                              0.111911E+05 au^3   0.165836E+04 A^3
Pressure:                           -0.163560E-07 au    -0.481210E+06 Pa
>> Charges saved for restart in charges.bin

total energy  -1.9327596E+02 H       energy change -7.4765478E-07 H
gradient norm  4.3132923E-04 H/a0    max. gradient  1.3613130E-04 H/a0
step length    4.6957873E-03 a0      max. step      1.0966132E-03 a0

--------------------------------------------------------------------------------

***  Geometry step: 183

 iSCC Total electronic   Diff electronic      SCC error    
    1   -0.19518501E+03    0.00000000E+00    0.53941006E-04
    2   -0.19518501E+03   -0.72134966E-06    0.18764177E-04
    3   -0.19518501E+03   -0.24029987E-08    0.42598826E-05
    4   -0.19518501E+03   -0.37334758E-09    0.96481941E-06
    5   -0.19518501E+03   -0.58548721E-11    0.27756941E-06
    6   -0.19518501E+03   -0.22737368E-12    0.71462172E-07
    7   -0.19518501E+03   -0.28421709E-13    0.12439130E-07
    8   -0.19518501E+03    0.56843419E-13    0.12281798E-08

Total Energy:                     -193.2759561525 H        -5259.3064 eV
Extrapolated to 0K:               -193.2759561525 H        -5259.3064 eV
Total Mermin free energy:         -193.2759561525 H        -5259.3064 eV
Force related energy:             -193.2759561525 H        -5259.3064 eV

Volume:                              0.111911E+05 au^3   0.165836E+04 A^3
Pressure:                           -0.229700E-07 au    -0.675800E+06 Pa
>> Charges saved for restart in charges.bin

total energy  -1.9327596E+02 H       energy change -5.5439443E-08 H
gradient norm  5.1329249E-04 H/a0    max. gradient  2.1337717E-04 H/a0
step length    4.3132923E-04 a0      max. step      1.3613130E-04 a0

--------------------------------------------------------------------------------

***  Geometry step: 184

 iSCC Total electronic   Diff electronic      SCC error    
    1   -0.19518501E+03    0.00000000E+00    0.44105695E-04
    2   -0.19518500E+03    0.65737581E-05    0.17804459E-04
    3   -0.19518500E+03   -0.11214638E-08    0.37949591E-05
    4   -0.19518500E+03   -0.19048230E-09    0.52807651E-06
    5   -0.19518500E+03   -0.33821834E-11    0.15811241E-06
    6   -0.19518500E+03   -0.22737368E-12    0.35813053E-07
    7   -0.19518500E+03    0.28421709E-13    0.32466057E-08

Total Energy:                     -193.2759562817 H        -5259.3064 eV
Extrapolated to 0K:               -193.2759562817 H        -5259.3064 eV
Total Mermin free energy:         -193.2759562817 H        -5259.3064 eV
Force related energy:             -193.2759562817 H        -5259.3064 eV

Volume:                              0.111912E+05 au^3   0.165836E+04 A^3
Pressure:                           -0.197377E-07 au    -0.580703E+06 Pa
>> Charges saved for restart in charges.bin

total energy  -1.9327596E+02 H       energy change -1.2925898E-07 H
gradient norm  3.4921257E-04 H/a0    max. gradient  1.3138093E-04 H/a0
step length    5.3776685E-04 a0      max. step      9.3425029E-05 a0

--------------------------------------------------------------------------------

***  Geometry step: 185

 iSCC Total electronic   Diff electronic      SCC error    
    1   -0.19518500E+03    0.00000000E+00    0.93985481E-04
    2   -0.19518500E+03    0.90578827E-05    0.49737089E-04
    3   -0.19518500E+03   -0.60221623E-08    0.11483662E-04
    4   -0.19518500E+03   -0.10853967E-08    0.14756547E-05
    5   -0.19518500E+03   -0.25750069E-10    0.49704338E-06
    6   -0.19518500E+03   -0.93791641E-12    0.13921530E-06
    7   -0.19518500E+03    0.00000000E+00    0.16353756E-07
    8   -0.19518500E+03   -0.28421709E-13    0.28791587E-08

Total Energy:                     -193.2759565040 H        -5259.3064 eV
Extrapolated to 0K:               -193.2759565040 H        -5259.3064 eV
Total Mermin free energy:         -193.2759565040 H        -5259.3064 eV
Force related energy:             -193.2759565040 H        -5259.3064 eV

Volume:                              0.111912E+05 au^3   0.165836E+04 A^3
Pressure:                           -0.214734E-07 au    -0.631768E+06 Pa
>> Charges saved for restart in charges.bin

total energy  -1.9327596E+02 H       energy change -2.2228252E-07 H
gradient norm  3.8210294E-04 H/a0    max. gradient  1.2095650E-04 H/a0
step length    1.4727273E-03 a0      max. step      2.1788603E-04 a0

--------------------------------------------------------------------------------

***  Geometry step: 186

 iSCC Total electronic   Diff electronic      SCC error    
    1   -0.19518500E+03    0.00000000E+00    0.71098501E-04
    2   -0.19518497E+03    0.25744526E-04    0.27503143E-04
    3   -0.19518497E+03   -0.69456121E-08    0.87329160E-05
    4   -0.19518497E+03   -0.10477947E-08    0.12457060E-05
    5   -0.19518497E+03   -0.17507773E-10    0.29417375E-06
    6   -0.19518497E+03   -0.96633812E-12    0.10007216E-06
    7   -0.19518497E+03   -0.28421709E-13    0.20013974E-07
    8   -0.19518497E+03    0.00000000E+00    0.29552081E-08

Total Energy:                     -193.2759567736 H        -5259.3064 eV
Extrapolated to 0K:               -193.2759567736 H        -5259.3064 eV
Total Mermin free energy:         -193.2759567736 H        -5259.3064 eV
Force related energy:             -193.2759567736 H        -5259.3064 eV

Volume:                              0.111912E+05 au^3   0.165837E+04 A^3
Pressure:                           -0.562834E-07 au    -0.165591E+07 Pa
>> Charges saved for restart in charges.bin

total energy  -1.9327596E+02 H       energy change -2.6956570E-07 H
gradient norm  5.7736615E-04 H/a0    max. gradient  2.2994155E-04 H/a0
step length    3.7157660E-03 a0      max. step      8.5956479E-04 a0

--------------------------------------------------------------------------------

***  Geometry step: 187

 iSCC Total electronic   Diff electronic      SCC error    
    1   -0.19518497E+03    0.00000000E+00    0.84212665E-04
    2   -0.19518501E+03   -0.44414220E-04    0.24797868E-04
    3   -0.19518501E+03   -0.48827928E-08    0.66557555E-05
    4   -0.19518501E+03   -0.76923357E-09    0.15859945E-05
    5   -0.19518501E+03   -0.16967761E-10    0.17543161E-06
    6   -0.19518501E+03   -0.56843419E-12    0.29025279E-07
    7   -0.19518501E+03   -0.28421709E-13    0.10189937E-07
    8   -0.19518501E+03    0.85265128E-13    0.24793043E-08

Total Energy:                     -193.2759567930 H        -5259.3064 eV
Extrapolated to 0K:               -193.2759567930 H        -5259.3064 eV
Total Mermin free energy:         -193.2759567930 H        -5259.3064 eV
Force related energy:             -193.2759567930 H        -5259.3064 eV

Volume:                              0.111912E+05 au^3   0.165836E+04 A^3
Pressure:                           -0.270726E-07 au    -0.796502E+06 Pa
>> Charges saved for restart in charges.bin

total energy  -1.9327596E+02 H       energy change -1.9451704E-08 H
gradient norm  6.7224486E-04 H/a0    max. gradient  2.7427474E-04 H/a0
step length    4.6144151E-04 a0      max. step      1.7223431E-04 a0

--------------------------------------------------------------------------------

***  Geometry step: 188

 iSCC Total electronic   Diff electronic      SCC error    
    1   -0.19518501E+03    0.00000000E+00    0.15767348E-03
    2   -0.19518483E+03    0.18200552E-03    0.47943966E-04
    3   -0.19518483E+03   -0.15155109E-07    0.13849937E-04
    4   -0.19518483E+03   -0.19412596E-08    0.34912733E-05
    5   -0.19518483E+03   -0.36550318E-10    0.24942812E-06
    6   -0.19518483E+03   -0.13642421E-11    0.80787323E-07
    7   -0.19518483E+03   -0.14210855E-12    0.24845594E-07
    8   -0.19518483E+03    0.14210855E-12    0.36896619E-08

Total Energy:                     -193.2759567315 H        -5259.3064 eV
Extrapolated to 0K:               -193.2759567315 H        -5259.3064 eV
Total Mermin free energy:         -193.2759567315 H        -5259.3064 eV
Force related energy:             -193.2759567315 H        -5259.3064 eV

Volume:                              0.111914E+05 au^3   0.165839E+04 A^3
Pressure:                           -0.131008E-06 au    -0.385438E+07 Pa
>> Charges saved for restart in charges.bin

total energy  -1.9327596E+02 H       energy change  6.1532717E-08 H
gradient norm  1.2978345E-03 H/a0    max. gradient  9.0951600E-04 H/a0
step length    6.4870027E-04 a0      max. step      2.6438345E-04 a0

--------------------------------------------------------------------------------

***  Geometry step: 189

 iSCC Total electronic   Diff electronic      SCC error    
    1   -0.19518483E+03    0.00000000E+00    0.13140183E-03
    2   -0.19518498E+03   -0.14427093E-03    0.38890579E-04
    3   -0.19518498E+03   -0.16378380E-07    0.12273241E-04
    4   -0.19518498E+03   -0.19662423E-08    0.20802391E-05
    5   -0.19518498E+03   -0.32372327E-10    0.40278457E-06
    6   -0.19518498E+03   -0.19042545E-11    0.13644587E-06
    7   -0.19518498E+03   -0.56843419E-13    0.28597407E-07
    8   -0.19518498E+03    0.56843419E-13    0.42038439E-08

Total Energy:                     -193.2759573434 H        -5259.3064 eV
Extrapolated to 0K:               -193.2759573434 H        -5259.3064 eV
Total Mermin free energy:         -193.2759573434 H        -5259.3064 eV
Force related energy:             -193.2759573434 H        -5259.3064 eV

Volume:                              0.111913E+05 au^3   0.165837E+04 A^3
Pressure:                           -0.177549E-07 au    -0.522367E+06 Pa
>> Charges saved for restart in charges.bin

total energy  -1.9327596E+02 H       energy change -6.1192938E-07 H
gradient norm  4.7846257E-04 H/a0    max. gradient  1.8010967E-04 H/a0
step length    5.9159882E-03 a0      max. step      1.4890144E-03 a0

--------------------------------------------------------------------------------

***  Geometry step: 190

 iSCC Total electronic   Diff electronic      SCC error    
    1   -0.19518498E+03    0.00000000E+00    0.72284727E-04
    2   -0.19518501E+03   -0.29999166E-04    0.43648048E-04
    3   -0.19518501E+03   -0.64306676E-08    0.14328498E-04
    4   -0.19518501E+03   -0.94578922E-09    0.88932011E-06
    5   -0.19518501E+03   -0.30041747E-10    0.29272389E-06
    6   -0.19518501E+03   -0.10516032E-11    0.10257515E-06
    7   -0.19518501E+03    0.00000000E+00    0.21844578E-07
    8   -0.19518501E+03    0.00000000E+00    0.34966421E-08

Total Energy:                     -193.2759576345 H        -5259.3064 eV
Extrapolated to 0K:               -193.2759576345 H        -5259.3064 eV
Total Mermin free energy:         -193.2759576345 H        -5259.3064 eV
Force related energy:             -193.2759576345 H        -5259.3064 eV

Volume:                              0.111912E+05 au^3   0.165837E+04 A^3
Pressure:                           -0.280196E-07 au    -0.824366E+06 Pa
>> Charges saved for restart in charges.bin

total energy  -1.9327596E+02 H       energy change -2.9111337E-07 H
gradient norm  4.2902324E-04 H/a0    max. gradient  1.8492787E-04 H/a0
step length    1.7086603E-03 a0      max. step      3.4812994E-04 a0

--------------------------------------------------------------------------------

***  Geometry step: 191

 iSCC Total electronic   Diff electronic      SCC error    
    1   -0.19518501E+03    0.00000000E+00    0.18487279E-03
    2   -0.19518504E+03   -0.36230950E-04    0.72929708E-04
    3   -0.19518504E+03   -0.23814067E-07    0.25377729E-04
    4   -0.19518504E+03   -0.29525324E-08    0.17881904E-05
    5   -0.19518504E+03   -0.72247985E-10    0.53393630E-06
    6   -0.19518504E+03   -0.33253400E-11    0.11961573E-06
    7   -0.19518504E+03    0.56843419E-13    0.15822211E-07
    8   -0.19518504E+03    0.56843419E-13    0.38258543E-08

Total Energy:                     -193.2759581960 H        -5259.3064 eV
Extrapolated to 0K:               -193.2759581960 H        -5259.3064 eV
Total Mermin free energy:         -193.2759581960 H        -5259.3064 eV
Force related energy:             -193.2759581960 H        -5259.3064 eV

Volume:                              0.111915E+05 au^3   0.165840E+04 A^3
Pressure:                           -0.278108E-07 au    -0.818223E+06 Pa
>> Charges saved for restart in charges.bin

total energy  -1.9327596E+02 H       energy change -5.6146362E-07 H
gradient norm  6.8198573E-04 H/a0    max. gradient  3.7706749E-04 H/a0
step length    9.0711628E-03 a0      max. step      2.0944653E-03 a0

--------------------------------------------------------------------------------

***  Geometry step: 192

 iSCC Total electronic   Diff electronic      SCC error    
    1   -0.19518504E+03    0.00000000E+00    0.52362330E-04
    2   -0.19518501E+03    0.32759679E-04    0.29662069E-04
    3   -0.19518501E+03   -0.29357921E-08    0.76174603E-05
    4   -0.19518501E+03   -0.49658411E-09    0.10915947E-05
    5   -0.19518501E+03   -0.14154011E-10    0.22528607E-06
    6   -0.19518501E+03   -0.71054274E-12    0.77381321E-07
    7   -0.19518501E+03    0.00000000E+00    0.13365012E-07
    8   -0.19518501E+03    0.00000000E+00    0.15910557E-08

Total Energy:                     -193.2759583713 H        -5259.3064 eV
Extrapolated to 0K:               -193.2759583713 H        -5259.3064 eV
Total Mermin free energy:         -193.2759583713 H        -5259.3064 eV
Force related energy:             -193.2759583713 H        -5259.3064 eV

Volume:                              0.111915E+05 au^3   0.165842E+04 A^3
Pressure:                           -0.353209E-07 au    -0.103918E+07 Pa
>> Charges saved for restart in charges.bin

total energy  -1.9327596E+02 H       energy change -1.7528987E-07 H
gradient norm  3.7843642E-04 H/a0    max. gradient  1.4293869E-04 H/a0
step length    6.6641864E-04 a0      max. step      1.4019282E-04 a0

--------------------------------------------------------------------------------

***  Geometry step: 193

 iSCC Total electronic   Diff electronic      SCC error    
    1   -0.19518501E+03    0.00000000E+00    0.71794302E-04
    2   -0.19518494E+03    0.65748594E-04    0.24488878E-04
    3   -0.19518494E+03   -0.38899941E-08    0.64807190E-05
    4   -0.19518494E+03   -0.50150106E-09    0.11706184E-05
    5   -0.19518494E+03   -0.90949470E-11    0.12627233E-06
    6   -0.19518494E+03   -0.34106051E-12    0.39182230E-07
    7   -0.19518494E+03   -0.28421709E-13    0.11969837E-07
    8   -0.19518494E+03    0.28421709E-13    0.19478299E-08

Total Energy:                     -193.2759583708 H        -5259.3064 eV
Extrapolated to 0K:               -193.2759583708 H        -5259.3064 eV
Total Mermin free energy:         -193.2759583708 H        -5259.3064 eV
Force related energy:             -193.2759583708 H        -5259.3064 eV

Volume:                              0.111916E+05 au^3   0.165842E+04 A^3
Pressure:                           -0.451426E-07 au    -0.132814E+07 Pa
>> Charges saved for restart in charges.bin

total energy  -1.9327596E+02 H       energy change  4.9826099E-10 H
gradient norm  7.3529321E-04 H/a0    max. gradient  4.6249176E-04 H/a0
step length    3.7843642E-04 a0      max. step      1.4293869E-04 a0

--------------------------------------------------------------------------------

***  Geometry step: 194

 iSCC Total electronic   Diff electronic      SCC error    
    1   -0.19518494E+03    0.00000000E+00    0.24001034E-03
    2   -0.19518504E+03   -0.91165614E-04    0.82583061E-04
    3   -0.19518504E+03   -0.31501799E-07    0.16301920E-04
    4   -0.19518504E+03   -0.34641232E-08    0.18340216E-05
    5   -0.19518504E+03   -0.60964567E-10    0.32581795E-06
    6   -0.19518504E+03   -0.34958703E-11    0.12891108E-06
    7   -0.19518504E+03   -0.56843419E-13    0.26833948E-07
    8   -0.19518504E+03    0.00000000E+00    0.67059966E-08

Total Energy:                     -193.2759589014 H        -5259.3064 eV
Extrapolated to 0K:               -193.2759589014 H        -5259.3064 eV
Total Mermin free energy:         -193.2759589014 H        -5259.3064 eV
Force related energy:             -193.2759589014 H        -5259.3064 eV

Volume:                              0.111916E+05 au^3   0.165843E+04 A^3
Pressure:                            0.393264E-08 au     0.115702E+06 Pa
>> Charges saved for restart in charges.bin

total energy  -1.9327596E+02 H       energy change -5.3064775E-07 H
gradient norm  3.9896765E-04 H/a0    max. gradient  1.2415210E-04 H/a0
step length    1.4696198E-02 a0      max. step      4.4004357E-03 a0

--------------------------------------------------------------------------------

***  Geometry step: 195

 iSCC Total electronic   Diff electronic      SCC error    
    1   -0.19518504E+03    0.00000000E+00    0.24087784E-04
    2   -0.19518505E+03   -0.14129992E-04    0.12086996E-04
    3   -0.19518505E+03   -0.61297101E-09    0.34632046E-05
    4   -0.19518505E+03   -0.91432639E-10    0.39284674E-06
    5   -0.19518505E+03   -0.23021585E-11    0.54535186E-07
    6   -0.19518505E+03   -0.85265128E-13    0.20501811E-07
    7   -0.19518505E+03   -0.11368684E-12    0.49700239E-08

Total Energy:                     -193.2759590035 H        -5259.3064 eV
Extrapolated to 0K:               -193.2759590035 H        -5259.3064 eV
Total Mermin free energy:         -193.2759590035 H        -5259.3064 eV
Force related energy:             -193.2759590035 H        -5259.3064 eV

Volume:                              0.111916E+05 au^3   0.165843E+04 A^3
Pressure:                            0.302323E-08 au     0.889466E+05 Pa
>> Charges saved for restart in charges.bin

total energy  -1.9327596E+02 H       energy change -1.0209521E-07 H
gradient norm  2.9076039E-04 H/a0    max. gradient  8.7939607E-05 H/a0
step length    3.6211248E-04 a0      max. step      8.4720357E-05 a0

Geometry converged

--------------------------------------------------------------------------------
DFTB+ running times                          cpu [s]             wall clock [s]
--------------------------------------------------------------------------------
Pre-SCC initialisation                 +       6.76 (  0.2%)       3.21 (  0.9%)
SCC                                    +    2552.41 ( 92.1%)     331.89 ( 90.2%)
Post-SCC processing                    +     211.40 (  7.6%)      32.66 (  8.9%)
--------------------------------------------------------------------------------
Missing                                +       0.12 (  0.0%)       0.01 (  0.0%)
Total                                  =    2770.69 (100.0%)     367.76 (100.0%)
--------------------------------------------------------------------------------
