|===============================================================================
|
|  DFTB+ release 24.1
|
|  Copyright (C) 2006 - 2024  DFTB+ developers group
|
|===============================================================================
|
|  When publishing results obtained with DFTB+, please cite the following
|  reference:
|
|  * DFTB+, a software package for efficient approximate density functional
|    theory based atomistic simulations, J. Chem. Phys. 152, 124101 (2020).
|    [doi: 10.1063/1.5143190]
|
|  You should also cite additional publications crediting the parametrization
|  data you use. Please consult the documentation of the SK-files for the
|  references.
|
|===============================================================================

Reading input file 'dftb_in.hsd'
Parser version: 14

--------------------------------------------------------------------------------
Reading SK-files:
./SKFiles/Si-Si.skf
./SKFiles/Si-Ge.skf
./SKFiles/Si-O.skf
./SKFiles/Ge-Ge.skf
./SKFiles/Ge-O.skf
./SKFiles/O-O.skf
Done.


Processed input in HSD format written to 'dftb_pin.hsd'

Starting initialization...
--------------------------------------------------------------------------------
WARNING!
-> Dipole printed for extended system : value printed is not well defined
MPI processes:               1
OpenMP threads:              8
BLACS orbital grid size:     1 x 1
BLACS atom grid size:        1 x 1
Chosen random seed:          150440978
Current stacksize:           unlimited
Mode:                        Static calculation
Self consistent charges:     Yes
SCC-tolerance:                 0.100000E-07
Max. scc iterations:                    500
Shell resolved Hubbard:      No
Spin polarisation:           No
Nr. of up electrons:           192.000000
Nr. of down electrons:         192.000000
Periodic boundaries:         Yes
Electronic solver:           Relatively robust
Mixer:                       Broyden mixer
Mixing parameter:                  0.200000
Maximal SCC-cycles:                     500
Nr. of chrg. vec. in memory:            500
Electronic temperature:              0.100000E-07 H      0.272114E-06 eV
Initial charges:             Set automatically (system chrg:   0.000E+00)
Included shells:            Si:  s, p, d
                            Ge:  s, p, d
                             O:  s, p
K-points and weights:           1:  0.500000  0.500000  0.500000     1.000000

K-points in absolute space:     1:  0.025319  0.017606  0.037774

Extra options:
                             Mulliken analysis
Force type                   original

--------------------------------------------------------------------------------

***  Geometry step: 0

 iSCC Total electronic   Diff electronic      SCC error    
    1    0.00000000E+00    0.00000000E+00    0.14262349E+01
    2   -0.19732415E+03   -0.19732415E+03    0.97911367E+00
    3   -0.19766708E+03   -0.34292996E+00    0.38504250E-01
    4   -0.19795573E+03   -0.28864374E+00    0.32613551E-01
    5   -0.19795737E+03   -0.16392249E-02    0.52816664E-02
    6   -0.19795748E+03   -0.11333248E-03    0.14707524E-02
    7   -0.19795748E+03   -0.36026894E-05    0.33393211E-03
    8   -0.19795748E+03   -0.62010409E-06    0.47344719E-04
    9   -0.19795748E+03   -0.41022872E-07    0.19643209E-04
   10   -0.19795748E+03   -0.25087843E-09    0.43640756E-05
   11   -0.19795748E+03   -0.83019813E-10    0.47044876E-06
   12   -0.19795748E+03   -0.44053650E-11    0.13766441E-06
   13   -0.19795748E+03    0.00000000E+00    0.26141850E-07
   14   -0.19795748E+03    0.00000000E+00    0.53774634E-08

Total Energy:                     -190.4253451969 H        -5181.7373 eV
Extrapolated to 0K:               -190.4253451969 H        -5181.7373 eV
Total Mermin free energy:         -190.4253451969 H        -5181.7373 eV
Force related energy:             -190.4253451969 H        -5181.7373 eV

Volume:                              0.913789E+04 au^3   0.135410E+04 A^3
Pressure:                            0.249385E-02 au     0.733715E+11 Pa
>> Charges saved for restart in charges.bin

total energy  -1.9042535E+02 H       energy change -1.9042535E+02 H
gradient norm  2.1776608E+00 H/a0    max. gradient  1.3962188E+00 H/a0
step length    0.0000000E+00 a0      max. step      0.0000000E+00 a0

--------------------------------------------------------------------------------

***  Geometry step: 1

 iSCC Total electronic   Diff electronic      SCC error    
    1   -0.19795748E+03    0.00000000E+00    0.14063947E+00
    2   -0.19729202E+03    0.66546247E+00    0.73478811E-01
    3   -0.19730854E+03   -0.16517233E-01    0.23116689E-01
    4   -0.19731155E+03   -0.30143718E-02    0.29323759E-02
    5   -0.19731163E+03   -0.76975950E-04    0.76354707E-03
    6   -0.19731163E+03   -0.49809522E-05    0.27865544E-03
    7   -0.19731163E+03   -0.17434729E-06    0.30938987E-04
    8   -0.19731163E+03   -0.20061691E-07    0.72917416E-05
    9   -0.19731163E+03   -0.12213377E-08    0.32018383E-05
   10   -0.19731163E+03   -0.22311042E-10    0.93245767E-06
   11   -0.19731163E+03   -0.11652901E-11    0.12455826E-06
   12   -0.19731163E+03   -0.22737368E-12    0.20217036E-07
   13   -0.19731163E+03    0.28421709E-13    0.30982861E-08

Total Energy:                     -191.1078447937 H        -5200.3090 eV
Extrapolated to 0K:               -191.1078447937 H        -5200.3090 eV
Total Mermin free energy:         -191.1078447937 H        -5200.3090 eV
Force related energy:             -191.1078447937 H        -5200.3090 eV

Volume:                              0.968392E+04 au^3   0.143501E+04 A^3
Pressure:                            0.180429E-02 au     0.530840E+11 Pa
>> Charges saved for restart in charges.bin

total energy  -1.9110784E+02 H       energy change -6.8249960E-01 H
gradient norm  1.4273639E+00 H/a0    max. gradient  2.8046853E-01 H/a0
step length    7.9641634E-01 a0      max. step      5.1062657E-01 a0

--------------------------------------------------------------------------------

***  Geometry step: 2

 iSCC Total electronic   Diff electronic      SCC error    
    1   -0.19731163E+03    0.00000000E+00    0.50175498E-01
    2   -0.19695442E+03    0.35721989E+00    0.28280034E-01
    3   -0.19695753E+03   -0.31187191E-02    0.64545823E-02
    4   -0.19695819E+03   -0.65315393E-03    0.87346269E-03
    5   -0.19695821E+03   -0.18509097E-04    0.22445373E-03
    6   -0.19695821E+03   -0.11463626E-05    0.12436798E-03
    7   -0.19695821E+03   -0.20189219E-07    0.20641373E-04
    8   -0.19695821E+03   -0.25237057E-08    0.30041893E-05
    9   -0.19695821E+03   -0.23072744E-09    0.86716732E-06
   10   -0.19695821E+03   -0.36095571E-11    0.17096549E-06
   11   -0.19695821E+03   -0.22737368E-12    0.48371846E-07
   12   -0.19695821E+03    0.00000000E+00    0.12863110E-07
   13   -0.19695821E+03   -0.28421709E-13    0.18657724E-08

Total Energy:                     -191.8895634466 H        -5221.5807 eV
Extrapolated to 0K:               -191.8895634466 H        -5221.5807 eV
Total Mermin free energy:         -191.8895634466 H        -5221.5807 eV
Force related energy:             -191.8895634466 H        -5221.5807 eV

Volume:                              0.983565E+04 au^3   0.145749E+04 A^3
Pressure:                            0.133802E-02 au     0.393660E+11 Pa
>> Charges saved for restart in charges.bin

total energy  -1.9188956E+02 H       energy change -7.8171865E-01 H
gradient norm  9.4486427E-01 H/a0    max. gradient  2.0260528E-01 H/a0
step length    7.4707917E-01 a0      max. step      1.3516218E-01 a0

--------------------------------------------------------------------------------

***  Geometry step: 3

 iSCC Total electronic   Diff electronic      SCC error    
    1   -0.19695821E+03    0.00000000E+00    0.75560260E-01
    2   -0.19657282E+03    0.38538831E+00    0.30404165E-01
    3   -0.19657738E+03   -0.45581277E-02    0.10726902E-01
    4   -0.19657812E+03   -0.74188093E-03    0.11246201E-02
    5   -0.19657815E+03   -0.35646634E-04    0.23458423E-03
    6   -0.19657816E+03   -0.19052140E-05    0.12088291E-03
    7   -0.19657816E+03   -0.33831469E-07    0.19843494E-04
    8   -0.19657816E+03   -0.31799345E-08    0.49615424E-05
    9   -0.19657816E+03   -0.37826453E-09    0.14427631E-05
   10   -0.19657816E+03   -0.89528385E-11    0.38344018E-06
   11   -0.19657816E+03   -0.28421709E-12    0.82035261E-07
   12   -0.19657816E+03   -0.14210855E-12    0.14971332E-07
   13   -0.19657816E+03    0.17053026E-12    0.19039539E-08

Total Energy:                     -192.4533501067 H        -5236.9221 eV
Extrapolated to 0K:               -192.4533501067 H        -5236.9221 eV
Total Mermin free energy:         -192.4533501067 H        -5236.9221 eV
Force related energy:             -192.4533501067 H        -5236.9221 eV

Volume:                              0.996017E+04 au^3   0.147595E+04 A^3
Pressure:                            0.958952E-03 au     0.282133E+11 Pa
>> Charges saved for restart in charges.bin

total energy  -1.9245335E+02 H       energy change -5.6378666E-01 H
gradient norm  6.0443978E-01 H/a0    max. gradient  1.1606220E-01 H/a0
step length    7.9774063E-01 a0      max. step      1.7301637E-01 a0

--------------------------------------------------------------------------------

***  Geometry step: 4

 iSCC Total electronic   Diff electronic      SCC error    
    1   -0.19657816E+03    0.00000000E+00    0.57655605E-01
    2   -0.19618613E+03    0.39202362E+00    0.34583485E-01
    3   -0.19618882E+03   -0.26838271E-02    0.63811872E-02
    4   -0.19618947E+03   -0.65084987E-03    0.10462426E-02
    5   -0.19618950E+03   -0.36748718E-04    0.28796304E-03
    6   -0.19618951E+03   -0.13662883E-05    0.92674540E-04
    7   -0.19618951E+03   -0.20395220E-07    0.20831813E-04
    8   -0.19618951E+03   -0.18231106E-08    0.53168655E-05
    9   -0.19618951E+03   -0.21233859E-09    0.15704650E-05
   10   -0.19618951E+03   -0.48885340E-11    0.29934256E-06
   11   -0.19618951E+03   -0.25579538E-12    0.66330009E-07
   12   -0.19618951E+03   -0.11368684E-12    0.20715362E-07
   13   -0.19618951E+03    0.28421709E-13    0.29566189E-08

Total Energy:                     -192.7884587439 H        -5246.0409 eV
Extrapolated to 0K:               -192.7884587439 H        -5246.0409 eV
Total Mermin free energy:         -192.7884587439 H        -5246.0409 eV
Force related energy:             -192.7884587439 H        -5246.0409 eV

Volume:                              0.100787E+05 au^3   0.149351E+04 A^3
Pressure:                            0.668640E-03 au     0.196721E+11 Pa
>> Charges saved for restart in charges.bin

total energy  -1.9278846E+02 H       energy change -3.3510864E-01 H
gradient norm  4.5333042E-01 H/a0    max. gradient  2.3258590E-01 H/a0
step length    7.5625116E-01 a0      max. step      1.3003038E-01 a0

--------------------------------------------------------------------------------

***  Geometry step: 5

 iSCC Total electronic   Diff electronic      SCC error    
    1   -0.19618951E+03    0.00000000E+00    0.64131840E-01
    2   -0.19573702E+03    0.45248896E+00    0.38886155E-01
    3   -0.19573877E+03   -0.17544184E-02    0.65961508E-02
    4   -0.19573925E+03   -0.47542957E-03    0.13436880E-02
    5   -0.19573927E+03   -0.27968499E-04    0.28067825E-03
    6   -0.19573927E+03   -0.74537905E-06    0.87728823E-04
    7   -0.19573927E+03   -0.14761923E-07    0.25016460E-04
    8   -0.19573927E+03   -0.13928059E-08    0.53147217E-05
    9   -0.19573927E+03   -0.15074875E-09    0.13155148E-05
   10   -0.19573927E+03   -0.61959327E-11    0.16444647E-06
   11   -0.19573927E+03   -0.34106051E-12    0.38211857E-07
   12   -0.19573927E+03    0.28421709E-13    0.12001190E-07
   13   -0.19573927E+03   -0.85265128E-13    0.25931461E-08

Total Energy:                     -192.9869140871 H        -5251.4411 eV
Extrapolated to 0K:               -192.9869140871 H        -5251.4411 eV
Total Mermin free energy:         -192.9869140871 H        -5251.4411 eV
Force related energy:             -192.9869140871 H        -5251.4411 eV

Volume:                              0.102804E+05 au^3   0.152340E+04 A^3
Pressure:                            0.401392E-03 au     0.118094E+11 Pa
>> Charges saved for restart in charges.bin

total energy  -1.9298691E+02 H       energy change -1.9845534E-01 H
gradient norm  3.0509938E-01 H/a0    max. gradient  1.4291272E-01 H/a0
step length    7.1645861E-01 a0      max. step      2.3534576E-01 a0

--------------------------------------------------------------------------------

***  Geometry step: 6

 iSCC Total electronic   Diff electronic      SCC error    
    1   -0.19573927E+03    0.00000000E+00    0.53546531E-01
    2   -0.19540896E+03    0.33031430E+00    0.29580614E-01
    3   -0.19541039E+03   -0.14297021E-02    0.37757145E-02
    4   -0.19541073E+03   -0.34363100E-03    0.67080643E-03
    5   -0.19541075E+03   -0.14869040E-04    0.22898075E-03
    6   -0.19541075E+03   -0.51981053E-06    0.10132507E-03
    7   -0.19541075E+03   -0.65163306E-08    0.21357496E-04
    8   -0.19541075E+03   -0.73350748E-09    0.52102918E-05
    9   -0.19541075E+03   -0.86174623E-10    0.15651250E-05
   10   -0.19541075E+03   -0.25295321E-11    0.13621241E-06
   11   -0.19541075E+03   -0.17053026E-12    0.35364856E-07
   12   -0.19541075E+03    0.56843419E-13    0.84466523E-08

Total Energy:                     -193.0781450479 H        -5253.9236 eV
Extrapolated to 0K:               -193.0781450479 H        -5253.9236 eV
Total Mermin free energy:         -193.0781450479 H        -5253.9236 eV
Force related energy:             -193.0781450479 H        -5253.9236 eV

Volume:                              0.104190E+05 au^3   0.154394E+04 A^3
Pressure:                            0.230153E-03 au     0.677134E+10 Pa
>> Charges saved for restart in charges.bin

total energy  -1.9307815E+02 H       energy change -9.1230961E-02 H
gradient norm  1.8337055E-01 H/a0    max. gradient  9.1414769E-02 H/a0
step length    5.8652973E-01 a0      max. step      1.0705093E-01 a0

--------------------------------------------------------------------------------

***  Geometry step: 7

 iSCC Total electronic   Diff electronic      SCC error    
    1   -0.19541075E+03    0.00000000E+00    0.38593528E-01
    2   -0.19520695E+03    0.20380366E+00    0.19549874E-01
    3   -0.19520791E+03   -0.96478704E-03    0.33323870E-02
    4   -0.19520809E+03   -0.17907144E-03    0.51500455E-03
    5   -0.19520810E+03   -0.63497985E-05    0.17247020E-03
    6   -0.19520810E+03   -0.30134549E-06    0.62829821E-04
    7   -0.19520810E+03   -0.72854505E-08    0.16752349E-04
    8   -0.19520810E+03   -0.38289727E-09    0.42743217E-05
    9   -0.19520810E+03   -0.41410431E-10    0.13496330E-05
   10   -0.19520810E+03   -0.32116532E-11    0.19242823E-06
   11   -0.19520810E+03   -0.14210855E-12    0.23515361E-07
   12   -0.19520810E+03    0.00000000E+00    0.44572488E-08

Total Energy:                     -193.1138558566 H        -5254.8954 eV
Extrapolated to 0K:               -193.1138558566 H        -5254.8954 eV
Total Mermin free energy:         -193.1138558566 H        -5254.8954 eV
Force related energy:             -193.1138558566 H        -5254.8954 eV

Volume:                              0.105070E+05 au^3   0.155697E+04 A^3
Pressure:                            0.136709E-03 au     0.402211E+10 Pa
>> Charges saved for restart in charges.bin

total energy  -1.9311386E+02 H       energy change -3.5710809E-02 H
gradient norm  1.4403875E-01 H/a0    max. gradient  7.1049132E-02 H/a0
step length    4.5191597E-01 a0      max. step      8.1961717E-02 a0

--------------------------------------------------------------------------------

***  Geometry step: 8

 iSCC Total electronic   Diff electronic      SCC error    
    1   -0.19520810E+03    0.00000000E+00    0.17705361E-01
    2   -0.19510270E+03    0.10539288E+00    0.87424625E-02
    3   -0.19510298E+03   -0.27824212E-03    0.16612761E-02
    4   -0.19510304E+03   -0.54174039E-04    0.35090587E-03
    5   -0.19510304E+03   -0.14261172E-05    0.97369804E-04
    6   -0.19510304E+03   -0.83230873E-07    0.28056690E-04
    7   -0.19510304E+03   -0.53669567E-08    0.88304417E-05
    8   -0.19510304E+03   -0.18988544E-09    0.29914989E-05
    9   -0.19510304E+03   -0.79580786E-11    0.73855367E-06
   10   -0.19510304E+03   -0.11368684E-11    0.10240550E-06
   11   -0.19510304E+03   -0.56843419E-13    0.15434824E-07
   12   -0.19510304E+03    0.00000000E+00    0.24659386E-08

Total Energy:                     -193.1338916469 H        -5255.4406 eV
Extrapolated to 0K:               -193.1338916469 H        -5255.4406 eV
Total Mermin free energy:         -193.1338916469 H        -5255.4406 eV
Force related energy:             -193.1338916469 H        -5255.4406 eV

Volume:                              0.105663E+05 au^3   0.156576E+04 A^3
Pressure:                            0.815667E-04 au     0.239977E+10 Pa
>> Charges saved for restart in charges.bin

total energy  -1.9313389E+02 H       energy change -2.0035790E-02 H
gradient norm  1.1106609E-01 H/a0    max. gradient  2.3942605E-02 H/a0
step length    3.3869585E-01 a0      max. step      7.0245916E-02 a0

--------------------------------------------------------------------------------

***  Geometry step: 9

 iSCC Total electronic   Diff electronic      SCC error    
    1   -0.19510304E+03    0.00000000E+00    0.19196813E-01
    2   -0.19508781E+03    0.15227680E-01    0.11175369E-01
    3   -0.19508815E+03   -0.34384902E-03    0.33881998E-02
    4   -0.19508821E+03   -0.52121333E-04    0.58609855E-03
    5   -0.19508821E+03   -0.18895620E-05    0.17873308E-03
    6   -0.19508821E+03   -0.23956005E-06    0.61413263E-04
    7   -0.19508821E+03   -0.37148027E-08    0.12019476E-04
    8   -0.19508821E+03   -0.14679813E-09    0.18336591E-05
    9   -0.19508821E+03   -0.20065727E-10    0.30779708E-06
   10   -0.19508821E+03   -0.12221335E-11    0.70921110E-07
   11   -0.19508821E+03   -0.85265128E-13    0.12553351E-07
   12   -0.19508821E+03   -0.28421709E-13    0.29462783E-08

Total Energy:                     -193.1527457395 H        -5255.9536 eV
Extrapolated to 0K:               -193.1527457395 H        -5255.9536 eV
Total Mermin free energy:         -193.1527457395 H        -5255.9536 eV
Force related energy:             -193.1527457395 H        -5255.9536 eV

Volume:                              0.105929E+05 au^3   0.156970E+04 A^3
Pressure:                            0.621958E-04 au     0.182986E+10 Pa
>> Charges saved for restart in charges.bin

total energy  -1.9315275E+02 H       energy change -1.8854093E-02 H
gradient norm  9.8910032E-02 H/a0    max. gradient  2.2360408E-02 H/a0
step length    3.3115037E-01 a0      max. step      5.9167681E-02 a0

--------------------------------------------------------------------------------

***  Geometry step: 10

 iSCC Total electronic   Diff electronic      SCC error    
    1   -0.19508821E+03    0.00000000E+00    0.28969563E-01
    2   -0.19512942E+03   -0.41208234E-01    0.16840437E-01
    3   -0.19513002E+03   -0.60872837E-03    0.27891806E-02
    4   -0.19513015E+03   -0.12778544E-03    0.76028558E-03
    5   -0.19513016E+03   -0.66782409E-05    0.31422962E-03
    6   -0.19513016E+03   -0.22981791E-06    0.83337959E-04
    7   -0.19513016E+03   -0.57030149E-08    0.12606818E-04
    8   -0.19513016E+03   -0.33523406E-09    0.28389537E-05
    9   -0.19513016E+03   -0.32855496E-10    0.53523712E-06
   10   -0.19513016E+03   -0.20463631E-11    0.78092182E-07
   11   -0.19513016E+03   -0.85265128E-13    0.13874231E-07
   12   -0.19513016E+03   -0.85265128E-13    0.35308521E-08

Total Energy:                     -193.1751124427 H        -5256.5623 eV
Extrapolated to 0K:               -193.1751124427 H        -5256.5623 eV
Total Mermin free energy:         -193.1751124427 H        -5256.5623 eV
Force related energy:             -193.1751124427 H        -5256.5623 eV

Volume:                              0.106135E+05 au^3   0.157276E+04 A^3
Pressure:                            0.666092E-04 au     0.195971E+10 Pa
>> Charges saved for restart in charges.bin

total energy  -1.9317511E+02 H       energy change -2.2366703E-02 H
gradient norm  1.0411476E-01 H/a0    max. gradient  3.9086909E-02 H/a0
step length    4.6161177E-01 a0      max. step      7.1560240E-02 a0

--------------------------------------------------------------------------------

***  Geometry step: 11

 iSCC Total electronic   Diff electronic      SCC error    
    1   -0.19513016E+03    0.00000000E+00    0.27195581E-01
    2   -0.19517503E+03   -0.44867854E-01    0.15500384E-01
    3   -0.19517558E+03   -0.55215838E-03    0.29020654E-02
    4   -0.19517570E+03   -0.12314309E-03    0.81838784E-03
    5   -0.19517571E+03   -0.58597902E-05    0.31603182E-03
    6   -0.19517571E+03   -0.29957511E-06    0.92864391E-04
    7   -0.19517571E+03   -0.78832443E-08    0.17112308E-04
    8   -0.19517571E+03   -0.41765702E-09    0.29578273E-05
    9   -0.19517571E+03   -0.49197979E-10    0.43129318E-06
   10   -0.19517571E+03   -0.34958703E-11    0.85557731E-07
   11   -0.19517571E+03   -0.56843419E-13    0.14195157E-07
   12   -0.19517571E+03   -0.14210855E-12    0.31930756E-08

Total Energy:                     -193.1899148094 H        -5256.9651 eV
Extrapolated to 0K:               -193.1899148094 H        -5256.9651 eV
Total Mermin free energy:         -193.1899148094 H        -5256.9651 eV
Force related energy:             -193.1899148094 H        -5256.9651 eV

Volume:                              0.106324E+05 au^3   0.157557E+04 A^3
Pressure:                            0.728943E-04 au     0.214462E+10 Pa
>> Charges saved for restart in charges.bin

total energy  -1.9318991E+02 H       energy change -1.4802367E-02 H
gradient norm  8.7960630E-02 H/a0    max. gradient  2.1965004E-02 H/a0
step length    3.9830204E-01 a0      max. step      5.7562186E-02 a0

--------------------------------------------------------------------------------

***  Geometry step: 12

 iSCC Total electronic   Diff electronic      SCC error    
    1   -0.19517571E+03    0.00000000E+00    0.22182532E-01
    2   -0.19520097E+03   -0.25256995E-01    0.13200582E-01
    3   -0.19520116E+03   -0.19172506E-03    0.13844013E-02
    4   -0.19520121E+03   -0.52798986E-04    0.45890675E-03
    5   -0.19520121E+03   -0.25571806E-05    0.19584277E-03
    6   -0.19520121E+03   -0.46147704E-07    0.52651838E-04
    7   -0.19520121E+03   -0.18112019E-08    0.78075521E-05
    8   -0.19520121E+03   -0.13707790E-09    0.10897105E-05
    9   -0.19520121E+03   -0.11340262E-10    0.26024386E-06
   10   -0.19520121E+03   -0.65369932E-12    0.35480990E-07
   11   -0.19520121E+03    0.11368684E-12    0.51339892E-08

Total Energy:                     -193.2005757447 H        -5257.2552 eV
Extrapolated to 0K:               -193.2005757447 H        -5257.2552 eV
Total Mermin free energy:         -193.2005757447 H        -5257.2552 eV
Force related energy:             -193.2005757447 H        -5257.2552 eV

Volume:                              0.106578E+05 au^3   0.157933E+04 A^3
Pressure:                            0.734237E-04 au     0.216020E+10 Pa
>> Charges saved for restart in charges.bin

total energy  -1.9320058E+02 H       energy change -1.0660935E-02 H
gradient norm  7.2663281E-02 H/a0    max. gradient  1.6555878E-02 H/a0
step length    3.2427754E-01 a0      max. step      4.9933931E-02 a0

--------------------------------------------------------------------------------

***  Geometry step: 13

 iSCC Total electronic   Diff electronic      SCC error    
    1   -0.19520121E+03    0.00000000E+00    0.23204613E-01
    2   -0.19521280E+03   -0.11590530E-01    0.13447697E-01
    3   -0.19521295E+03   -0.14788512E-03    0.17647879E-02
    4   -0.19521300E+03   -0.45607126E-04    0.23151786E-03
    5   -0.19521300E+03   -0.19074680E-05    0.93112761E-04
    6   -0.19521300E+03   -0.31402237E-07    0.39095405E-04
    7   -0.19521300E+03   -0.38019721E-09    0.75448966E-05
    8   -0.19521300E+03   -0.48942184E-10    0.61761782E-06
    9   -0.19521300E+03   -0.63664629E-11    0.14387422E-06
   10   -0.19521300E+03   -0.19895197E-12    0.22666187E-07
   11   -0.19521300E+03   -0.28421709E-13    0.43375468E-08

Total Energy:                     -193.2100316620 H        -5257.5125 eV
Extrapolated to 0K:               -193.2100316620 H        -5257.5125 eV
Total Mermin free energy:         -193.2100316620 H        -5257.5125 eV
Force related energy:             -193.2100316620 H        -5257.5125 eV

Volume:                              0.106977E+05 au^3   0.158523E+04 A^3
Pressure:                            0.683660E-04 au     0.201140E+10 Pa
>> Charges saved for restart in charges.bin

total energy  -1.9321003E+02 H       energy change -9.4559173E-03 H
gradient norm  5.9489992E-02 H/a0    max. gradient  1.1299494E-02 H/a0
step length    3.1899883E-01 a0      max. step      5.3834020E-02 a0

--------------------------------------------------------------------------------

***  Geometry step: 14

 iSCC Total electronic   Diff electronic      SCC error    
    1   -0.19521300E+03    0.00000000E+00    0.16073859E-01
    2   -0.19520220E+03    0.10796805E-01    0.91934007E-02
    3   -0.19520229E+03   -0.83652982E-04    0.10774829E-02
    4   -0.19520231E+03   -0.23216412E-04    0.24518354E-03
    5   -0.19520231E+03   -0.10110160E-05    0.27224823E-04
    6   -0.19520231E+03   -0.36628364E-07    0.77542364E-05
    7   -0.19520231E+03   -0.76789775E-09    0.29932060E-05
    8   -0.19520231E+03   -0.15631940E-10    0.82300791E-06
    9   -0.19520231E+03   -0.13926638E-11    0.22951574E-06
   10   -0.19520231E+03   -0.14210855E-12    0.50015522E-07
   11   -0.19520231E+03    0.56843419E-13    0.44105923E-08

Total Energy:                     -193.2160585351 H        -5257.6765 eV
Extrapolated to 0K:               -193.2160585351 H        -5257.6765 eV
Total Mermin free energy:         -193.2160585351 H        -5257.6765 eV
Force related energy:             -193.2160585351 H        -5257.6765 eV

Volume:                              0.107436E+05 au^3   0.159204E+04 A^3
Pressure:                            0.588472E-04 au     0.173134E+10 Pa
>> Charges saved for restart in charges.bin

total energy  -1.9321606E+02 H       energy change -6.0268731E-03 H
gradient norm  5.3909728E-02 H/a0    max. gradient  1.1422581E-02 H/a0
step length    2.5148334E-01 a0      max. step      4.5377135E-02 a0

--------------------------------------------------------------------------------

***  Geometry step: 15

 iSCC Total electronic   Diff electronic      SCC error    
    1   -0.19520231E+03    0.00000000E+00    0.93764486E-02
    2   -0.19517590E+03    0.26406782E-01    0.53388176E-02
    3   -0.19517595E+03   -0.45904873E-04    0.76063882E-03
    4   -0.19517596E+03   -0.10870002E-04    0.16405414E-03
    5   -0.19517596E+03   -0.49067719E-06    0.33270950E-04
    6   -0.19517596E+03   -0.25977101E-07    0.12414209E-04
    7   -0.19517596E+03   -0.58321348E-09    0.40142581E-05
    8   -0.19517596E+03   -0.11965540E-10    0.10187659E-05
    9   -0.19517596E+03   -0.11652901E-11    0.22647479E-06
   10   -0.19517596E+03   -0.85265128E-13    0.23496350E-07
   11   -0.19517596E+03    0.00000000E+00    0.28855673E-08

Total Energy:                     -193.2206306651 H        -5257.8009 eV
Extrapolated to 0K:               -193.2206306651 H        -5257.8009 eV
Total Mermin free energy:         -193.2206306651 H        -5257.8009 eV
Force related energy:             -193.2206306651 H        -5257.8009 eV

Volume:                              0.107937E+05 au^3   0.159947E+04 A^3
Pressure:                            0.444504E-04 au     0.130778E+10 Pa
>> Charges saved for restart in charges.bin

total energy  -1.9322063E+02 H       energy change -4.5721301E-03 H
gradient norm  4.9889622E-02 H/a0    max. gradient  8.6237062E-03 H/a0
step length    2.3010141E-01 a0      max. step      4.3153188E-02 a0

--------------------------------------------------------------------------------

***  Geometry step: 16

 iSCC Total electronic   Diff electronic      SCC error    
    1   -0.19517596E+03    0.00000000E+00    0.93817099E-02
    2   -0.19514478E+03    0.31178528E-01    0.52949039E-02
    3   -0.19514482E+03   -0.37720459E-04    0.10382449E-02
    4   -0.19514483E+03   -0.69462469E-05    0.16943076E-03
    5   -0.19514483E+03   -0.34032743E-06    0.61793915E-04
    6   -0.19514483E+03   -0.19375818E-07    0.19566343E-04
    7   -0.19514483E+03   -0.52432370E-09    0.36283776E-05
    8   -0.19514483E+03   -0.20321522E-10    0.56524468E-06
    9   -0.19514483E+03   -0.15916157E-11    0.13989147E-06
   10   -0.19514483E+03   -0.19895197E-12    0.18278730E-07
   11   -0.19514483E+03    0.56843419E-13    0.34303995E-08

Total Energy:                     -193.2251284171 H        -5257.9233 eV
Extrapolated to 0K:               -193.2251284171 H        -5257.9233 eV
Total Mermin free energy:         -193.2251284171 H        -5257.9233 eV
Force related energy:             -193.2251284171 H        -5257.9233 eV

Volume:                              0.108474E+05 au^3   0.160741E+04 A^3
Pressure:                            0.267527E-04 au     0.787093E+09 Pa
>> Charges saved for restart in charges.bin

total energy  -1.9322513E+02 H       energy change -4.4977519E-03 H
gradient norm  5.1308426E-02 H/a0    max. gradient  9.8744442E-03 H/a0
step length    2.3877996E-01 a0      max. step      4.4437013E-02 a0

--------------------------------------------------------------------------------

***  Geometry step: 17

 iSCC Total electronic   Diff electronic      SCC error    
    1   -0.19514483E+03    0.00000000E+00    0.99570160E-02
    2   -0.19513169E+03    0.13137009E-01    0.55926733E-02
    3   -0.19513174E+03   -0.48766337E-04    0.12422364E-02
    4   -0.19513175E+03   -0.83718701E-05    0.19323303E-03
    5   -0.19513175E+03   -0.42294667E-06    0.76241186E-04
    6   -0.19513175E+03   -0.27036293E-07    0.20113590E-04
    7   -0.19513175E+03   -0.75249318E-09    0.34761426E-05
    8   -0.19513175E+03   -0.39079850E-10    0.84570336E-06
    9   -0.19513175E+03   -0.24158453E-11    0.18568203E-06
   10   -0.19513175E+03   -0.17053026E-12    0.28663344E-07
   11   -0.19513175E+03   -0.11368684E-12    0.51875975E-08

Total Energy:                     -193.2301294992 H        -5258.0594 eV
Extrapolated to 0K:               -193.2301294992 H        -5258.0594 eV
Total Mermin free energy:         -193.2301294992 H        -5258.0594 eV
Force related energy:             -193.2301294992 H        -5258.0594 eV

Volume:                              0.108939E+05 au^3   0.161431E+04 A^3
Pressure:                            0.171044E-04 au     0.503227E+09 Pa
>> Charges saved for restart in charges.bin

total energy  -1.9323013E+02 H       energy change -5.0010822E-03 H
gradient norm  5.5582060E-02 H/a0    max. gradient  1.1778288E-02 H/a0
step length    2.6502750E-01 a0      max. step      4.7108935E-02 a0

--------------------------------------------------------------------------------

***  Geometry step: 18

 iSCC Total electronic   Diff electronic      SCC error    
    1   -0.19513175E+03    0.00000000E+00    0.15588197E-01
    2   -0.19513588E+03   -0.41326478E-02    0.92058624E-02
    3   -0.19513598E+03   -0.10370486E-03    0.25007281E-02
    4   -0.19513600E+03   -0.15851089E-04    0.23200437E-03
    5   -0.19513600E+03   -0.89379242E-06    0.95929712E-04
    6   -0.19513600E+03   -0.50867214E-07    0.31177192E-04
    7   -0.19513600E+03   -0.11678765E-08    0.63419915E-05
    8   -0.19513600E+03   -0.61788796E-10    0.17702562E-05
    9   -0.19513600E+03   -0.37232439E-11    0.30100519E-06
   10   -0.19513600E+03   -0.36948222E-12    0.38144337E-07
   11   -0.19513600E+03    0.00000000E+00    0.60587970E-08

Total Energy:                     -193.2360813378 H        -5258.2213 eV
Extrapolated to 0K:               -193.2360813378 H        -5258.2213 eV
Total Mermin free energy:         -193.2360813378 H        -5258.2213 eV
Force related energy:             -193.2360813378 H        -5258.2213 eV

Volume:                              0.109404E+05 au^3   0.162120E+04 A^3
Pressure:                            0.144371E-04 au     0.424753E+09 Pa
>> Charges saved for restart in charges.bin

total energy  -1.9323608E+02 H       energy change -5.9518385E-03 H
gradient norm  5.5464807E-02 H/a0    max. gradient  1.2126657E-02 H/a0
step length    3.3816377E-01 a0      max. step      6.2497173E-02 a0

--------------------------------------------------------------------------------

***  Geometry step: 19

 iSCC Total electronic   Diff electronic      SCC error    
    1   -0.19513600E+03    0.00000000E+00    0.14041711E-01
    2   -0.19515329E+03   -0.17292967E-01    0.82082016E-02
    3   -0.19515343E+03   -0.13404036E-03    0.25259361E-02
    4   -0.19515345E+03   -0.18522120E-04    0.29905194E-03
    5   -0.19515345E+03   -0.85644496E-06    0.75209902E-04
    6   -0.19515345E+03   -0.61195919E-07    0.28590586E-04
    7   -0.19515345E+03   -0.14724151E-08    0.73007585E-05
    8   -0.19515345E+03   -0.44309445E-10    0.20555721E-05
    9   -0.19515345E+03   -0.33821834E-11    0.39113976E-06
   10   -0.19515345E+03   -0.56843419E-12    0.38378260E-07
   11   -0.19515345E+03    0.28421709E-13    0.56053722E-08

Total Energy:                     -193.2411164958 H        -5258.3583 eV
Extrapolated to 0K:               -193.2411164958 H        -5258.3583 eV
Total Mermin free energy:         -193.2411164958 H        -5258.3583 eV
Force related energy:             -193.2411164958 H        -5258.3583 eV

Volume:                              0.109772E+05 au^3   0.162666E+04 A^3
Pressure:                            0.172820E-04 au     0.508454E+09 Pa
>> Charges saved for restart in charges.bin

total energy  -1.9324112E+02 H       energy change -5.0351580E-03 H
gradient norm  4.9058738E-02 H/a0    max. gradient  9.1626170E-03 H/a0
step length    3.3360520E-01 a0      max. step      6.7087282E-02 a0

--------------------------------------------------------------------------------

***  Geometry step: 20

 iSCC Total electronic   Diff electronic      SCC error    
    1   -0.19515345E+03    0.00000000E+00    0.10629517E-01
    2   -0.19517468E+03   -0.21235870E-01    0.58398513E-02
    3   -0.19517480E+03   -0.11921717E-03    0.17959838E-02
    4   -0.19517482E+03   -0.14186185E-04    0.19103236E-03
    5   -0.19517482E+03   -0.66345285E-06    0.66416466E-04
    6   -0.19517482E+03   -0.47179469E-07    0.23020681E-04
    7   -0.19517482E+03   -0.11787336E-08    0.48696938E-05
    8   -0.19517482E+03   -0.44792614E-10    0.13560039E-05
    9   -0.19517482E+03   -0.32684966E-11    0.26680182E-06
   10   -0.19517482E+03   -0.45474735E-12    0.39058069E-07
   11   -0.19517482E+03    0.56843419E-13    0.66214603E-08

Total Energy:                     -193.2453831418 H        -5258.4744 eV
Extrapolated to 0K:               -193.2453831418 H        -5258.4744 eV
Total Mermin free energy:         -193.2453831418 H        -5258.4744 eV
Force related energy:             -193.2453831418 H        -5258.4744 eV

Volume:                              0.110102E+05 au^3   0.163155E+04 A^3
Pressure:                            0.222957E-04 au     0.655963E+09 Pa
>> Charges saved for restart in charges.bin

total energy  -1.9324538E+02 H       energy change -4.2666460E-03 H
gradient norm  4.1678345E-02 H/a0    max. gradient  7.1719425E-03 H/a0
step length    3.2490034E-01 a0      max. step      6.6593969E-02 a0

--------------------------------------------------------------------------------

***  Geometry step: 21

 iSCC Total electronic   Diff electronic      SCC error    
    1   -0.19517482E+03    0.00000000E+00    0.10968200E-01
    2   -0.19518924E+03   -0.14424648E-01    0.61200016E-02
    3   -0.19518934E+03   -0.10244875E-03    0.17190523E-02
    4   -0.19518936E+03   -0.12476554E-04    0.26617705E-03
    5   -0.19518936E+03   -0.63804828E-06    0.93124231E-04
    6   -0.19518936E+03   -0.36046998E-07    0.30551125E-04
    7   -0.19518936E+03   -0.10058443E-08    0.51605088E-05
    8   -0.19518936E+03   -0.47919002E-10    0.10352413E-05
    9   -0.19518936E+03   -0.34390268E-11    0.23466014E-06
   10   -0.19518936E+03   -0.28421709E-12    0.27091603E-07
   11   -0.19518936E+03   -0.56843419E-13    0.59114447E-08

Total Energy:                     -193.2488608231 H        -5258.5691 eV
Extrapolated to 0K:               -193.2488608231 H        -5258.5691 eV
Total Mermin free energy:         -193.2488608231 H        -5258.5691 eV
Force related energy:             -193.2488608231 H        -5258.5691 eV

Volume:                              0.110459E+05 au^3   0.163683E+04 A^3
Pressure:                            0.241576E-04 au     0.710742E+09 Pa
>> Charges saved for restart in charges.bin

total energy  -1.9324886E+02 H       energy change -3.4776813E-03 H
gradient norm  3.6210422E-02 H/a0    max. gradient  8.3096453E-03 H/a0
step length    3.0928956E-01 a0      max. step      6.2213427E-02 a0

--------------------------------------------------------------------------------

***  Geometry step: 22

 iSCC Total electronic   Diff electronic      SCC error    
    1   -0.19518936E+03    0.00000000E+00    0.10448280E-01
    2   -0.19519117E+03   -0.18135587E-02    0.58070320E-02
    3   -0.19519122E+03   -0.49922305E-04    0.11556030E-02
    4   -0.19519123E+03   -0.82371215E-05    0.20446092E-03
    5   -0.19519123E+03   -0.45500155E-06    0.77743959E-04
    6   -0.19519123E+03   -0.22042713E-07    0.23122688E-04
    7   -0.19519123E+03   -0.62908612E-09    0.44830133E-05
    8   -0.19519123E+03   -0.31036507E-10    0.95108341E-06
    9   -0.19519123E+03   -0.25579538E-11    0.15605773E-06
   10   -0.19519123E+03   -0.25579538E-12    0.19505977E-07
   11   -0.19519123E+03    0.00000000E+00    0.35178669E-08

Total Energy:                     -193.2510872688 H        -5258.6296 eV
Extrapolated to 0K:               -193.2510872688 H        -5258.6296 eV
Total Mermin free energy:         -193.2510872688 H        -5258.6296 eV
Force related energy:             -193.2510872688 H        -5258.6296 eV

Volume:                              0.110790E+05 au^3   0.164174E+04 A^3
Pressure:                            0.223719E-04 au     0.658203E+09 Pa
>> Charges saved for restart in charges.bin

total energy  -1.9325109E+02 H       energy change -2.2264457E-03 H
gradient norm  3.3512481E-02 H/a0    max. gradient  8.4271249E-03 H/a0
step length    2.3044737E-01 a0      max. step      4.4987108E-02 a0

--------------------------------------------------------------------------------

***  Geometry step: 23

 iSCC Total electronic   Diff electronic      SCC error    
    1   -0.19519123E+03    0.00000000E+00    0.69935954E-02
    2   -0.19518294E+03    0.82931373E-02    0.38562763E-02
    3   -0.19518296E+03   -0.24697429E-04    0.65098010E-03
    4   -0.19518297E+03   -0.54235112E-05    0.10870302E-03
    5   -0.19518297E+03   -0.23852766E-06    0.28691608E-04
    6   -0.19518297E+03   -0.10937100E-07    0.98895249E-05
    7   -0.19518297E+03   -0.27384317E-09    0.28338016E-05
    8   -0.19518297E+03   -0.66222583E-11    0.65585951E-06
    9   -0.19518297E+03   -0.76738615E-12    0.10246575E-06
   10   -0.19518297E+03   -0.14210855E-12    0.11863460E-07
   11   -0.19518297E+03    0.00000000E+00    0.30327878E-08

Total Energy:                     -193.2524502108 H        -5258.6667 eV
Extrapolated to 0K:               -193.2524502108 H        -5258.6667 eV
Total Mermin free energy:         -193.2524502108 H        -5258.6667 eV
Force related energy:             -193.2524502108 H        -5258.6667 eV

Volume:                              0.111071E+05 au^3   0.164590E+04 A^3
Pressure:                            0.173431E-04 au     0.510251E+09 Pa
>> Charges saved for restart in charges.bin

total energy  -1.9325245E+02 H       energy change -1.3629420E-03 H
gradient norm  2.6516099E-02 H/a0    max. gradient  8.8222977E-03 H/a0
step length    1.4545343E-01 a0      max. step      2.6846000E-02 a0

--------------------------------------------------------------------------------

***  Geometry step: 24

 iSCC Total electronic   Diff electronic      SCC error    
    1   -0.19518297E+03    0.00000000E+00    0.46657693E-02
    2   -0.19517278E+03    0.10186615E-01    0.26555579E-02
    3   -0.19517280E+03   -0.23212335E-04    0.71705523E-03
    4   -0.19517281E+03   -0.39952507E-05    0.10304508E-03
    5   -0.19517281E+03   -0.13104355E-06    0.18194655E-04
    6   -0.19517281E+03   -0.73586932E-08    0.77117930E-05
    7   -0.19517281E+03   -0.11462475E-09    0.22802248E-05
    8   -0.19517281E+03   -0.47464255E-11    0.55761620E-06
    9   -0.19517281E+03   -0.25579538E-12    0.10934339E-06
   10   -0.19517281E+03    0.00000000E+00    0.14140494E-07
   11   -0.19517281E+03   -0.85265128E-13    0.34603587E-08

Total Energy:                     -193.2533642446 H        -5258.6916 eV
Extrapolated to 0K:               -193.2533642446 H        -5258.6916 eV
Total Mermin free energy:         -193.2533642446 H        -5258.6916 eV
Force related energy:             -193.2533642446 H        -5258.6916 eV

Volume:                              0.111284E+05 au^3   0.164907E+04 A^3
Pressure:                            0.118737E-04 au     0.349337E+09 Pa
>> Charges saved for restart in charges.bin

total energy  -1.9325336E+02 H       energy change -9.1403381E-04 H
gradient norm  2.1677986E-02 H/a0    max. gradient  5.7264065E-03 H/a0
step length    9.0404047E-02 a0      max. step      2.2554905E-02 a0

--------------------------------------------------------------------------------

***  Geometry step: 25

 iSCC Total electronic   Diff electronic      SCC error    
    1   -0.19517281E+03    0.00000000E+00    0.36659432E-02
    2   -0.19516831E+03    0.44923598E-02    0.16848353E-02
    3   -0.19516833E+03   -0.14589781E-04    0.57050846E-03
    4   -0.19516833E+03   -0.18547437E-05    0.65532517E-04
    5   -0.19516833E+03   -0.52657015E-07    0.18574646E-04
    6   -0.19516833E+03   -0.30648550E-08    0.64945362E-05
    7   -0.19516833E+03   -0.53518079E-10    0.15013474E-05
    8   -0.19516833E+03   -0.23874236E-11    0.30727376E-06
    9   -0.19516833E+03   -0.22737368E-12    0.56960919E-07
   10   -0.19516833E+03   -0.14210855E-12    0.12668922E-07
   11   -0.19516833E+03    0.85265128E-13    0.17966442E-08

Total Energy:                     -193.2540783104 H        -5258.7110 eV
Extrapolated to 0K:               -193.2540783104 H        -5258.7110 eV
Total Mermin free energy:         -193.2540783104 H        -5258.7110 eV
Force related energy:             -193.2540783104 H        -5258.7110 eV

Volume:                              0.111437E+05 au^3   0.165132E+04 A^3
Pressure:                            0.879595E-05 au     0.258786E+09 Pa
>> Charges saved for restart in charges.bin

total energy  -1.9325408E+02 H       energy change -7.1406581E-04 H
gradient norm  2.3154640E-02 H/a0    max. gradient  6.1478051E-03 H/a0
step length    7.1289282E-02 a0      max. step      2.0926889E-02 a0

--------------------------------------------------------------------------------

***  Geometry step: 26

 iSCC Total electronic   Diff electronic      SCC error    
    1   -0.19516833E+03    0.00000000E+00    0.59140824E-02
    2   -0.19516757E+03    0.76167100E-03    0.30072796E-02
    3   -0.19516760E+03   -0.32065791E-04    0.10104883E-02
    4   -0.19516761E+03   -0.38225555E-05    0.91328717E-04
    5   -0.19516761E+03   -0.11683929E-06    0.31525836E-04
    6   -0.19516761E+03   -0.52170606E-08    0.11685185E-04
    7   -0.19516761E+03   -0.66819439E-10    0.23636858E-05
    8   -0.19516761E+03   -0.52864380E-11    0.37839077E-06
    9   -0.19516761E+03   -0.65369932E-12    0.77909807E-07
   10   -0.19516761E+03   -0.28421709E-13    0.99062194E-08

Total Energy:                     -193.2551534816 H        -5258.7403 eV
Extrapolated to 0K:               -193.2551534816 H        -5258.7403 eV
Total Mermin free energy:         -193.2551534816 H        -5258.7403 eV
Force related energy:             -193.2551534816 H        -5258.7403 eV

Volume:                              0.111682E+05 au^3   0.165496E+04 A^3
Pressure:                            0.668468E-05 au     0.196670E+09 Pa
>> Charges saved for restart in charges.bin

total energy  -1.9325515E+02 H       energy change -1.0751712E-03 H
gradient norm  2.4101012E-02 H/a0    max. gradient  5.5283457E-03 H/a0
step length    1.2462248E-01 a0      max. step      3.7640693E-02 a0

--------------------------------------------------------------------------------

***  Geometry step: 27

 iSCC Total electronic   Diff electronic      SCC error    
    1   -0.19516761E+03    0.00000000E+00    0.55620984E-02
    2   -0.19517154E+03   -0.39355543E-02    0.26584446E-02
    3   -0.19517157E+03   -0.27213054E-04    0.73829362E-03
    4   -0.19517157E+03   -0.40956585E-05    0.73301438E-04
    5   -0.19517157E+03   -0.19318000E-06    0.26696680E-04
    6   -0.19517157E+03   -0.51555276E-08    0.11038201E-04
    7   -0.19517157E+03   -0.70315309E-10    0.26592545E-05
    8   -0.19517157E+03   -0.45474735E-11    0.48792787E-06
    9   -0.19517157E+03   -0.79580786E-12    0.74156416E-07
   10   -0.19517157E+03    0.56843419E-13    0.94978345E-08

Total Energy:                     -193.2561212763 H        -5258.7666 eV
Extrapolated to 0K:               -193.2561212763 H        -5258.7666 eV
Total Mermin free energy:         -193.2561212763 H        -5258.7666 eV
Force related energy:             -193.2561212763 H        -5258.7666 eV

Volume:                              0.111966E+05 au^3   0.165917E+04 A^3
Pressure:                            0.667055E-05 au     0.196254E+09 Pa
>> Charges saved for restart in charges.bin

total energy  -1.9325612E+02 H       energy change -9.6779469E-04 H
gradient norm  2.2224468E-02 H/a0    max. gradient  6.3859601E-03 H/a0
step length    1.5003210E-01 a0      max. step      4.1681286E-02 a0

--------------------------------------------------------------------------------

***  Geometry step: 28

 iSCC Total electronic   Diff electronic      SCC error    
    1   -0.19517157E+03    0.00000000E+00    0.44243690E-02
    2   -0.19517679E+03   -0.52134966E-02    0.25507484E-02
    3   -0.19517680E+03   -0.16536314E-04    0.51552792E-03
    4   -0.19517681E+03   -0.32809228E-05    0.63001683E-04
    5   -0.19517681E+03   -0.15990361E-06    0.13350458E-04
    6   -0.19517681E+03   -0.38405119E-08    0.59351928E-05
    7   -0.19517681E+03   -0.50619064E-10    0.18834188E-05
    8   -0.19517681E+03   -0.22453150E-11    0.35051429E-06
    9   -0.19517681E+03   -0.68212103E-12    0.68113395E-07
   10   -0.19517681E+03    0.00000000E+00    0.86344856E-08

Total Energy:                     -193.2568460410 H        -5258.7863 eV
Extrapolated to 0K:               -193.2568460410 H        -5258.7863 eV
Total Mermin free energy:         -193.2568460410 H        -5258.7863 eV
Force related energy:             -193.2568460410 H        -5258.7863 eV

Volume:                              0.112225E+05 au^3   0.166300E+04 A^3
Pressure:                            0.719343E-05 au     0.211638E+09 Pa
>> Charges saved for restart in charges.bin

total energy  -1.9325685E+02 H       energy change -7.2476470E-04 H
gradient norm  1.7634465E-02 H/a0    max. gradient  4.5319484E-03 H/a0
step length    1.4432934E-01 a0      max. step      3.4711754E-02 a0

--------------------------------------------------------------------------------

***  Geometry step: 29

 iSCC Total electronic   Diff electronic      SCC error    
    1   -0.19517681E+03    0.00000000E+00    0.42291089E-02
    2   -0.19518217E+03   -0.53602430E-02    0.24108037E-02
    3   -0.19518218E+03   -0.10919510E-04    0.47872087E-03
    4   -0.19518218E+03   -0.22150580E-05    0.42189917E-04
    5   -0.19518218E+03   -0.98298671E-07    0.83351323E-05
    6   -0.19518218E+03   -0.23830466E-08    0.31679692E-05
    7   -0.19518218E+03   -0.33196557E-10    0.10006042E-05
    8   -0.19518218E+03   -0.71054274E-12    0.20162623E-06
    9   -0.19518218E+03   -0.28421709E-12    0.49563865E-07
   10   -0.19518218E+03    0.56843419E-13    0.87286116E-08

Total Energy:                     -193.2573278026 H        -5258.7995 eV
Extrapolated to 0K:               -193.2573278026 H        -5258.7995 eV
Total Mermin free energy:         -193.2573278026 H        -5258.7995 eV
Force related energy:             -193.2573278026 H        -5258.7995 eV

Volume:                              0.112400E+05 au^3   0.166559E+04 A^3
Pressure:                            0.842507E-05 au     0.247874E+09 Pa
>> Charges saved for restart in charges.bin

total energy  -1.9325733E+02 H       energy change -4.8176161E-04 H
gradient norm  1.5288493E-02 H/a0    max. gradient  5.7595159E-03 H/a0
step length    1.1180003E-01 a0      max. step      2.3407561E-02 a0

--------------------------------------------------------------------------------

***  Geometry step: 30

 iSCC Total electronic   Diff electronic      SCC error    
    1   -0.19518218E+03    0.00000000E+00    0.33542459E-02
    2   -0.19518409E+03   -0.19142438E-02    0.18930660E-02
    3   -0.19518410E+03   -0.57138768E-05    0.37463434E-03
    4   -0.19518410E+03   -0.10959172E-05    0.35590757E-04
    5   -0.19518410E+03   -0.46505846E-07    0.45901727E-05
    6   -0.19518410E+03   -0.11769430E-08    0.15515943E-05
    7   -0.19518410E+03   -0.15205615E-10    0.41022067E-06
    8   -0.19518410E+03   -0.59685590E-12    0.11927523E-06
    9   -0.19518410E+03   -0.28421709E-13    0.36302938E-07
   10   -0.19518410E+03   -0.28421709E-13    0.67139383E-08

Total Energy:                     -193.2576995728 H        -5258.8096 eV
Extrapolated to 0K:               -193.2576995728 H        -5258.8096 eV
Total Mermin free energy:         -193.2576995728 H        -5258.8096 eV
Force related energy:             -193.2576995728 H        -5258.8096 eV

Volume:                              0.112514E+05 au^3   0.166729E+04 A^3
Pressure:                            0.867429E-05 au     0.255206E+09 Pa
>> Charges saved for restart in charges.bin

total energy  -1.9325770E+02 H       energy change -3.7177019E-04 H
gradient norm  1.5071384E-02 H/a0    max. gradient  6.1997917E-03 H/a0
step length    7.9248159E-02 a0      max. step      1.5613683E-02 a0

--------------------------------------------------------------------------------

***  Geometry step: 31

 iSCC Total electronic   Diff electronic      SCC error    
    1   -0.19518410E+03    0.00000000E+00    0.29333058E-02
    2   -0.19518304E+03    0.10630242E-02    0.16550682E-02
    3   -0.19518304E+03   -0.66868119E-05    0.36328346E-03
    4   -0.19518305E+03   -0.12860375E-05    0.40462865E-04
    5   -0.19518305E+03   -0.55033070E-07    0.11334924E-04
    6   -0.19518305E+03   -0.16282229E-08    0.37475109E-05
    7   -0.19518305E+03   -0.32400749E-10    0.94815612E-06
    8   -0.19518305E+03   -0.12789769E-11    0.21239780E-06
    9   -0.19518305E+03   -0.14210855E-12    0.48731578E-07
   10   -0.19518305E+03    0.00000000E+00    0.55596341E-08

Total Energy:                     -193.2581404751 H        -5258.8216 eV
Extrapolated to 0K:               -193.2581404751 H        -5258.8216 eV
Total Mermin free energy:         -193.2581404751 H        -5258.8216 eV
Force related energy:             -193.2581404751 H        -5258.8216 eV

Volume:                              0.112629E+05 au^3   0.166900E+04 A^3
Pressure:                            0.798990E-05 au     0.235071E+09 Pa
>> Charges saved for restart in charges.bin

total energy  -1.9325814E+02 H       energy change -4.4090233E-04 H
gradient norm  1.5523274E-02 H/a0    max. gradient  4.7139566E-03 H/a0
step length    9.1540531E-02 a0      max. step      1.7587598E-02 a0

--------------------------------------------------------------------------------

***  Geometry step: 32

 iSCC Total electronic   Diff electronic      SCC error    
    1   -0.19518305E+03    0.00000000E+00    0.31081215E-02
    2   -0.19517884E+03    0.42028108E-02    0.18757515E-02
    3   -0.19517885E+03   -0.54663207E-05    0.42496141E-03
    4   -0.19517885E+03   -0.10669531E-05    0.69222046E-04
    5   -0.19517885E+03   -0.54370474E-07    0.25122074E-04
    6   -0.19517885E+03   -0.21912001E-08    0.64312182E-05
    7   -0.19517885E+03   -0.64460437E-10    0.96772756E-06
    8   -0.19517885E+03   -0.37232439E-11    0.19382533E-06
    9   -0.19517885E+03   -0.28421709E-12    0.40216446E-07
   10   -0.19517885E+03   -0.28421709E-13    0.64978694E-08

Total Energy:                     -193.2585815488 H        -5258.8336 eV
Extrapolated to 0K:               -193.2585815488 H        -5258.8336 eV
Total Mermin free energy:         -193.2585815488 H        -5258.8336 eV
Force related energy:             -193.2585815488 H        -5258.8336 eV

Volume:                              0.112739E+05 au^3   0.167061E+04 A^3
Pressure:                            0.572905E-05 au     0.168554E+09 Pa
>> Charges saved for restart in charges.bin

total energy  -1.9325858E+02 H       energy change -4.4107373E-04 H
gradient norm  1.6786272E-02 H/a0    max. gradient  4.3127686E-03 H/a0
step length    9.8510907E-02 a0      max. step      2.1419730E-02 a0

--------------------------------------------------------------------------------

***  Geometry step: 33

 iSCC Total electronic   Diff electronic      SCC error    
    1   -0.19517885E+03    0.00000000E+00    0.31996974E-02
    2   -0.19517532E+03    0.35310440E-02    0.15666106E-02
    3   -0.19517532E+03   -0.63429694E-05    0.35409197E-03
    4   -0.19517533E+03   -0.11569303E-05    0.85078470E-04
    5   -0.19517533E+03   -0.62329548E-07    0.29745959E-04
    6   -0.19517533E+03   -0.20992275E-08    0.71716136E-05
    7   -0.19517533E+03   -0.63948846E-10    0.96710578E-06
    8   -0.19517533E+03   -0.36664005E-11    0.19916835E-06
    9   -0.19517533E+03   -0.25579538E-12    0.37618475E-07
   10   -0.19517533E+03    0.00000000E+00    0.86193577E-08

Total Energy:                     -193.2590917576 H        -5258.8475 eV
Extrapolated to 0K:               -193.2590917576 H        -5258.8475 eV
Total Mermin free energy:         -193.2590917576 H        -5258.8475 eV
Force related energy:             -193.2590917576 H        -5258.8475 eV

Volume:                              0.112828E+05 au^3   0.167194E+04 A^3
Pressure:                            0.379126E-05 au     0.111543E+09 Pa
>> Charges saved for restart in charges.bin

total energy  -1.9325909E+02 H       energy change -5.1020871E-04 H
gradient norm  1.7615831E-02 H/a0    max. gradient  3.2964066E-03 H/a0
step length    1.1519225E-01 a0      max. step      2.7048427E-02 a0

--------------------------------------------------------------------------------

***  Geometry step: 34

 iSCC Total electronic   Diff electronic      SCC error    
    1   -0.19517533E+03    0.00000000E+00    0.32486093E-02
    2   -0.19517385E+03    0.14807191E-02    0.18403941E-02
    3   -0.19517386E+03   -0.10533769E-04    0.42604098E-03
    4   -0.19517386E+03   -0.18117622E-05    0.93803117E-04
    5   -0.19517386E+03   -0.75830030E-07    0.33306474E-04
    6   -0.19517386E+03   -0.32598848E-08    0.97834368E-05
    7   -0.19517386E+03   -0.67245765E-10    0.13804197E-05
    8   -0.19517386E+03   -0.43200998E-11    0.25416249E-06
    9   -0.19517386E+03   -0.36948222E-12    0.44868373E-07
   10   -0.19517386E+03    0.56843419E-13    0.72106490E-08

Total Energy:                     -193.2597021838 H        -5258.8641 eV
Extrapolated to 0K:               -193.2597021838 H        -5258.8641 eV
Total Mermin free energy:         -193.2597021838 H        -5258.8641 eV
Force related energy:             -193.2597021838 H        -5258.8641 eV

Volume:                              0.112921E+05 au^3   0.167331E+04 A^3
Pressure:                            0.237234E-05 au     0.697966E+08 Pa
>> Charges saved for restart in charges.bin

total energy  -1.9325970E+02 H       energy change -6.1042623E-04 H
gradient norm  1.7864323E-02 H/a0    max. gradient  3.5464894E-03 H/a0
step length    1.4896682E-01 a0      max. step      3.4882067E-02 a0

--------------------------------------------------------------------------------

***  Geometry step: 35

 iSCC Total electronic   Diff electronic      SCC error    
    1   -0.19517386E+03    0.00000000E+00    0.35081691E-02
    2   -0.19517677E+03   -0.29118630E-02    0.19634047E-02
    3   -0.19517678E+03   -0.11031326E-04    0.49699713E-03
    4   -0.19517678E+03   -0.18825470E-05    0.50265562E-04
    5   -0.19517678E+03   -0.55364268E-07    0.13528234E-04
    6   -0.19517678E+03   -0.21429400E-08    0.47129788E-05
    7   -0.19517678E+03   -0.26659563E-10    0.12836117E-05
    8   -0.19517678E+03   -0.11084467E-11    0.28773462E-06
    9   -0.19517678E+03   -0.28421709E-13    0.37136544E-07
   10   -0.19517678E+03   -0.56843419E-13    0.35854772E-08

Total Energy:                     -193.2602562614 H        -5258.8791 eV
Extrapolated to 0K:               -193.2602562614 H        -5258.8791 eV
Total Mermin free energy:         -193.2602562614 H        -5258.8791 eV
Force related energy:             -193.2602562614 H        -5258.8791 eV

Volume:                              0.113009E+05 au^3   0.167461E+04 A^3
Pressure:                            0.238013E-05 au     0.700257E+08 Pa
>> Charges saved for restart in charges.bin

total energy  -1.9326026E+02 H       energy change -5.5407763E-04 H
gradient norm  1.7091564E-02 H/a0    max. gradient  5.6971798E-03 H/a0
step length    1.4650745E-01 a0      max. step      3.2285481E-02 a0

--------------------------------------------------------------------------------

***  Geometry step: 36

 iSCC Total electronic   Diff electronic      SCC error    
    1   -0.19517678E+03    0.00000000E+00    0.33778637E-02
    2   -0.19518410E+03   -0.73165019E-02    0.18566743E-02
    3   -0.19518411E+03   -0.11638627E-04    0.46594610E-03
    4   -0.19518411E+03   -0.19919656E-05    0.45055987E-04
    5   -0.19518411E+03   -0.64043263E-07    0.98461034E-05
    6   -0.19518411E+03   -0.26636826E-08    0.37394674E-05
    7   -0.19518411E+03   -0.40415671E-10    0.98968986E-06
    8   -0.19518411E+03   -0.17621460E-11    0.31701245E-06
    9   -0.19518411E+03   -0.17053026E-12    0.67087329E-07
   10   -0.19518411E+03    0.85265128E-13    0.91020858E-08

Total Energy:                     -193.2607608757 H        -5258.8929 eV
Extrapolated to 0K:               -193.2607608757 H        -5258.8929 eV
Total Mermin free energy:         -193.2607608757 H        -5258.8929 eV
Force related energy:             -193.2607608757 H        -5258.8929 eV

Volume:                              0.113089E+05 au^3   0.167581E+04 A^3
Pressure:                            0.431101E-05 au     0.126834E+09 Pa
>> Charges saved for restart in charges.bin

total energy  -1.9326076E+02 H       energy change -5.0461426E-04 H
gradient norm  1.5987462E-02 H/a0    max. gradient  5.6967684E-03 H/a0
step length    1.4305045E-01 a0      max. step      2.8752256E-02 a0

--------------------------------------------------------------------------------

***  Geometry step: 37

 iSCC Total electronic   Diff electronic      SCC error    
    1   -0.19518411E+03    0.00000000E+00    0.32913530E-02
    2   -0.19519072E+03   -0.66051454E-02    0.19231848E-02
    3   -0.19519073E+03   -0.10024771E-04    0.52260750E-03
    4   -0.19519073E+03   -0.15973113E-05    0.85186395E-04
    5   -0.19519073E+03   -0.61224995E-07    0.27739377E-04
    6   -0.19519073E+03   -0.33035121E-08    0.90455962E-05
    7   -0.19519073E+03   -0.61675109E-10    0.11710366E-05
    8   -0.19519073E+03   -0.40074610E-11    0.24998547E-06
    9   -0.19519073E+03   -0.22737368E-12    0.63121320E-07
   10   -0.19519073E+03    0.00000000E+00    0.51104752E-08

Total Energy:                     -193.2612003007 H        -5258.9048 eV
Extrapolated to 0K:               -193.2612003007 H        -5258.9048 eV
Total Mermin free energy:         -193.2612003007 H        -5258.9048 eV
Force related energy:             -193.2612003007 H        -5258.9048 eV

Volume:                              0.113175E+05 au^3   0.167708E+04 A^3
Pressure:                            0.615016E-05 au     0.180944E+09 Pa
>> Charges saved for restart in charges.bin

total energy  -1.9326120E+02 H       energy change -4.3942507E-04 H
gradient norm  1.5881595E-02 H/a0    max. gradient  5.2568089E-03 H/a0
step length    1.2797881E-01 a0      max. step      2.2991154E-02 a0

--------------------------------------------------------------------------------

***  Geometry step: 38

 iSCC Total electronic   Diff electronic      SCC error    
    1   -0.19519073E+03    0.00000000E+00    0.35716896E-02
    2   -0.19519540E+03   -0.46689705E-02    0.19184309E-02
    3   -0.19519541E+03   -0.13865064E-04    0.56807940E-03
    4   -0.19519541E+03   -0.21042173E-05    0.12267879E-03
    5   -0.19519541E+03   -0.83345270E-07    0.39341155E-04
    6   -0.19519541E+03   -0.46200910E-08    0.12129961E-04
    7   -0.19519541E+03   -0.10106760E-09    0.15424385E-05
    8   -0.19519541E+03   -0.59969807E-11    0.22431200E-06
    9   -0.19519541E+03   -0.48316906E-12    0.65157454E-07
   10   -0.19519541E+03    0.85265128E-13    0.70193575E-08

Total Energy:                     -193.2617072400 H        -5258.9186 eV
Extrapolated to 0K:               -193.2617072400 H        -5258.9186 eV
Total Mermin free energy:         -193.2617072400 H        -5258.9186 eV
Force related energy:             -193.2617072400 H        -5258.9186 eV

Volume:                              0.113292E+05 au^3   0.167881E+04 A^3
Pressure:                            0.721985E-05 au     0.212415E+09 Pa
>> Charges saved for restart in charges.bin

total energy  -1.9326171E+02 H       energy change -5.0693931E-04 H
gradient norm  1.7154308E-02 H/a0    max. gradient  4.0957626E-03 H/a0
step length    1.5012661E-01 a0      max. step      2.7125064E-02 a0

--------------------------------------------------------------------------------

***  Geometry step: 39

 iSCC Total electronic   Diff electronic      SCC error    
    1   -0.19519541E+03    0.00000000E+00    0.39451359E-02
    2   -0.19519664E+03   -0.12295431E-02    0.22555137E-02
    3   -0.19519666E+03   -0.16465286E-04    0.65277737E-03
    4   -0.19519666E+03   -0.23458424E-05    0.13471946E-03
    5   -0.19519666E+03   -0.10374902E-06    0.42940813E-04
    6   -0.19519666E+03   -0.53718168E-08    0.13021480E-04
    7   -0.19519666E+03   -0.11004886E-09    0.18991331E-05
    8   -0.19519666E+03   -0.66222583E-11    0.29863749E-06
    9   -0.19519666E+03   -0.56843419E-12    0.91554109E-07
   10   -0.19519666E+03    0.00000000E+00    0.10346072E-07
   11   -0.19519666E+03   -0.85265128E-13    0.17400943E-08

Total Energy:                     -193.2622822354 H        -5258.9343 eV
Extrapolated to 0K:               -193.2622822354 H        -5258.9343 eV
Total Mermin free energy:         -193.2622822354 H        -5258.9343 eV
Force related energy:             -193.2622822354 H        -5258.9343 eV

Volume:                              0.113430E+05 au^3   0.168086E+04 A^3
Pressure:                            0.693425E-05 au     0.204013E+09 Pa
>> Charges saved for restart in charges.bin

total energy  -1.9326228E+02 H       energy change -5.7499534E-04 H
gradient norm  1.8054188E-02 H/a0    max. gradient  3.8404052E-03 H/a0
step length    1.7255460E-01 a0      max. step      3.4132457E-02 a0

--------------------------------------------------------------------------------

***  Geometry step: 40

 iSCC Total electronic   Diff electronic      SCC error    
    1   -0.19519666E+03    0.00000000E+00    0.47787816E-02
    2   -0.19519422E+03    0.24479005E-02    0.27866507E-02
    3   -0.19519424E+03   -0.20374285E-04    0.82990845E-03
    4   -0.19519424E+03   -0.26729973E-05    0.10457478E-03
    5   -0.19519424E+03   -0.13013911E-06    0.32916497E-04
    6   -0.19519424E+03   -0.56153340E-08    0.10715587E-04
    7   -0.19519424E+03   -0.85918828E-10    0.22862777E-05
    8   -0.19519424E+03   -0.44622084E-11    0.30303741E-06
    9   -0.19519424E+03   -0.62527761E-12    0.80296362E-07
   10   -0.19519424E+03   -0.56843419E-13    0.12183650E-07
   11   -0.19519424E+03    0.17053026E-12    0.19193229E-08

Total Energy:                     -193.2628958371 H        -5258.9510 eV
Extrapolated to 0K:               -193.2628958371 H        -5258.9510 eV
Total Mermin free energy:         -193.2628958371 H        -5258.9510 eV
Force related energy:             -193.2628958371 H        -5258.9510 eV

Volume:                              0.113564E+05 au^3   0.168285E+04 A^3
Pressure:                            0.507017E-05 au     0.149170E+09 Pa
>> Charges saved for restart in charges.bin

total energy  -1.9326290E+02 H       energy change -6.1360170E-04 H
gradient norm  1.7163488E-02 H/a0    max. gradient  4.2050679E-03 H/a0
step length    1.8866178E-01 a0      max. step      4.2057314E-02 a0

--------------------------------------------------------------------------------

***  Geometry step: 41

 iSCC Total electronic   Diff electronic      SCC error    
    1   -0.19519424E+03    0.00000000E+00    0.45665724E-02
    2   -0.19519138E+03    0.28581402E-02    0.22510546E-02
    3   -0.19519140E+03   -0.18233595E-04    0.72347544E-03
    4   -0.19519140E+03   -0.21941946E-05    0.69695484E-04
    5   -0.19519140E+03   -0.10462736E-06    0.16731972E-04
    6   -0.19519140E+03   -0.43354476E-08    0.59844494E-05
    7   -0.19519140E+03   -0.58378191E-10    0.17928142E-05
    8   -0.19519140E+03   -0.19610980E-11    0.29172002E-06
    9   -0.19519140E+03   -0.39790393E-12    0.46924164E-07
   10   -0.19519140E+03   -0.28421709E-13    0.53337486E-08

Total Energy:                     -193.2633996159 H        -5258.9647 eV
Extrapolated to 0K:               -193.2633996159 H        -5258.9647 eV
Total Mermin free energy:         -193.2633996159 H        -5258.9647 eV
Force related energy:             -193.2633996159 H        -5258.9647 eV

Volume:                              0.113648E+05 au^3   0.168409E+04 A^3
Pressure:                            0.350182E-05 au     0.103027E+09 Pa
>> Charges saved for restart in charges.bin

total energy  -1.9326340E+02 H       energy change -5.0377882E-04 H
gradient norm  1.5152342E-02 H/a0    max. gradient  4.1993892E-03 H/a0
step length    1.6789918E-01 a0      max. step      4.1761272E-02 a0

--------------------------------------------------------------------------------

***  Geometry step: 42

 iSCC Total electronic   Diff electronic      SCC error    
    1   -0.19519140E+03    0.00000000E+00    0.31759779E-02
    2   -0.19518971E+03    0.16916969E-02    0.13472803E-02
    3   -0.19518972E+03   -0.98490626E-05    0.42470581E-03
    4   -0.19518972E+03   -0.12923886E-05    0.65418778E-04
    5   -0.19518972E+03   -0.48498464E-07    0.12521935E-04
    6   -0.19518972E+03   -0.28044269E-08    0.48849593E-05
    7   -0.19518972E+03   -0.40870418E-10    0.11267871E-05
    8   -0.19518972E+03   -0.15347723E-11    0.22054383E-06
    9   -0.19518972E+03   -0.17053026E-12    0.64730570E-07
   10   -0.19518972E+03    0.00000000E+00    0.10934562E-07
   11   -0.19518972E+03    0.00000000E+00    0.16495219E-08

Total Energy:                     -193.2637573819 H        -5258.9744 eV
Extrapolated to 0K:               -193.2637573819 H        -5258.9744 eV
Total Mermin free energy:         -193.2637573819 H        -5258.9744 eV
Force related energy:             -193.2637573819 H        -5258.9744 eV

Volume:                              0.113706E+05 au^3   0.168496E+04 A^3
Pressure:                            0.257271E-05 au     0.756917E+08 Pa
>> Charges saved for restart in charges.bin

total energy  -1.9326376E+02 H       energy change -3.5776596E-04 H
gradient norm  1.3312669E-02 H/a0    max. gradient  2.6629489E-03 H/a0
step length    1.2114553E-01 a0      max. step      3.0652331E-02 a0

--------------------------------------------------------------------------------

***  Geometry step: 43

 iSCC Total electronic   Diff electronic      SCC error    
    1   -0.19518972E+03    0.00000000E+00    0.33898917E-02
    2   -0.19518993E+03   -0.20771624E-03    0.19342480E-02
    3   -0.19518994E+03   -0.79535297E-05    0.50699624E-03
    4   -0.19518994E+03   -0.12409617E-05    0.63450781E-04
    5   -0.19518994E+03   -0.46668845E-07    0.21225149E-04
    6   -0.19518994E+03   -0.29453702E-08    0.76887224E-05
    7   -0.19518994E+03   -0.55905502E-10    0.12787998E-05
    8   -0.19518994E+03   -0.23874236E-11    0.20486130E-06
    9   -0.19518994E+03   -0.19895197E-12    0.51401488E-07
   10   -0.19518994E+03    0.56843419E-13    0.87886640E-08

Total Energy:                     -193.2640720904 H        -5258.9830 eV
Extrapolated to 0K:               -193.2640720904 H        -5258.9830 eV
Total Mermin free energy:         -193.2640720904 H        -5258.9830 eV
Force related energy:             -193.2640720904 H        -5258.9830 eV

Volume:                              0.113769E+05 au^3   0.168588E+04 A^3
Pressure:                            0.230839E-05 au     0.679152E+08 Pa
>> Charges saved for restart in charges.bin

total energy  -1.9326407E+02 H       energy change -3.1470852E-04 H
gradient norm  1.2869946E-02 H/a0    max. gradient  2.5309372E-03 H/a0
step length    1.0986354E-01 a0      max. step      2.5820328E-02 a0

--------------------------------------------------------------------------------

***  Geometry step: 44

 iSCC Total electronic   Diff electronic      SCC error    
    1   -0.19518994E+03    0.00000000E+00    0.39025531E-02
    2   -0.19519226E+03   -0.23246481E-02    0.22727962E-02
    3   -0.19519227E+03   -0.62826842E-05    0.51377795E-03
    4   -0.19519227E+03   -0.11158447E-05    0.61671705E-04
    5   -0.19519227E+03   -0.50544685E-07    0.22084291E-04
    6   -0.19519227E+03   -0.28127261E-08    0.72475956E-05
    7   -0.19519227E+03   -0.46838977E-10    0.10118828E-05
    8   -0.19519227E+03   -0.21600499E-11    0.17516113E-06
    9   -0.19519227E+03   -0.11368684E-12    0.40145335E-07
   10   -0.19519227E+03   -0.85265128E-13    0.62364109E-08

Total Energy:                     -193.2643698394 H        -5258.9911 eV
Extrapolated to 0K:               -193.2643698394 H        -5258.9911 eV
Total Mermin free energy:         -193.2643698394 H        -5258.9911 eV
Force related energy:             -193.2643698394 H        -5258.9911 eV

Volume:                              0.113837E+05 au^3   0.168689E+04 A^3
Pressure:                            0.273812E-05 au     0.805583E+08 Pa
>> Charges saved for restart in charges.bin

total energy  -1.9326437E+02 H       energy change -2.9774903E-04 H
gradient norm  1.3120228E-02 H/a0    max. gradient  2.8718011E-03 H/a0
step length    1.0733364E-01 a0      max. step      2.2697596E-02 a0

--------------------------------------------------------------------------------

***  Geometry step: 45

 iSCC Total electronic   Diff electronic      SCC error    
    1   -0.19519227E+03    0.00000000E+00    0.39162234E-02
    2   -0.19519576E+03   -0.34891295E-02    0.22893986E-02
    3   -0.19519576E+03   -0.60139622E-05    0.48552598E-03
    4   -0.19519577E+03   -0.10445814E-05    0.54850114E-04
    5   -0.19519577E+03   -0.58171281E-07    0.18546882E-04
    6   -0.19519577E+03   -0.30790375E-08    0.62394267E-05
    7   -0.19519577E+03   -0.48629545E-10    0.93339984E-06
    8   -0.19519577E+03   -0.22737368E-11    0.17720188E-06
    9   -0.19519577E+03   -0.17053026E-12    0.43483157E-07
   10   -0.19519577E+03    0.28421709E-13    0.58735874E-08

Total Energy:                     -193.2646858934 H        -5258.9997 eV
Extrapolated to 0K:               -193.2646858934 H        -5258.9997 eV
Total Mermin free energy:         -193.2646858934 H        -5258.9997 eV
Force related energy:             -193.2646858934 H        -5258.9997 eV

Volume:                              0.113914E+05 au^3   0.168803E+04 A^3
Pressure:                            0.363539E-05 au     0.106957E+09 Pa
>> Charges saved for restart in charges.bin

total energy  -1.9326469E+02 H       energy change -3.1605395E-04 H
gradient norm  1.3172988E-02 H/a0    max. gradient  2.8852911E-03 H/a0
step length    1.2186538E-01 a0      max. step      2.4394568E-02 a0

--------------------------------------------------------------------------------

***  Geometry step: 46

 iSCC Total electronic   Diff electronic      SCC error    
    1   -0.19519577E+03    0.00000000E+00    0.41321914E-02
    2   -0.19519884E+03   -0.30788278E-02    0.24382871E-02
    3   -0.19519885E+03   -0.77664965E-05    0.64621614E-03
    4   -0.19519885E+03   -0.11128517E-05    0.60282371E-04
    5   -0.19519885E+03   -0.66952424E-07    0.17807908E-04
    6   -0.19519885E+03   -0.34289087E-08    0.59416154E-05
    7   -0.19519885E+03   -0.57269745E-10    0.94641235E-06
    8   -0.19519885E+03   -0.27853275E-11    0.20509872E-06
    9   -0.19519885E+03   -0.25579538E-12    0.48431659E-07
   10   -0.19519885E+03    0.56843419E-13    0.54229132E-08

Total Energy:                     -193.2650176048 H        -5259.0087 eV
Extrapolated to 0K:               -193.2650176048 H        -5259.0087 eV
Total Mermin free energy:         -193.2650176048 H        -5259.0087 eV
Force related energy:             -193.2650176048 H        -5259.0087 eV

Volume:                              0.114002E+05 au^3   0.168933E+04 A^3
Pressure:                            0.429479E-05 au     0.126357E+09 Pa
>> Charges saved for restart in charges.bin

total energy  -1.9326502E+02 H       energy change -3.3171140E-04 H
gradient norm  1.2575048E-02 H/a0    max. gradient  2.6003486E-03 H/a0
step length    1.4726829E-01 a0      max. step      2.9982668E-02 a0

--------------------------------------------------------------------------------

***  Geometry step: 47

 iSCC Total electronic   Diff electronic      SCC error    
    1   -0.19519885E+03    0.00000000E+00    0.32445764E-02
    2   -0.19520006E+03   -0.12082857E-02    0.17047760E-02
    3   -0.19520007E+03   -0.81817970E-05    0.54010656E-03
    4   -0.19520007E+03   -0.10951537E-05    0.72025047E-04
    5   -0.19520007E+03   -0.48420645E-07    0.18025689E-04
    6   -0.19520007E+03   -0.36070276E-08    0.61221126E-05
    7   -0.19520007E+03   -0.58065552E-10    0.96973756E-06
    8   -0.19520007E+03   -0.20747848E-11    0.15928994E-06
    9   -0.19520007E+03   -0.17053026E-12    0.37969238E-07
   10   -0.19520007E+03   -0.56843419E-13    0.51659903E-08

Total Energy:                     -193.2652906989 H        -5259.0161 eV
Extrapolated to 0K:               -193.2652906989 H        -5259.0161 eV
Total Mermin free energy:         -193.2652906989 H        -5259.0161 eV
Force related energy:             -193.2652906989 H        -5259.0161 eV

Volume:                              0.114075E+05 au^3   0.169041E+04 A^3
Pressure:                            0.433888E-05 au     0.127654E+09 Pa
>> Charges saved for restart in charges.bin

total energy  -1.9326529E+02 H       energy change -2.7309416E-04 H
gradient norm  1.1516471E-02 H/a0    max. gradient  2.1970953E-03 H/a0
step length    1.3712338E-01 a0      max. step      2.9765593E-02 a0

--------------------------------------------------------------------------------

***  Geometry step: 48

 iSCC Total electronic   Diff electronic      SCC error    
    1   -0.19520007E+03    0.00000000E+00    0.33146559E-02
    2   -0.19519938E+03    0.68787408E-03    0.18446417E-02
    3   -0.19519939E+03   -0.52732255E-05    0.42797269E-03
    4   -0.19519939E+03   -0.86886112E-06    0.75977744E-04
    5   -0.19519939E+03   -0.31786129E-07    0.14363133E-04
    6   -0.19519939E+03   -0.25007125E-08    0.45576269E-05
    7   -0.19519939E+03   -0.41154635E-10    0.64429965E-06
    8   -0.19519939E+03   -0.14779289E-11    0.11149606E-06
    9   -0.19519939E+03   -0.14210855E-12    0.48415159E-07
   10   -0.19519939E+03    0.85265128E-13    0.55083000E-08

Total Energy:                     -193.2654940157 H        -5259.0217 eV
Extrapolated to 0K:               -193.2654940157 H        -5259.0217 eV
Total Mermin free energy:         -193.2654940157 H        -5259.0217 eV
Force related energy:             -193.2654940157 H        -5259.0217 eV

Volume:                              0.114115E+05 au^3   0.169101E+04 A^3
Pressure:                            0.398027E-05 au     0.117104E+09 Pa
>> Charges saved for restart in charges.bin

total energy  -1.9326549E+02 H       energy change -2.0331674E-04 H
gradient norm  9.7363120E-03 H/a0    max. gradient  1.8906205E-03 H/a0
step length    9.0439972E-02 a0      max. step      2.1023541E-02 a0

--------------------------------------------------------------------------------

***  Geometry step: 49

 iSCC Total electronic   Diff electronic      SCC error    
    1   -0.19519939E+03    0.00000000E+00    0.35880757E-02
    2   -0.19519753E+03    0.18573038E-02    0.20479472E-02
    3   -0.19519754E+03   -0.37912515E-05    0.42124025E-03
    4   -0.19519754E+03   -0.72681411E-06    0.53805070E-04
    5   -0.19519754E+03   -0.26813922E-07    0.14420822E-04
    6   -0.19519754E+03   -0.17237198E-08    0.45670266E-05
    7   -0.19519754E+03   -0.30127012E-10    0.73416205E-06
    8   -0.19519754E+03   -0.12505552E-11    0.15745887E-06
    9   -0.19519754E+03   -0.56843419E-13    0.37726561E-07
   10   -0.19519754E+03    0.28421709E-13    0.43102495E-08

Total Energy:                     -193.2656514106 H        -5259.0260 eV
Extrapolated to 0K:               -193.2656514106 H        -5259.0260 eV
Total Mermin free energy:         -193.2656514106 H        -5259.0260 eV
Force related energy:             -193.2656514106 H        -5259.0260 eV

Volume:                              0.114134E+05 au^3   0.169128E+04 A^3
Pressure:                            0.322995E-05 au     0.950283E+08 Pa
>> Charges saved for restart in charges.bin

total energy  -1.9326565E+02 H       energy change -1.5739493E-04 H
gradient norm  8.8901921E-03 H/a0    max. gradient  1.9574654E-03 H/a0
step length    6.1660747E-02 a0      max. step      1.5377684E-02 a0

--------------------------------------------------------------------------------

***  Geometry step: 50

 iSCC Total electronic   Diff electronic      SCC error    
    1   -0.19519754E+03    0.00000000E+00    0.24364630E-02
    2   -0.19519612E+03    0.14193763E-02    0.14361699E-02
    3   -0.19519612E+03   -0.25662476E-05    0.32585345E-03
    4   -0.19519612E+03   -0.51219203E-06    0.30185738E-04
    5   -0.19519612E+03   -0.18771146E-07    0.10385072E-04
    6   -0.19519612E+03   -0.62854610E-09    0.33876519E-05
    7   -0.19519612E+03   -0.16569857E-10    0.71955042E-06
    8   -0.19519612E+03   -0.76738615E-12    0.16690990E-06
    9   -0.19519612E+03   -0.11368684E-12    0.34835294E-07
   10   -0.19519612E+03    0.28421709E-13    0.40067047E-08

Total Energy:                     -193.2657793281 H        -5259.0294 eV
Extrapolated to 0K:               -193.2657793281 H        -5259.0294 eV
Total Mermin free energy:         -193.2657793281 H        -5259.0294 eV
Force related energy:             -193.2657793281 H        -5259.0294 eV

Volume:                              0.114135E+05 au^3   0.169130E+04 A^3
Pressure:                            0.261586E-05 au     0.769613E+08 Pa
>> Charges saved for restart in charges.bin

total energy  -1.9326578E+02 H       energy change -1.2791753E-04 H
gradient norm  8.9932478E-03 H/a0    max. gradient  1.8697691E-03 H/a0
step length    4.3868142E-02 a0      max. step      8.6207137E-03 a0

[...]
Pressure:                           -0.540735E-08 au    -0.159090E+06 Pa
>> Charges saved for restart in charges.bin

total energy  -1.9327602E+02 H       energy change -5.3233768E-07 H
gradient norm  5.5855196E-04 H/a0    max. gradient  1.0626558E-04 H/a0
step length    2.4449294E-03 a0      max. step      4.9840503E-04 a0

--------------------------------------------------------------------------------

***  Geometry step: 178

 iSCC Total electronic   Diff electronic      SCC error    
    1   -0.19518466E+03    0.00000000E+00    0.13322169E-03
    2   -0.19518452E+03    0.14304295E-03    0.78268663E-04
    3   -0.19518452E+03   -0.12930144E-07    0.22654721E-04
    4   -0.19518452E+03   -0.19634570E-08    0.19922112E-05
    5   -0.19518452E+03   -0.94559027E-10    0.50198235E-06
    6   -0.19518452E+03   -0.40358827E-11    0.17606300E-06
    7   -0.19518452E+03   -0.56843419E-13    0.30865025E-07
    8   -0.19518452E+03    0.00000000E+00    0.42435682E-08

Total Energy:                     -193.2760191143 H        -5259.3081 eV
Extrapolated to 0K:               -193.2760191143 H        -5259.3081 eV
Total Mermin free energy:         -193.2760191143 H        -5259.3081 eV
Force related energy:             -193.2760191143 H        -5259.3081 eV

Volume:                              0.111924E+05 au^3   0.165854E+04 A^3
Pressure:                           -0.648473E-07 au    -0.190787E+07 Pa
>> Charges saved for restart in charges.bin

total energy  -1.9327602E+02 H       energy change -6.2149584E-07 H
gradient norm  6.2689370E-04 H/a0    max. gradient  1.3252670E-04 H/a0
step length    3.0402925E-03 a0      max. step      7.7534221E-04 a0

--------------------------------------------------------------------------------

***  Geometry step: 179

 iSCC Total electronic   Diff electronic      SCC error    
    1   -0.19518452E+03    0.00000000E+00    0.11552581E-03
    2   -0.19518433E+03    0.18324469E-03    0.62318470E-04
    3   -0.19518433E+03   -0.14084293E-07    0.18918437E-04
    4   -0.19518433E+03   -0.19106778E-08    0.34532542E-05
    5   -0.19518433E+03   -0.92910568E-10    0.11718212E-05
    6   -0.19518433E+03   -0.43485215E-11    0.31625769E-06
    7   -0.19518433E+03   -0.14210855E-12    0.24848502E-07
    8   -0.19518433E+03   -0.56843419E-13    0.38082852E-08

Total Energy:                     -193.2760199301 H        -5259.3081 eV
Extrapolated to 0K:               -193.2760199301 H        -5259.3081 eV
Total Mermin free energy:         -193.2760199301 H        -5259.3081 eV
Force related energy:             -193.2760199301 H        -5259.3081 eV

Volume:                              0.111924E+05 au^3   0.165855E+04 A^3
Pressure:                           -0.134702E-06 au    -0.396307E+07 Pa
>> Charges saved for restart in charges.bin

total energy  -1.9327602E+02 H       energy change -8.1584349E-07 H
gradient norm  7.5538189E-04 H/a0    max. gradient  1.4832409E-04 H/a0
step length    4.1076826E-03 a0      max. step      9.0602985E-04 a0

--------------------------------------------------------------------------------

***  Geometry step: 180

 iSCC Total electronic   Diff electronic      SCC error    
    1   -0.19518433E+03    0.00000000E+00    0.19730795E-03
    2   -0.19518425E+03    0.82885165E-04    0.99187099E-04
    3   -0.19518425E+03   -0.40621615E-07    0.40878815E-04
    4   -0.19518425E+03   -0.44894932E-08    0.94977380E-05
    5   -0.19518425E+03   -0.16009949E-09    0.22102386E-05
    6   -0.19518425E+03   -0.13216095E-10    0.47778694E-06
    7   -0.19518425E+03   -0.22737368E-12    0.28197604E-07
    8   -0.19518425E+03    0.28421709E-13    0.56565654E-08

Total Energy:                     -193.2760215539 H        -5259.3081 eV
Extrapolated to 0K:               -193.2760215539 H        -5259.3081 eV
Total Mermin free energy:         -193.2760215539 H        -5259.3081 eV
Force related energy:             -193.2760215539 H        -5259.3081 eV

Volume:                              0.111928E+05 au^3   0.165860E+04 A^3
Pressure:                           -0.165988E-06 au    -0.488354E+07 Pa
>> Charges saved for restart in charges.bin

total energy  -1.9327602E+02 H       energy change -1.6237624E-06 H
gradient norm  9.1039240E-04 H/a0    max. gradient  2.1377822E-04 H/a0
step length    1.3892990E-02 a0      max. step      2.8282579E-03 a0

--------------------------------------------------------------------------------

***  Geometry step: 181

 iSCC Total electronic   Diff electronic      SCC error    
    1   -0.19518425E+03    0.00000000E+00    0.20697844E-03
    2   -0.19518415E+03    0.10457265E-03    0.11342528E-03
    3   -0.19518415E+03   -0.43656172E-07    0.46976653E-04
    4   -0.19518415E+03   -0.53323106E-08    0.10552120E-04
    5   -0.19518415E+03   -0.14503598E-09    0.21922491E-05
    6   -0.19518415E+03   -0.12988721E-10    0.40699043E-06
    7   -0.19518415E+03   -0.31263880E-12    0.25275944E-07
    8   -0.19518415E+03    0.85265128E-13    0.64945813E-08

Total Energy:                     -193.2760231295 H        -5259.3082 eV
Extrapolated to 0K:               -193.2760231295 H        -5259.3082 eV
Total Mermin free energy:         -193.2760231295 H        -5259.3082 eV
Force related energy:             -193.2760231295 H        -5259.3082 eV

Volume:                              0.111931E+05 au^3   0.165865E+04 A^3
Pressure:                           -0.198340E-06 au    -0.583537E+07 Pa
>> Charges saved for restart in charges.bin

total energy  -1.9327602E+02 H       energy change -1.5756344E-06 H
gradient norm  8.6669778E-04 H/a0    max. gradient  1.9683700E-04 H/a0
step length    1.4127956E-02 a0      max. step      3.2514173E-03 a0

--------------------------------------------------------------------------------

***  Geometry step: 182

 iSCC Total electronic   Diff electronic      SCC error    
    1   -0.19518415E+03    0.00000000E+00    0.19457801E-03
    2   -0.19518425E+03   -0.10661226E-03    0.94179338E-04
    3   -0.19518425E+03   -0.28480628E-07    0.27441400E-04
    4   -0.19518425E+03   -0.41683847E-08    0.38409274E-05
    5   -0.19518425E+03   -0.12897772E-09    0.12953200E-05
    6   -0.19518425E+03   -0.56843419E-11    0.34272177E-06
    7   -0.19518425E+03   -0.19895197E-12    0.28350494E-07
    8   -0.19518425E+03    0.56843419E-13    0.49005298E-08

Total Energy:                     -193.2760243275 H        -5259.3082 eV
Extrapolated to 0K:               -193.2760243275 H        -5259.3082 eV
Total Mermin free energy:         -193.2760243275 H        -5259.3082 eV
Force related energy:             -193.2760243275 H        -5259.3082 eV

Volume:                              0.111933E+05 au^3   0.165867E+04 A^3
Pressure:                           -0.150150E-06 au    -0.441755E+07 Pa
>> Charges saved for restart in charges.bin

total energy  -1.9327602E+02 H       energy change -1.1980090E-06 H
gradient norm  7.0065439E-04 H/a0    max. gradient  1.4319474E-04 H/a0
step length    7.0365308E-03 a0      max. step      1.7108025E-03 a0

--------------------------------------------------------------------------------

***  Geometry step: 183

 iSCC Total electronic   Diff electronic      SCC error    
    1   -0.19518425E+03    0.00000000E+00    0.18621503E-03
    2   -0.19518441E+03   -0.15114077E-03    0.10720426E-03
    3   -0.19518441E+03   -0.27358539E-07    0.31096231E-04
    4   -0.19518441E+03   -0.41846135E-08    0.19616264E-05
    5   -0.19518441E+03   -0.12047963E-09    0.72333289E-06
    6   -0.19518441E+03   -0.50022209E-11    0.26627333E-06
    7   -0.19518441E+03   -0.17053026E-12    0.51756115E-07
    8   -0.19518441E+03   -0.28421709E-13    0.67898873E-08

Total Energy:                     -193.2760251951 H        -5259.3082 eV
Extrapolated to 0K:               -193.2760251951 H        -5259.3082 eV
Total Mermin free energy:         -193.2760251951 H        -5259.3082 eV
Force related energy:             -193.2760251951 H        -5259.3082 eV

Volume:                              0.111933E+05 au^3   0.165868E+04 A^3
Pressure:                           -0.102697E-06 au    -0.302144E+07 Pa
>> Charges saved for restart in charges.bin

total energy  -1.9327603E+02 H       energy change -8.6756435E-07 H
gradient norm  5.5221053E-04 H/a0    max. gradient  1.2248553E-04 H/a0
step length    5.0982070E-03 a0      max. step      1.1129386E-03 a0

--------------------------------------------------------------------------------

***  Geometry step: 184

 iSCC Total electronic   Diff electronic      SCC error    
    1   -0.19518441E+03    0.00000000E+00    0.82287772E-04
    2   -0.19518463E+03   -0.22934734E-03    0.48772355E-04
    3   -0.19518463E+03   -0.50874007E-08    0.13252075E-04
    4   -0.19518463E+03   -0.94217967E-09    0.21627786E-05
    5   -0.19518463E+03   -0.48885340E-10    0.79548820E-06
    6   -0.19518463E+03   -0.10800250E-11    0.15832782E-06
    7   -0.19518463E+03   -0.28421709E-13    0.12348542E-07
    8   -0.19518463E+03    0.28421709E-13    0.27042693E-08

Total Energy:                     -193.2760255989 H        -5259.3082 eV
Extrapolated to 0K:               -193.2760255989 H        -5259.3082 eV
Total Mermin free energy:         -193.2760255989 H        -5259.3082 eV
Force related energy:             -193.2760255989 H        -5259.3082 eV

Volume:                              0.111932E+05 au^3   0.165867E+04 A^3
Pressure:                            0.301183E-08 au     0.886109E+05 Pa
>> Charges saved for restart in charges.bin

total energy  -1.9327603E+02 H       energy change -4.0382980E-07 H
gradient norm  5.3815163E-04 H/a0    max. gradient  1.1615282E-04 H/a0
step length    1.2374844E-03 a0      max. step      2.5649930E-04 a0

--------------------------------------------------------------------------------

***  Geometry step: 185

 iSCC Total electronic   Diff electronic      SCC error    
    1   -0.19518463E+03    0.00000000E+00    0.14116143E-03
    2   -0.19518496E+03   -0.32496265E-03    0.81916936E-04
    3   -0.19518496E+03   -0.10544937E-07    0.20602355E-04
    4   -0.19518496E+03   -0.19406912E-08    0.36118002E-05
    5   -0.19518496E+03   -0.11186785E-09    0.14353686E-05
    6   -0.19518496E+03   -0.30979663E-11    0.27114374E-06
    7   -0.19518496E+03   -0.14210855E-12    0.15194441E-07
    8   -0.19518496E+03   -0.56843419E-13    0.37272758E-08

Total Energy:                     -193.2760261452 H        -5259.3083 eV
Extrapolated to 0K:               -193.2760261452 H        -5259.3083 eV
Total Mermin free energy:         -193.2760261452 H        -5259.3083 eV
Force related energy:             -193.2760261452 H        -5259.3083 eV

Volume:                              0.111931E+05 au^3   0.165865E+04 A^3
Pressure:                            0.114514E-06 au     0.336913E+07 Pa
>> Charges saved for restart in charges.bin

total energy  -1.9327603E+02 H       energy change -5.4624829E-07 H
gradient norm  5.4578134E-04 H/a0    max. gradient  1.1624337E-04 H/a0
step length    2.2793334E-03 a0      max. step      4.2629681E-04 a0

--------------------------------------------------------------------------------

***  Geometry step: 186

 iSCC Total electronic   Diff electronic      SCC error    
    1   -0.19518496E+03    0.00000000E+00    0.16698575E-03
    2   -0.19518505E+03   -0.85698107E-04    0.83434830E-04
    3   -0.19518505E+03   -0.15509414E-07    0.23782266E-04
    4   -0.19518505E+03   -0.23048585E-08    0.20572143E-05
    5   -0.19518505E+03   -0.10030021E-09    0.78572170E-06
    6   -0.19518505E+03   -0.32969183E-11    0.21786719E-06
    7   -0.19518505E+03    0.28421709E-13    0.23322944E-07
    8   -0.19518505E+03   -0.56843419E-13    0.37617798E-08

Total Energy:                     -193.2760269261 H        -5259.3083 eV
Extrapolated to 0K:               -193.2760269261 H        -5259.3083 eV
Total Mermin free energy:         -193.2760269261 H        -5259.3083 eV
Force related energy:             -193.2760269261 H        -5259.3083 eV

Volume:                              0.111932E+05 au^3   0.165866E+04 A^3
Pressure:                            0.158363E-06 au     0.465920E+07 Pa
>> Charges saved for restart in charges.bin

total energy  -1.9327603E+02 H       energy change -7.8098662E-07 H
gradient norm  7.1766332E-04 H/a0    max. gradient  1.5211517E-04 H/a0
step length    7.1865635E-03 a0      max. step      2.0078252E-03 a0

--------------------------------------------------------------------------------

***  Geometry step: 187

 iSCC Total electronic   Diff electronic      SCC error    
    1   -0.19518505E+03    0.00000000E+00    0.22574926E-03
    2   -0.19518517E+03   -0.12746778E-03    0.11406485E-03
    3   -0.19518517E+03   -0.24195941E-07    0.33002800E-04
    4   -0.19518517E+03   -0.34590926E-08    0.25996009E-05
    5   -0.19518517E+03   -0.13233148E-09    0.81913731E-06
    6   -0.19518517E+03   -0.48885340E-11    0.26929478E-06
    7   -0.19518517E+03   -0.11368684E-12    0.35493052E-07
    8   -0.19518517E+03   -0.28421709E-13    0.53514935E-08

Total Energy:                     -193.2760279723 H        -5259.3083 eV
Extrapolated to 0K:               -193.2760279723 H        -5259.3083 eV
Total Mermin free energy:         -193.2760279723 H        -5259.3083 eV
Force related energy:             -193.2760279723 H        -5259.3083 eV

Volume:                              0.111933E+05 au^3   0.165867E+04 A^3
Pressure:                            0.169596E-06 au     0.498967E+07 Pa
>> Charges saved for restart in charges.bin

total energy  -1.9327603E+02 H       energy change -1.0461751E-06 H
gradient norm  8.3697865E-04 H/a0    max. gradient  1.6781954E-04 H/a0
step length    1.1551337E-02 a0      max. step      3.0489414E-03 a0

--------------------------------------------------------------------------------

***  Geometry step: 188

 iSCC Total electronic   Diff electronic      SCC error    
    1   -0.19518517E+03    0.00000000E+00    0.23732124E-03
    2   -0.19518514E+03    0.32424509E-04    0.87385319E-04
    3   -0.19518514E+03   -0.47049298E-07    0.26579878E-04
    4   -0.19518514E+03   -0.57062834E-08    0.28847472E-05
    5   -0.19518514E+03   -0.14205170E-09    0.43665641E-06
    6   -0.19518514E+03   -0.65938366E-11    0.12489630E-06
    7   -0.19518514E+03   -0.17053026E-12    0.17200346E-07
    8   -0.19518514E+03    0.56843419E-13    0.56180829E-08

Total Energy:                     -193.2760292303 H        -5259.3083 eV
Extrapolated to 0K:               -193.2760292303 H        -5259.3083 eV
Total Mermin free energy:         -193.2760292303 H        -5259.3083 eV
Force related energy:             -193.2760292303 H        -5259.3083 eV

Volume:                              0.111936E+05 au^3   0.165871E+04 A^3
Pressure:                            0.145686E-06 au     0.428622E+07 Pa
>> Charges saved for restart in charges.bin

total energy  -1.9327603E+02 H       energy change -1.2579899E-06 H
gradient norm  8.0181601E-04 H/a0    max. gradient  1.6223018E-04 H/a0
step length    1.6662378E-02 a0      max. step      4.1517345E-03 a0

--------------------------------------------------------------------------------

***  Geometry step: 189

 iSCC Total electronic   Diff electronic      SCC error    
    1   -0.19518514E+03    0.00000000E+00    0.14993954E-03
    2   -0.19518501E+03    0.12952585E-03    0.68241434E-04
    3   -0.19518501E+03   -0.23630378E-07    0.22691350E-04
    4   -0.19518501E+03   -0.32552805E-08    0.30216663E-05
    5   -0.19518501E+03   -0.75317530E-10    0.84517073E-06
    6   -0.19518501E+03   -0.57127636E-11    0.28928921E-06
    7   -0.19518501E+03   -0.25579538E-12    0.44200493E-07
    8   -0.19518501E+03    0.56843419E-13    0.42038875E-08

Total Energy:                     -193.2760301584 H        -5259.3084 eV
Extrapolated to 0K:               -193.2760301584 H        -5259.3084 eV
Total Mermin free energy:         -193.2760301584 H        -5259.3084 eV
Force related energy:             -193.2760301584 H        -5259.3084 eV

Volume:                              0.111937E+05 au^3   0.165874E+04 A^3
Pressure:                            0.897296E-07 au     0.263993E+07 Pa
>> Charges saved for restart in charges.bin

total energy  -1.9327603E+02 H       energy change -9.2808165E-07 H
gradient norm  6.7347282E-04 H/a0    max. gradient  1.3849663E-04 H/a0
step length    2.8715183E-03 a0      max. step      6.9566068E-04 a0

--------------------------------------------------------------------------------

***  Geometry step: 190

 iSCC Total electronic   Diff electronic      SCC error    
    1   -0.19518501E+03    0.00000000E+00    0.25361267E-03
    2   -0.19518469E+03    0.31937338E-03    0.11475402E-03
    3   -0.19518469E+03   -0.75804053E-07    0.36063540E-04
    4   -0.19518469E+03   -0.10914988E-07    0.57877157E-05
    5   -0.19518469E+03   -0.24371616E-09    0.18039300E-05
    6   -0.19518469E+03   -0.12022383E-10    0.58319522E-06
    7   -0.19518469E+03   -0.31263880E-12    0.73251861E-07
    8   -0.19518469E+03    0.28421709E-13    0.81747991E-08

Total Energy:                     -193.2760314655 H        -5259.3084 eV
Extrapolated to 0K:               -193.2760314655 H        -5259.3084 eV
Total Mermin free energy:         -193.2760314655 H        -5259.3084 eV
Force related energy:             -193.2760314655 H        -5259.3084 eV

Volume:                              0.111944E+05 au^3   0.165884E+04 A^3
Pressure:                           -0.651044E-07 au    -0.191544E+07 Pa
>> Charges saved for restart in charges.bin

total energy  -1.9327603E+02 H       energy change -1.3071216E-06 H
gradient norm  6.3476214E-04 H/a0    max. gradient  1.5089812E-04 H/a0
step length    1.4678928E-02 a0      max. step      3.0696163E-03 a0

--------------------------------------------------------------------------------

***  Geometry step: 191

 iSCC Total electronic   Diff electronic      SCC error    
    1   -0.19518469E+03    0.00000000E+00    0.10950779E-03
    2   -0.19518456E+03    0.13612233E-03    0.57054481E-04
    3   -0.19518456E+03   -0.92167056E-08    0.17807285E-04
    4   -0.19518456E+03   -0.12312853E-08    0.18475309E-05
    5   -0.19518456E+03   -0.50590643E-10    0.42151383E-06
    6   -0.19518456E+03   -0.25863756E-11    0.13710038E-06
    7   -0.19518456E+03   -0.28421709E-13    0.26825220E-07
    8   -0.19518456E+03    0.56843419E-13    0.46737498E-08

Total Energy:                     -193.2760318963 H        -5259.3084 eV
Extrapolated to 0K:               -193.2760318963 H        -5259.3084 eV
Total Mermin free energy:         -193.2760318963 H        -5259.3084 eV
Force related energy:             -193.2760318963 H        -5259.3084 eV

Volume:                              0.111945E+05 au^3   0.165886E+04 A^3
Pressure:                           -0.110028E-06 au    -0.323714E+07 Pa
>> Charges saved for restart in charges.bin

total energy  -1.9327603E+02 H       energy change -4.3081178E-07 H
gradient norm  5.2678716E-04 H/a0    max. gradient  9.7385885E-05 H/a0
step length    2.4967920E-03 a0      max. step      9.7797549E-04 a0

Geometry converged

--------------------------------------------------------------------------------
DFTB+ running times                          cpu [s]             wall clock [s]
--------------------------------------------------------------------------------
Pre-SCC initialisation                 +       6.66 (  0.2%)       3.04 (  0.8%)
SCC                                    +    2612.32 ( 92.3%)     340.57 ( 90.5%)
Post-SCC processing                    +     210.64 (  7.4%)      32.57 (  8.7%)
--------------------------------------------------------------------------------
Missing                                +       0.14 (  0.0%)       0.01 (  0.0%)
Total                                  =    2829.75 (100.0%)     376.18 (100.0%)
--------------------------------------------------------------------------------
