|===============================================================================
|
|  DFTB+ release 24.1
|
|  Copyright (C) 2006 - 2024  DFTB+ developers group
|
|===============================================================================
|
|  When publishing results obtained with DFTB+, please cite the following
|  reference:
|
|  * DFTB+, a software package for efficient approximate density functional
|    theory based atomistic simulations, J. Chem. Phys. 152, 124101 (2020).
|    [doi: 10.1063/1.5143190]
|
|  You should also cite additional publications crediting the parametrization
|  data you use. Please consult the documentation of the SK-files for the
|  references.
|
|===============================================================================

Reading input file 'dftb_in.hsd'
Parser version: 14

--------------------------------------------------------------------------------
Reading SK-files:
./SKFiles/Si-Si.skf
./SKFiles/Si-Ge.skf
./SKFiles/Si-O.skf
./SKFiles/Ge-Ge.skf
./SKFiles/Ge-O.skf
./SKFiles/O-O.skf
Done.


Processed input in HSD format written to 'dftb_pin.hsd'

Starting initialization...
--------------------------------------------------------------------------------
WARNING!
-> Dipole printed for extended system : value printed is not well defined
MPI processes:               1
OpenMP threads:              8
BLACS orbital grid size:     1 x 1
BLACS atom grid size:        1 x 1
Chosen random seed:          158088854
Current stacksize:           unlimited
Mode:                        Static calculation
Self consistent charges:     Yes
SCC-tolerance:                 0.100000E-07
Max. scc iterations:                    500
Shell resolved Hubbard:      No
Spin polarisation:           No
Nr. of up electrons:           192.000000
Nr. of down electrons:         192.000000
Periodic boundaries:         Yes
Electronic solver:           Relatively robust
Mixer:                       Broyden mixer
Mixing parameter:                  0.200000
Maximal SCC-cycles:                     500
Nr. of chrg. vec. in memory:            500
Electronic temperature:              0.100000E-07 H      0.272114E-06 eV
Initial charges:             Set automatically (system chrg:   0.000E+00)
Included shells:            Si:  s, p, d
                            Ge:  s, p, d
                             O:  s, p
K-points and weights:           1:  0.500000  0.500000  0.500000     1.000000

K-points in absolute space:     1:  0.025319  0.017606  0.037774

Extra options:
                             Mulliken analysis
Force type                   original

--------------------------------------------------------------------------------

***  Geometry step: 0

 iSCC Total electronic   Diff electronic      SCC error    
    1    0.00000000E+00    0.00000000E+00    0.14259871E+01
    2   -0.19732526E+03   -0.19732526E+03    0.96669210E+00
    3   -0.19766796E+03   -0.34270301E+00    0.41017214E-01
    4   -0.19795673E+03   -0.28876459E+00    0.23112449E-01
    5   -0.19795826E+03   -0.15387573E-02    0.36415770E-02
    6   -0.19795837E+03   -0.10646741E-03    0.12661474E-02
    7   -0.19795837E+03   -0.23404717E-05    0.34017827E-03
    8   -0.19795837E+03   -0.53699935E-06    0.53430752E-04
    9   -0.19795837E+03   -0.34197512E-07    0.17654621E-04
   10   -0.19795837E+03   -0.19704771E-09    0.30698648E-05
   11   -0.19795837E+03   -0.85776719E-10    0.30705719E-06
   12   -0.19795837E+03   -0.30695446E-11    0.12811281E-06
   13   -0.19795837E+03   -0.56843419E-13    0.14319536E-07
   14   -0.19795837E+03   -0.28421709E-13    0.55490030E-08

Total Energy:                     -190.4241767039 H        -5181.7055 eV
Extrapolated to 0K:               -190.4241767039 H        -5181.7055 eV
Total Mermin free energy:         -190.4241767039 H        -5181.7055 eV
Force related energy:             -190.4241767039 H        -5181.7055 eV

Volume:                              0.913789E+04 au^3   0.135410E+04 A^3
Pressure:                            0.249581E-02 au     0.734292E+11 Pa
>> Charges saved for restart in charges.bin

total energy  -1.9042418E+02 H       energy change -1.9042418E+02 H
gradient norm  2.3468392E+00 H/a0    max. gradient  1.3914739E+00 H/a0
step length    0.0000000E+00 a0      max. step      0.0000000E+00 a0

--------------------------------------------------------------------------------

***  Geometry step: 1

 iSCC Total electronic   Diff electronic      SCC error    
    1   -0.19795837E+03    0.00000000E+00    0.13899760E+00
    2   -0.19726706E+03    0.69131666E+00    0.61722443E-01
    3   -0.19728350E+03   -0.16439104E-01    0.20174274E-01
    4   -0.19728639E+03   -0.28921012E-02    0.21023042E-02
    5   -0.19728647E+03   -0.77702564E-04    0.84369573E-03
    6   -0.19728647E+03   -0.41410333E-05    0.23003707E-03
    7   -0.19728647E+03   -0.14976195E-06    0.36608625E-04
    8   -0.19728647E+03   -0.20414177E-07    0.10123922E-04
    9   -0.19728647E+03   -0.10046790E-08    0.38454192E-05
   10   -0.19728647E+03   -0.16115109E-10    0.93197343E-06
   11   -0.19728647E+03   -0.71054274E-12    0.16018251E-06
   12   -0.19728647E+03   -0.31263880E-12    0.26868264E-07
   13   -0.19728647E+03    0.00000000E+00    0.25261162E-08

Total Energy:                     -191.1737224763 H        -5202.1017 eV
Extrapolated to 0K:               -191.1737224763 H        -5202.1017 eV
Total Mermin free energy:         -191.1737224763 H        -5202.1017 eV
Force related energy:             -191.1737224763 H        -5202.1017 eV

Volume:                              0.972141E+04 au^3   0.144056E+04 A^3
Pressure:                            0.175715E-02 au     0.516972E+11 Pa
>> Charges saved for restart in charges.bin

total energy  -1.9117372E+02 H       energy change -7.4954577E-01 H
gradient norm  1.4995721E+00 H/a0    max. gradient  2.7290911E-01 H/a0
step length    8.0939131E-01 a0      max. step      4.7989946E-01 a0

--------------------------------------------------------------------------------

***  Geometry step: 2

 iSCC Total electronic   Diff electronic      SCC error    
    1   -0.19728647E+03    0.00000000E+00    0.48928839E-01
    2   -0.19693351E+03    0.35296101E+00    0.25333302E-01
    3   -0.19693694E+03   -0.34331412E-02    0.67606761E-02
    4   -0.19693763E+03   -0.68245743E-03    0.97825148E-03
    5   -0.19693765E+03   -0.19772707E-04    0.38805773E-03
    6   -0.19693765E+03   -0.11936183E-05    0.14872389E-03
    7   -0.19693765E+03   -0.19443945E-07    0.33917060E-04
    8   -0.19693765E+03   -0.28045690E-08    0.67346390E-05
    9   -0.19693765E+03   -0.26457769E-09    0.13488671E-05
   10   -0.19693765E+03   -0.41211479E-11    0.34364984E-06
   11   -0.19693765E+03   -0.17053026E-12    0.71108983E-07
   12   -0.19693765E+03   -0.56843419E-13    0.89253143E-08

Total Energy:                     -191.9773277191 H        -5223.9689 eV
Extrapolated to 0K:               -191.9773277191 H        -5223.9689 eV
Total Mermin free energy:         -191.9773277191 H        -5223.9689 eV
Force related energy:             -191.9773277191 H        -5223.9689 eV

Volume:                              0.988404E+04 au^3   0.146466E+04 A^3
Pressure:                            0.128484E-02 au     0.378013E+11 Pa
>> Charges saved for restart in charges.bin

total energy  -1.9197733E+02 H       energy change -8.0360524E-01 H
gradient norm  9.3957625E-01 H/a0    max. gradient  1.6604693E-01 H/a0
step length    7.4915805E-01 a0      max. step      1.5019986E-01 a0

--------------------------------------------------------------------------------

***  Geometry step: 3

 iSCC Total electronic   Diff electronic      SCC error    
    1   -0.19693765E+03    0.00000000E+00    0.71107739E-01
    2   -0.19655512E+03    0.38252246E+00    0.32646712E-01
    3   -0.19655955E+03   -0.44308381E-02    0.11356497E-01
    4   -0.19656033E+03   -0.77688059E-03    0.11944811E-02
    5   -0.19656037E+03   -0.36332089E-04    0.27499247E-03
    6   -0.19656037E+03   -0.18795909E-05    0.11715267E-03
    7   -0.19656037E+03   -0.32351494E-07    0.32465031E-04
    8   -0.19656037E+03   -0.31528771E-08    0.90406736E-05
    9   -0.19656037E+03   -0.41669068E-09    0.25047799E-05
   10   -0.19656037E+03   -0.11880275E-10    0.59548655E-06
   11   -0.19656037E+03   -0.45474735E-12    0.12427216E-06
   12   -0.19656037E+03   -0.14210855E-12    0.20495301E-07
   13   -0.19656037E+03    0.56843419E-13    0.26467282E-08

Total Energy:                     -192.5089891457 H        -5238.4361 eV
Extrapolated to 0K:               -192.5089891457 H        -5238.4361 eV
Total Mermin free energy:         -192.5089891457 H        -5238.4361 eV
Force related energy:             -192.5089891457 H        -5238.4361 eV

Volume:                              0.100216E+05 au^3   0.148505E+04 A^3
Pressure:                            0.919529E-03 au     0.270535E+11 Pa
>> Charges saved for restart in charges.bin

total energy  -1.9250899E+02 H       energy change -5.3166143E-01 H
gradient norm  5.8918519E-01 H/a0    max. gradient  1.5881176E-01 H/a0
step length    7.7815414E-01 a0      max. step      1.8010846E-01 a0

--------------------------------------------------------------------------------

***  Geometry step: 4

 iSCC Total electronic   Diff electronic      SCC error    
    1   -0.19656037E+03    0.00000000E+00    0.66550041E-01
    2   -0.19616614E+03    0.39422761E+00    0.36528720E-01
    3   -0.19616880E+03   -0.26600205E-02    0.67068228E-02
    4   -0.19616940E+03   -0.59382805E-03    0.10935638E-02
    5   -0.19616943E+03   -0.32378532E-04    0.46407286E-03
    6   -0.19616943E+03   -0.14259247E-05    0.15417009E-03
    7   -0.19616943E+03   -0.29735872E-07    0.48644914E-04
    8   -0.19616943E+03   -0.24948008E-08    0.10410447E-04
    9   -0.19616943E+03   -0.41006842E-09    0.19677203E-05
   10   -0.19616943E+03   -0.10345502E-10    0.26977733E-06
   11   -0.19616943E+03   -0.79580786E-12    0.90614276E-07
   12   -0.19616943E+03   -0.28421709E-13    0.22783174E-07
   13   -0.19616943E+03    0.28421709E-13    0.28716918E-08

Total Energy:                     -192.8120019766 H        -5246.6815 eV
Extrapolated to 0K:               -192.8120019766 H        -5246.6815 eV
Total Mermin free energy:         -192.8120019766 H        -5246.6815 eV
Force related energy:             -192.8120019766 H        -5246.6815 eV

Volume:                              0.101631E+05 au^3   0.150602E+04 A^3
Pressure:                            0.640007E-03 au     0.188297E+11 Pa
>> Charges saved for restart in charges.bin

total energy  -1.9281200E+02 H       energy change -3.0301283E-01 H
gradient norm  4.5384627E-01 H/a0    max. gradient  2.5432277E-01 H/a0
step length    7.2876489E-01 a0      max. step      1.5030496E-01 a0

--------------------------------------------------------------------------------

***  Geometry step: 5

 iSCC Total electronic   Diff electronic      SCC error    
    1   -0.19616943E+03    0.00000000E+00    0.61997941E-01
    2   -0.19573405E+03    0.43538411E+00    0.38197001E-01
    3   -0.19573601E+03   -0.19603865E-02    0.69797781E-02
    4   -0.19573646E+03   -0.45506673E-03    0.12261812E-02
    5   -0.19573649E+03   -0.28831396E-04    0.37206118E-03
    6   -0.19573649E+03   -0.76539703E-06    0.13821696E-03
    7   -0.19573649E+03   -0.17521160E-07    0.44746966E-04
    8   -0.19573649E+03   -0.14767636E-08    0.83163058E-05
    9   -0.19573649E+03   -0.19420554E-09    0.19689973E-05
   10   -0.19573649E+03   -0.91517904E-11    0.18504887E-06
   11   -0.19573649E+03   -0.68212103E-12    0.38174478E-07
   12   -0.19573649E+03   -0.28421709E-13    0.10482545E-07
   13   -0.19573649E+03    0.56843419E-13    0.21904016E-08

Total Energy:                     -192.9926334144 H        -5251.5968 eV
Extrapolated to 0K:               -192.9926334144 H        -5251.5968 eV
Total Mermin free energy:         -192.9926334144 H        -5251.5968 eV
Force related energy:             -192.9926334144 H        -5251.5968 eV

Volume:                              0.103660E+05 au^3   0.153609E+04 A^3
Pressure:                            0.387076E-03 au     0.113882E+11 Pa
>> Charges saved for restart in charges.bin

total energy  -1.9299263E+02 H       energy change -1.8063144E-01 H
gradient norm  3.1612277E-01 H/a0    max. gradient  1.6607438E-01 H/a0
step length    6.9443801E-01 a0      max. step      2.3750529E-01 a0

--------------------------------------------------------------------------------

***  Geometry step: 6

 iSCC Total electronic   Diff electronic      SCC error    
    1   -0.19573649E+03    0.00000000E+00    0.47008539E-01
    2   -0.19540718E+03    0.32931372E+00    0.25994178E-01
    3   -0.19540853E+03   -0.13487964E-02    0.44012989E-02
    4   -0.19540881E+03   -0.28467980E-03    0.84876613E-03
    5   -0.19540882E+03   -0.13835732E-04    0.32908291E-03
    6   -0.19540883E+03   -0.58520385E-06    0.11288938E-03
    7   -0.19540883E+03   -0.91254151E-08    0.25087813E-04
    8   -0.19540883E+03   -0.82030738E-09    0.50640698E-05
    9   -0.19540883E+03   -0.13150725E-09    0.96017233E-06
   10   -0.19540883E+03   -0.40643044E-11    0.16174848E-06
   11   -0.19540883E+03   -0.36948222E-12    0.32529387E-07
   12   -0.19540883E+03   -0.56843419E-13    0.74971678E-08

Total Energy:                     -193.0763092256 H        -5253.8737 eV
Extrapolated to 0K:               -193.0763092256 H        -5253.8737 eV
Total Mermin free energy:         -193.0763092256 H        -5253.8737 eV
Force related energy:             -193.0763092256 H        -5253.8737 eV

Volume:                              0.105203E+05 au^3   0.155895E+04 A^3
Pressure:                            0.223292E-03 au     0.656946E+10 Pa
>> Charges saved for restart in charges.bin

total energy  -1.9307631E+02 H       energy change -8.3675811E-02 H
gradient norm  1.9593102E-01 H/a0    max. gradient  9.7790863E-02 H/a0
step length    5.6198119E-01 a0      max. step      1.1562041E-01 a0

--------------------------------------------------------------------------------

***  Geometry step: 7

 iSCC Total electronic   Diff electronic      SCC error    
    1   -0.19540883E+03    0.00000000E+00    0.41145182E-01
    2   -0.19520513E+03    0.20369791E+00    0.19105541E-01
    3   -0.19520614E+03   -0.10177622E-02    0.37357601E-02
    4   -0.19520633E+03   -0.18066177E-03    0.69556114E-03
    5   -0.19520633E+03   -0.54254029E-05    0.27944924E-03
    6   -0.19520633E+03   -0.24402385E-06    0.89290192E-04
    7   -0.19520633E+03   -0.60113905E-08    0.17849850E-04
    8   -0.19520633E+03   -0.48041215E-09    0.30724167E-05
    9   -0.19520633E+03   -0.62101435E-10    0.90778835E-06
   10   -0.19520633E+03   -0.30127012E-11    0.11298944E-06
   11   -0.19520633E+03   -0.11368684E-12    0.16415221E-07
   12   -0.19520633E+03   -0.85265128E-13    0.44280162E-08

Total Energy:                     -193.1153704508 H        -5254.9366 eV
Extrapolated to 0K:               -193.1153704508 H        -5254.9366 eV
Total Mermin free energy:         -193.1153704508 H        -5254.9366 eV
Force related energy:             -193.1153704508 H        -5254.9366 eV

Volume:                              0.106109E+05 au^3   0.157237E+04 A^3
Pressure:                            0.129484E-03 au     0.380954E+10 Pa
>> Charges saved for restart in charges.bin

total energy  -1.9311537E+02 H       energy change -3.9061225E-02 H
gradient norm  1.4682708E-01 H/a0    max. gradient  6.0250558E-02 H/a0
step length    4.5951252E-01 a0      max. step      8.3322318E-02 a0

--------------------------------------------------------------------------------

***  Geometry step: 8

 iSCC Total electronic   Diff electronic      SCC error    
    1   -0.19520633E+03    0.00000000E+00    0.20278663E-01
    2   -0.19510617E+03    0.10016140E+00    0.86124209E-02
    3   -0.19510644E+03   -0.26558005E-03    0.15944850E-02
    4   -0.19510649E+03   -0.49947387E-04    0.27962460E-03
    5   -0.19510649E+03   -0.13307834E-05    0.66872745E-04
    6   -0.19510649E+03   -0.71552506E-07    0.18478469E-04
    7   -0.19510649E+03   -0.35593928E-08    0.67001143E-05
    8   -0.19510649E+03   -0.13508838E-09    0.19658657E-05
    9   -0.19510649E+03   -0.85265128E-11    0.55875705E-06
   10   -0.19510649E+03   -0.88107299E-12    0.89351865E-07
   11   -0.19510649E+03   -0.85265128E-13    0.10841228E-07
   12   -0.19510649E+03    0.28421709E-13    0.21791391E-08

Total Energy:                     -193.1382189018 H        -5255.5583 eV
Extrapolated to 0K:               -193.1382189018 H        -5255.5583 eV
Total Mermin free energy:         -193.1382189018 H        -5255.5583 eV
Force related energy:             -193.1382189018 H        -5255.5583 eV

Volume:                              0.106663E+05 au^3   0.158059E+04 A^3
Pressure:                            0.787923E-04 au     0.231815E+10 Pa
>> Charges saved for restart in charges.bin

total energy  -1.9313822E+02 H       energy change -2.2848451E-02 H
gradient norm  1.1059940E-01 H/a0    max. gradient  2.5938038E-02 H/a0
step length    3.4645819E-01 a0      max. step      6.8930839E-02 a0

--------------------------------------------------------------------------------

***  Geometry step: 9

 iSCC Total electronic   Diff electronic      SCC error    
    1   -0.19510649E+03    0.00000000E+00    0.23053689E-01
    2   -0.19508861E+03    0.17875680E-01    0.13461853E-01
    3   -0.19508894E+03   -0.33155583E-03    0.34803047E-02
    4   -0.19508900E+03   -0.54703903E-04    0.38710863E-03
    5   -0.19508900E+03   -0.21253191E-05    0.83272251E-04
    6   -0.19508900E+03   -0.22168166E-06    0.28810204E-04
    7   -0.19508900E+03   -0.31521665E-08    0.71410831E-05
    8   -0.19508900E+03   -0.10362555E-09    0.15802330E-05
    9   -0.19508900E+03   -0.95496944E-11    0.25471860E-06
   10   -0.19508900E+03   -0.11084467E-11    0.66961952E-07
   11   -0.19508900E+03   -0.11368684E-12    0.13560669E-07
   12   -0.19508900E+03    0.28421709E-13    0.14057022E-08

Total Energy:                     -193.1601314308 H        -5256.1546 eV
Extrapolated to 0K:               -193.1601314308 H        -5256.1546 eV
Total Mermin free energy:         -193.1601314308 H        -5256.1546 eV
Force related energy:             -193.1601314308 H        -5256.1546 eV

Volume:                              0.106903E+05 au^3   0.158413E+04 A^3
Pressure:                            0.579791E-04 au     0.170580E+10 Pa
>> Charges saved for restart in charges.bin

total energy  -1.9316013E+02 H       energy change -2.1912529E-02 H
gradient norm  9.4445666E-02 H/a0    max. gradient  1.9217097E-02 H/a0
step length    3.7880864E-01 a0      max. step      7.8447739E-02 a0

--------------------------------------------------------------------------------

***  Geometry step: 10

 iSCC Total electronic   Diff electronic      SCC error    
    1   -0.19508900E+03    0.00000000E+00    0.30124238E-01
    2   -0.19512952E+03   -0.40518862E-01    0.17505534E-01
    3   -0.19513003E+03   -0.51007746E-03    0.28316435E-02
    4   -0.19513014E+03   -0.10925909E-03    0.55128398E-03
    5   -0.19513014E+03   -0.58049078E-05    0.21541963E-03
    6   -0.19513014E+03   -0.17962367E-06    0.67240454E-04
    7   -0.19513014E+03   -0.62776451E-08    0.86484918E-05
    8   -0.19513014E+03   -0.30118485E-09    0.14055159E-05
    9   -0.19513014E+03   -0.28023805E-10    0.28999019E-06
   10   -0.19513014E+03   -0.28421709E-11    0.73052055E-07
   11   -0.19513014E+03   -0.56843419E-13    0.11948298E-07
   12   -0.19513014E+03   -0.56843419E-13    0.19129844E-08

Total Energy:                     -193.1782356816 H        -5256.6472 eV
Extrapolated to 0K:               -193.1782356816 H        -5256.6472 eV
Total Mermin free energy:         -193.1782356816 H        -5256.6472 eV
Force related energy:             -193.1782356816 H        -5256.6472 eV

Volume:                              0.106999E+05 au^3   0.158557E+04 A^3
Pressure:                            0.625035E-04 au     0.183892E+10 Pa
>> Charges saved for restart in charges.bin

total energy  -1.9317824E+02 H       energy change -1.8104251E-02 H
gradient norm  1.0218501E-01 H/a0    max. gradient  4.3678513E-02 H/a0
step length    4.1904711E-01 a0      max. step      7.4343429E-02 a0

--------------------------------------------------------------------------------

***  Geometry step: 11

 iSCC Total electronic   Diff electronic      SCC error    
    1   -0.19513014E+03    0.00000000E+00    0.21740522E-01
    2   -0.19517984E+03   -0.49691455E-01    0.12714531E-01
    3   -0.19518034E+03   -0.50015850E-03    0.30107800E-02
    4   -0.19518043E+03   -0.93030028E-04    0.66553353E-03
    5   -0.19518043E+03   -0.49870560E-05    0.23025235E-03
    6   -0.19518043E+03   -0.29585354E-06    0.70749349E-04
    7   -0.19518043E+03   -0.77269533E-08    0.95668240E-05
    8   -0.19518043E+03   -0.40850523E-09    0.15854849E-05
    9   -0.19518043E+03   -0.33764991E-10    0.36045372E-06
   10   -0.19518043E+03   -0.37800874E-11    0.80889329E-07
   11   -0.19518043E+03   -0.14210855E-12    0.13130903E-07
   12   -0.19518043E+03    0.00000000E+00    0.28431342E-08

Total Energy:                     -193.1885154572 H        -5256.9270 eV
Extrapolated to 0K:               -193.1885154572 H        -5256.9270 eV
Total Mermin free energy:         -193.1885154572 H        -5256.9270 eV
Force related energy:             -193.1885154572 H        -5256.9270 eV

Volume:                              0.107019E+05 au^3   0.158585E+04 A^3
Pressure:                            0.734478E-04 au     0.216091E+10 Pa
>> Charges saved for restart in charges.bin

total energy  -1.9318852E+02 H       energy change -1.0279776E-02 H
gradient norm  9.1681295E-02 H/a0    max. gradient  2.8147899E-02 H/a0
step length    3.1622232E-01 a0      max. step      4.6314752E-02 a0

--------------------------------------------------------------------------------

***  Geometry step: 12

 iSCC Total electronic   Diff electronic      SCC error    
    1   -0.19518043E+03    0.00000000E+00    0.16776678E-01
    2   -0.19520386E+03   -0.23427049E-01    0.97489706E-02
    3   -0.19520397E+03   -0.11151923E-03    0.18962531E-02
    4   -0.19520400E+03   -0.28315736E-04    0.46033084E-03
    5   -0.19520400E+03   -0.16126577E-05    0.15344414E-03
    6   -0.19520400E+03   -0.35209410E-07    0.27509986E-04
    7   -0.19520400E+03   -0.14854322E-08    0.23423890E-05
    8   -0.19520400E+03   -0.18877699E-09    0.11075837E-05
    9   -0.19520400E+03   -0.60254024E-11    0.24348880E-06
   10   -0.19520400E+03   -0.34106051E-12    0.21202173E-07
   11   -0.19520400E+03    0.00000000E+00    0.26792053E-08

Total Energy:                     -193.1973194985 H        -5257.1665 eV
Extrapolated to 0K:               -193.1973194985 H        -5257.1665 eV
Total Mermin free energy:         -193.1973194985 H        -5257.1665 eV
Force related energy:             -193.1973194985 H        -5257.1665 eV

Volume:                              0.107187E+05 au^3   0.158835E+04 A^3
Pressure:                            0.747045E-04 au     0.219788E+10 Pa
>> Charges saved for restart in charges.bin

total energy  -1.9319732E+02 H       energy change -8.8040413E-03 H
gradient norm  7.3580681E-02 H/a0    max. gradient  1.7811242E-02 H/a0
step length    2.3733910E-01 a0      max. step      3.8412804E-02 a0

--------------------------------------------------------------------------------

***  Geometry step: 13

 iSCC Total electronic   Diff electronic      SCC error    
    1   -0.19520400E+03    0.00000000E+00    0.23632364E-01
    2   -0.19521501E+03   -0.11004615E-01    0.13451488E-01
    3   -0.19521519E+03   -0.18249507E-03    0.26962299E-02
    4   -0.19521524E+03   -0.47294706E-04    0.61077021E-03
    5   -0.19521524E+03   -0.26975616E-05    0.16570262E-03
    6   -0.19521524E+03   -0.72268477E-07    0.33237747E-04
    7   -0.19521524E+03   -0.24011229E-08    0.34004104E-05
    8   -0.19521524E+03   -0.25085001E-09    0.11005175E-05
    9   -0.19521524E+03   -0.12136070E-10    0.13108232E-06
   10   -0.19521524E+03   -0.28421709E-12    0.13331310E-07
   11   -0.19521524E+03   -0.56843419E-13    0.45124935E-08

Total Energy:                     -193.2085835024 H        -5257.4731 eV
Extrapolated to 0K:               -193.2085835024 H        -5257.4731 eV
Total Mermin free energy:         -193.2085835024 H        -5257.4731 eV
Force related energy:             -193.2085835024 H        -5257.4731 eV

Volume:                              0.107618E+05 au^3   0.159473E+04 A^3
Pressure:                            0.698701E-04 au     0.205565E+10 Pa
>> Charges saved for restart in charges.bin

total energy  -1.9320858E+02 H       energy change -1.1264004E-02 H
gradient norm  6.2863700E-02 H/a0    max. gradient  1.2780583E-02 H/a0
step length    3.4010268E-01 a0      max. step      6.0066604E-02 a0

--------------------------------------------------------------------------------

***  Geometry step: 14

 iSCC Total electronic   Diff electronic      SCC error    
    1   -0.19521524E+03    0.00000000E+00    0.16099439E-01
    2   -0.19519592E+03    0.19323407E-01    0.91446147E-02
    3   -0.19519601E+03   -0.89857643E-04    0.19202783E-02
    4   -0.19519603E+03   -0.23039746E-04    0.39637679E-03
    5   -0.19519603E+03   -0.12231137E-05    0.13720251E-03
    6   -0.19519603E+03   -0.38948457E-07    0.25007155E-04
    7   -0.19519603E+03   -0.14592842E-08    0.25079374E-05
    8   -0.19519603E+03   -0.15475621E-09    0.82015557E-06
    9   -0.19519603E+03   -0.79012352E-11    0.19793553E-06
   10   -0.19519603E+03   -0.42632564E-12    0.26265327E-07
   11   -0.19519603E+03   -0.85265128E-13    0.54163802E-08

Total Energy:                     -193.2153877121 H        -5257.6582 eV
Extrapolated to 0K:               -193.2153877121 H        -5257.6582 eV
Total Mermin free energy:         -193.2153877121 H        -5257.6582 eV
Force related energy:             -193.2153877121 H        -5257.6582 eV

Volume:                              0.108150E+05 au^3   0.160261E+04 A^3
Pressure:                            0.567172E-04 au     0.166868E+10 Pa
>> Charges saved for restart in charges.bin

total energy  -1.9321539E+02 H       energy change -6.8042097E-03 H
gradient norm  5.9860392E-02 H/a0    max. gradient  1.1838515E-02 H/a0
step length    2.8030637E-01 a0      max. step      4.9862747E-02 a0

--------------------------------------------------------------------------------

***  Geometry step: 15

 iSCC Total electronic   Diff electronic      SCC error    
    1   -0.19519603E+03    0.00000000E+00    0.97320412E-02
    2   -0.19516570E+03    0.30326071E-01    0.56956856E-02
    3   -0.19516575E+03   -0.43005940E-04    0.15619642E-02
    4   -0.19516576E+03   -0.92455469E-05    0.30514524E-03
    5   -0.19516576E+03   -0.56485123E-06    0.10504030E-03
    6   -0.19516576E+03   -0.22419584E-07    0.19173737E-04
    7   -0.19516576E+03   -0.79128881E-09    0.22421304E-05
    8   -0.19516576E+03   -0.82536644E-10    0.64368428E-06
    9   -0.19516576E+03   -0.45758952E-11    0.21276856E-06
   10   -0.19516576E+03   -0.56843419E-13    0.26935178E-07
   11   -0.19516576E+03   -0.11368684E-12    0.40761234E-08

Total Energy:                     -193.2204182257 H        -5257.7951 eV
Extrapolated to 0K:               -193.2204182257 H        -5257.7951 eV
Total Mermin free energy:         -193.2204182257 H        -5257.7951 eV
Force related energy:             -193.2204182257 H        -5257.7951 eV

Volume:                              0.108686E+05 au^3   0.161056E+04 A^3
Pressure:                            0.394335E-04 au     0.116017E+10 Pa
>> Charges saved for restart in charges.bin

total energy  -1.9322042E+02 H       energy change -5.0305137E-03 H
gradient norm  5.2049350E-02 H/a0    max. gradient  9.1214498E-03 H/a0
step length    2.5794510E-01 a0      max. step      4.9841447E-02 a0

--------------------------------------------------------------------------------

***  Geometry step: 16

 iSCC Total electronic   Diff electronic      SCC error    
    1   -0.19516576E+03    0.00000000E+00    0.72820862E-02
    2   -0.19514097E+03    0.24783752E-01    0.43528482E-02
    3   -0.19514102E+03   -0.49615429E-04    0.15192074E-02
    4   -0.19514103E+03   -0.86977829E-05    0.31633092E-03
    5   -0.19514103E+03   -0.40553800E-06    0.10767261E-03
    6   -0.19514103E+03   -0.22134742E-07    0.24111930E-04
    7   -0.19514103E+03   -0.81570306E-09    0.25710160E-05
    8   -0.19514103E+03   -0.64716232E-10    0.45839643E-06
    9   -0.19514103E+03   -0.40643044E-11    0.16311676E-06
   10   -0.19514103E+03   -0.14210855E-12    0.27672591E-07
   11   -0.19514103E+03    0.00000000E+00    0.33511784E-08

Total Energy:                     -193.2251591587 H        -5257.9241 eV
Extrapolated to 0K:               -193.2251591587 H        -5257.9241 eV
Total Mermin free energy:         -193.2251591587 H        -5257.9241 eV
Force related energy:             -193.2251591587 H        -5257.9241 eV

Volume:                              0.109207E+05 au^3   0.161827E+04 A^3
Pressure:                            0.235934E-04 au     0.694142E+09 Pa
>> Charges saved for restart in charges.bin

total energy  -1.9322516E+02 H       energy change -4.7409330E-03 H
gradient norm  4.8951839E-02 H/a0    max. gradient  9.7515745E-03 H/a0
step length    2.6921602E-01 a0      max. step      5.4381312E-02 a0

--------------------------------------------------------------------------------

***  Geometry step: 17

 iSCC Total electronic   Diff electronic      SCC error    
    1   -0.19514103E+03    0.00000000E+00    0.92943342E-02
    2   -0.19514042E+03    0.61237830E-03    0.54028389E-02
    3   -0.19514047E+03   -0.46035376E-04    0.13431290E-02
    4   -0.19514047E+03   -0.71680000E-05    0.19211082E-03
    5   -0.19514047E+03   -0.40971864E-06    0.79443759E-04
    6   -0.19514047E+03   -0.20394225E-07    0.23977888E-04
    7   -0.19514047E+03   -0.50113158E-09    0.32711759E-05
    8   -0.19514047E+03   -0.38397729E-10    0.79953050E-06
    9   -0.19514047E+03   -0.23305802E-11    0.15557861E-06
   10   -0.19514047E+03   -0.14210855E-12    0.19951941E-07
   11   -0.19514047E+03   -0.28421709E-13    0.24351272E-08

Total Energy:                     -193.2296349434 H        -5258.0459 eV
Extrapolated to 0K:               -193.2296349434 H        -5258.0459 eV
Total Mermin free energy:         -193.2296349434 H        -5258.0459 eV
Force related energy:             -193.2296349434 H        -5258.0459 eV

Volume:                              0.109557E+05 au^3   0.162347E+04 A^3
Pressure:                            0.185615E-04 au     0.546097E+09 Pa
>> Charges saved for restart in charges.bin

total energy  -1.9322963E+02 H       energy change -4.4757847E-03 H
gradient norm  5.2283623E-02 H/a0    max. gradient  1.0043377E-02 H/a0
step length    2.4810974E-01 a0      max. step      4.8113922E-02 a0

--------------------------------------------------------------------------------

***  Geometry step: 18

 iSCC Total electronic   Diff electronic      SCC error    
    1   -0.19514047E+03    0.00000000E+00    0.15082567E-01
    2   -0.19515676E+03   -0.16283711E-01    0.88107568E-02
    3   -0.19515685E+03   -0.95753051E-04    0.23212626E-02
    4   -0.19515687E+03   -0.14264478E-04    0.21700450E-03
    5   -0.19515687E+03   -0.83204020E-06    0.41937110E-04
    6   -0.19515687E+03   -0.38055475E-07    0.15331438E-04
    7   -0.19515687E+03   -0.80510176E-09    0.36656724E-05
    8   -0.19515687E+03   -0.38028247E-10    0.13267006E-05
    9   -0.19515687E+03   -0.21600499E-11    0.35666428E-06
   10   -0.19515687E+03   -0.17053026E-12    0.48995136E-07
   11   -0.19515687E+03   -0.56843419E-13    0.48362883E-08

Total Energy:                     -193.2350435507 H        -5258.1931 eV
Extrapolated to 0K:               -193.2350435507 H        -5258.1931 eV
Total Mermin free energy:         -193.2350435507 H        -5258.1931 eV
Force related energy:             -193.2350435507 H        -5258.1931 eV

Volume:                              0.109883E+05 au^3   0.162830E+04 A^3
Pressure:                            0.211065E-04 au     0.620975E+09 Pa
>> Charges saved for restart in charges.bin

total energy  -1.9323504E+02 H       energy change -5.4086073E-03 H
gradient norm  5.3784691E-02 H/a0    max. gradient  1.0004641E-02 H/a0
step length    3.1137719E-01 a0      max. step      5.7126532E-02 a0

--------------------------------------------------------------------------------

***  Geometry step: 19

 iSCC Total electronic   Diff electronic      SCC error    
    1   -0.19515687E+03    0.00000000E+00    0.13110359E-01
    2   -0.19517481E+03   -0.17945186E-01    0.76366659E-02
    3   -0.19517493E+03   -0.11263932E-03    0.23438805E-02
    4   -0.19517494E+03   -0.14677834E-04    0.24457080E-03
    5   -0.19517494E+03   -0.75126664E-06    0.90004231E-04
    6   -0.19517494E+03   -0.45767649E-07    0.30700461E-04
    7   -0.19517494E+03   -0.11484929E-08    0.57531400E-05
    8   -0.19517494E+03   -0.59515060E-10    0.14763527E-05
    9   -0.19517494E+03   -0.35527137E-11    0.25141787E-06
   10   -0.19517494E+03   -0.48316906E-12    0.34368758E-07
   11   -0.19517494E+03   -0.85265128E-13    0.48354671E-08

Total Energy:                     -193.2398364626 H        -5258.3235 eV
Extrapolated to 0K:               -193.2398364626 H        -5258.3235 eV
Total Mermin free energy:         -193.2398364626 H        -5258.3235 eV
Force related energy:             -193.2398364626 H        -5258.3235 eV

Volume:                              0.110191E+05 au^3   0.163286E+04 A^3
Pressure:                            0.251782E-04 au     0.740769E+09 Pa
>> Charges saved for restart in charges.bin

total energy  -1.9323984E+02 H       energy change -4.7929118E-03 H
gradient norm  5.0331057E-02 H/a0    max. gradient  9.7820226E-03 H/a0
step length    3.1885577E-01 a0      max. step      5.7587813E-02 a0

--------------------------------------------------------------------------------

***  Geometry step: 20

 iSCC Total electronic   Diff electronic      SCC error    
    1   -0.19517494E+03    0.00000000E+00    0.10323211E-01
    2   -0.19518691E+03   -0.11967569E-01    0.46236403E-02
    3   -0.19518703E+03   -0.12546447E-03    0.19264507E-02
    4   -0.19518705E+03   -0.14302229E-04    0.36830926E-03
    5   -0.19518705E+03   -0.63815682E-06    0.10210063E-03
    6   -0.19518705E+03   -0.45014104E-07    0.28757914E-04
    7   -0.19518705E+03   -0.13485533E-08    0.41308952E-05
    8   -0.19518705E+03   -0.84128260E-10    0.98574614E-06
    9   -0.19518705E+03   -0.54001248E-11    0.26744289E-06
   10   -0.19518705E+03   -0.54001248E-12    0.32729385E-07
   11   -0.19518705E+03    0.28421709E-13    0.48974380E-08

Total Energy:                     -193.2444431300 H        -5258.4488 eV
Extrapolated to 0K:               -193.2444431300 H        -5258.4488 eV
Total Mermin free energy:         -193.2444431300 H        -5258.4488 eV
Force related energy:             -193.2444431300 H        -5258.4488 eV

Volume:                              0.110545E+05 au^3   0.163811E+04 A^3
Pressure:                            0.268692E-04 au     0.790519E+09 Pa
>> Charges saved for restart in charges.bin

total energy  -1.9324444E+02 H       energy change -4.6066674E-03 H
gradient norm  4.4204570E-02 H/a0    max. gradient  9.3808381E-03 H/a0
step length    3.3354393E-01 a0      max. step      5.9944777E-02 a0

--------------------------------------------------------------------------------

***  Geometry step: 21

 iSCC Total electronic   Diff electronic      SCC error    
    1   -0.19518705E+03    0.00000000E+00    0.98705951E-02
    2   -0.19518887E+03   -0.18193951E-02    0.51898961E-02
    3   -0.19518900E+03   -0.12741201E-03    0.20854260E-02
    4   -0.19518901E+03   -0.15366137E-04    0.41319902E-03
    5   -0.19518901E+03   -0.77351791E-06    0.11175812E-03
    6   -0.19518901E+03   -0.45545050E-07    0.25624231E-04
    7   -0.19518901E+03   -0.13319550E-08    0.32591779E-05
    8   -0.19518901E+03   -0.11903012E-09    0.93657755E-06
    9   -0.19518901E+03   -0.69348971E-11    0.25425514E-06
   10   -0.19518901E+03   -0.54001248E-12    0.34653282E-07
   11   -0.19518901E+03   -0.28421709E-13    0.44008259E-08

Total Energy:                     -193.2485892401 H        -5258.5617 eV
Extrapolated to 0K:               -193.2485892401 H        -5258.5617 eV
Total Mermin free energy:         -193.2485892401 H        -5258.5617 eV
Force related energy:             -193.2485892401 H        -5258.5617 eV

Volume:                              0.110959E+05 au^3   0.164424E+04 A^3
Pressure:                            0.241990E-04 au     0.711960E+09 Pa
>> Charges saved for restart in charges.bin

total energy  -1.9324859E+02 H       energy change -4.1461101E-03 H
gradient norm  3.9715589E-02 H/a0    max. gradient  8.4592525E-03 H/a0
step length    3.3791961E-01 a0      max. step      6.1334725E-02 a0

--------------------------------------------------------------------------------

***  Geometry step: 22

 iSCC Total electronic   Diff electronic      SCC error    
    1   -0.19518901E+03    0.00000000E+00    0.88766592E-02
    2   -0.19518220E+03    0.68076918E-02    0.48707361E-02
    3   -0.19518227E+03   -0.64854868E-04    0.12313363E-02
    4   -0.19518228E+03   -0.10386014E-04    0.28049927E-03
    5   -0.19518228E+03   -0.53659227E-06    0.91147776E-04
    6   -0.19518228E+03   -0.25255105E-07    0.22586719E-04
    7   -0.19518228E+03   -0.76397555E-09    0.37276448E-05
    8   -0.19518228E+03   -0.58719252E-10    0.67933404E-06
    9   -0.19518228E+03   -0.42632564E-11    0.10254118E-06
   10   -0.19518228E+03   -0.28421709E-12    0.18528769E-07
   11   -0.19518228E+03    0.00000000E+00    0.31816012E-08

Total Energy:                     -193.2509947585 H        -5258.6271 eV
Extrapolated to 0K:               -193.2509947585 H        -5258.6271 eV
Total Mermin free energy:         -193.2509947585 H        -5258.6271 eV
Force related energy:             -193.2509947585 H        -5258.6271 eV

Volume:                              0.111313E+05 au^3   0.164949E+04 A^3
Pressure:                            0.193922E-04 au     0.570539E+09 Pa
>> Charges saved for restart in charges.bin

total energy  -1.9325099E+02 H       energy change -2.4055184E-03 H
gradient norm  3.5508179E-02 H/a0    max. gradient  8.5006478E-03 H/a0
step length    2.4658757E-01 a0      max. step      4.5269393E-02 a0

--------------------------------------------------------------------------------

***  Geometry step: 23

 iSCC Total electronic   Diff electronic      SCC error    
    1   -0.19518228E+03    0.00000000E+00    0.68384291E-02
    2   -0.19517278E+03    0.95004579E-02    0.37936740E-02
    3   -0.19517280E+03   -0.22849105E-04    0.72681055E-03
    4   -0.19517281E+03   -0.48003339E-05    0.88704661E-04
    5   -0.19517281E+03   -0.20668762E-06    0.35413758E-04
    6   -0.19517281E+03   -0.53216809E-08    0.12195717E-04
    7   -0.19517281E+03   -0.18312107E-09    0.29276342E-05
    8   -0.19517281E+03   -0.77591267E-11    0.58034392E-06
    9   -0.19517281E+03   -0.85265128E-12    0.63666053E-07
   10   -0.19517281E+03   -0.11368684E-12    0.14166351E-07
   11   -0.19517281E+03   -0.11368684E-12    0.19938242E-08

Total Energy:                     -193.2523140362 H        -5258.6630 eV
Extrapolated to 0K:               -193.2523140362 H        -5258.6630 eV
Total Mermin free energy:         -193.2523140362 H        -5258.6630 eV
Force related energy:             -193.2523140362 H        -5258.6630 eV

Volume:                              0.111559E+05 au^3   0.165313E+04 A^3
Pressure:                            0.141103E-04 au     0.415140E+09 Pa
>> Charges saved for restart in charges.bin

total energy  -1.9325231E+02 H       energy change -1.3192776E-03 H
gradient norm  2.7265164E-02 H/a0    max. gradient  6.7182185E-03 H/a0
step length    1.3242626E-01 a0      max. step      2.5266269E-02 a0

--------------------------------------------------------------------------------

***  Geometry step: 24

 iSCC Total electronic   Diff electronic      SCC error    
    1   -0.19517281E+03    0.00000000E+00    0.56172481E-02
    2   -0.19516522E+03    0.75859394E-02    0.32678705E-02
    3   -0.19516525E+03   -0.27132383E-04    0.80777198E-03
    4   -0.19516525E+03   -0.49275941E-05    0.11012238E-03
    5   -0.19516525E+03   -0.16184754E-06    0.18993849E-04
    6   -0.19516525E+03   -0.77986044E-08    0.67462531E-05
    7   -0.19516525E+03   -0.13770318E-09    0.20326422E-05
    8   -0.19516525E+03   -0.45758952E-11    0.39517126E-06
    9   -0.19516525E+03   -0.51159077E-12    0.58733113E-07
   10   -0.19516525E+03   -0.11368684E-12    0.14056724E-07
   11   -0.19516525E+03   -0.28421709E-13    0.17625368E-08

Total Energy:                     -193.2533062262 H        -5258.6900 eV
Extrapolated to 0K:               -193.2533062262 H        -5258.6900 eV
Total Mermin free energy:         -193.2533062262 H        -5258.6900 eV
Force related energy:             -193.2533062262 H        -5258.6900 eV

Volume:                              0.111764E+05 au^3   0.165618E+04 A^3
Pressure:                            0.939592E-05 au     0.276437E+09 Pa
>> Charges saved for restart in charges.bin

total energy  -1.9325331E+02 H       energy change -9.9219008E-04 H
gradient norm  2.3068266E-02 H/a0    max. gradient  6.9478931E-03 H/a0
step length    1.0028490E-01 a0      max. step      2.0035728E-02 a0

--------------------------------------------------------------------------------

***  Geometry step: 25

 iSCC Total electronic   Diff electronic      SCC error    
    1   -0.19516525E+03    0.00000000E+00    0.34480851E-02
    2   -0.19516428E+03    0.97098434E-03    0.19311213E-02
    3   -0.19516430E+03   -0.12957983E-04    0.60331700E-03
    4   -0.19516430E+03   -0.17178590E-05    0.87564588E-04
    5   -0.19516430E+03   -0.60118339E-07    0.29675855E-04
    6   -0.19516430E+03   -0.37121310E-08    0.98536628E-05
    7   -0.19516430E+03   -0.82764018E-10    0.11326667E-05
    8   -0.19516430E+03   -0.48885340E-11    0.22617353E-06
    9   -0.19516430E+03   -0.31263880E-12    0.45768775E-07
   10   -0.19516430E+03   -0.28421709E-13    0.11100401E-07
   11   -0.19516430E+03   -0.28421709E-13    0.11916224E-08

Total Energy:                     -193.2539899694 H        -5258.7086 eV
Extrapolated to 0K:               -193.2539899694 H        -5258.7086 eV
Total Mermin free energy:         -193.2539899694 H        -5258.7086 eV
Force related energy:             -193.2539899694 H        -5258.7086 eV

Volume:                              0.111891E+05 au^3   0.165805E+04 A^3
Pressure:                            0.803217E-05 au     0.236315E+09 Pa
>> Charges saved for restart in charges.bin

total energy  -1.9325399E+02 H       energy change -6.8374315E-04 H
gradient norm  2.3212569E-02 H/a0    max. gradient  6.4145491E-03 H/a0
step length    6.5832274E-02 a0      max. step      1.7015416E-02 a0

--------------------------------------------------------------------------------

***  Geometry step: 26

 iSCC Total electronic   Diff electronic      SCC error    
    1   -0.19516430E+03    0.00000000E+00    0.63482917E-02
    2   -0.19516842E+03   -0.41205427E-02    0.36159093E-02
    3   -0.19516845E+03   -0.35808392E-04    0.10755023E-02
    4   -0.19516846E+03   -0.48353780E-05    0.17766233E-03
    5   -0.19516846E+03   -0.20002292E-06    0.57533289E-04
    6   -0.19516846E+03   -0.10282122E-07    0.17164657E-04
    7   -0.19516846E+03   -0.24994051E-09    0.19699276E-05
    8   -0.19516846E+03   -0.22680524E-10    0.36430159E-06
    9   -0.19516846E+03   -0.10800250E-11    0.10108650E-06
   10   -0.19516846E+03   -0.56843419E-13    0.17372746E-07
   11   -0.19516846E+03    0.00000000E+00    0.21172761E-08

Total Energy:                     -193.2550574717 H        -5258.7377 eV
Extrapolated to 0K:               -193.2550574717 H        -5258.7377 eV
Total Mermin free energy:         -193.2550574717 H        -5258.7377 eV
Force related energy:             -193.2550574717 H        -5258.7377 eV

Volume:                              0.112127E+05 au^3   0.166154E+04 A^3
Pressure:                            0.793333E-05 au     0.233407E+09 Pa
>> Charges saved for restart in charges.bin

total energy  -1.9325506E+02 H       energy change -1.0675023E-03 H
gradient norm  2.4046206E-02 H/a0    max. gradient  5.5013548E-03 H/a0
step length    1.3107892E-01 a0      max. step      3.4267889E-02 a0

--------------------------------------------------------------------------------

***  Geometry step: 27

 iSCC Total electronic   Diff electronic      SCC error    
    1   -0.19516846E+03    0.00000000E+00    0.49280433E-02
    2   -0.19517415E+03   -0.56875559E-02    0.23089124E-02
    3   -0.19517417E+03   -0.22380206E-04    0.78321556E-03
    4   -0.19517417E+03   -0.33531673E-05    0.13758880E-03
    5   -0.19517417E+03   -0.14975086E-06    0.42245325E-04
    6   -0.19517417E+03   -0.60812511E-08    0.10156927E-04
    7   -0.19517417E+03   -0.15779733E-09    0.12621898E-05
    8   -0.19517417E+03   -0.13613999E-10    0.29242331E-06
    9   -0.19517417E+03   -0.90949470E-12    0.83810999E-07
   10   -0.19517417E+03   -0.28421709E-13    0.12699267E-07
   11   -0.19517417E+03    0.28421709E-13    0.16511690E-08

Total Energy:                     -193.2558783262 H        -5258.7600 eV
Extrapolated to 0K:               -193.2558783262 H        -5258.7600 eV
Total Mermin free energy:         -193.2558783262 H        -5258.7600 eV
Force related energy:             -193.2558783262 H        -5258.7600 eV

Volume:                              0.112368E+05 au^3   0.166512E+04 A^3
Pressure:                            0.847467E-05 au     0.249333E+09 Pa
>> Charges saved for restart in charges.bin

total energy  -1.9325588E+02 H       energy change -8.2085451E-04 H
gradient norm  2.1765190E-02 H/a0    max. gradient  5.4066293E-03 H/a0
step length    1.3433538E-01 a0      max. step      3.3764137E-02 a0

--------------------------------------------------------------------------------

***  Geometry step: 28

 iSCC Total electronic   Diff electronic      SCC error    
    1   -0.19517417E+03    0.00000000E+00    0.49125445E-02
    2   -0.19517996E+03   -0.57827982E-02    0.25555472E-02
    3   -0.19517998E+03   -0.20715884E-04    0.82200929E-03
    4   -0.19517998E+03   -0.34430247E-05    0.15546990E-03
    5   -0.19517998E+03   -0.15180547E-06    0.48170776E-04
    6   -0.19517998E+03   -0.51097402E-08    0.10813949E-04
    7   -0.19517998E+03   -0.18079049E-09    0.15473011E-05
    8   -0.19517998E+03   -0.11567636E-10    0.31603683E-06
    9   -0.19517998E+03   -0.14495072E-11    0.84922292E-07
   10   -0.19517998E+03   -0.11368684E-12    0.12785413E-07
   11   -0.19517998E+03    0.56843419E-13    0.20666349E-08

Total Energy:                     -193.2565994145 H        -5258.7796 eV
Extrapolated to 0K:               -193.2565994145 H        -5258.7796 eV
Total Mermin free energy:         -193.2565994145 H        -5258.7796 eV
Force related energy:             -193.2565994145 H        -5258.7796 eV

Volume:                              0.112616E+05 au^3   0.166879E+04 A^3
Pressure:                            0.927108E-05 au     0.272764E+09 Pa
>> Charges saved for restart in charges.bin

total energy  -1.9325660E+02 H       energy change -7.2108831E-04 H
gradient norm  1.7920945E-02 H/a0    max. gradient  3.1175376E-03 H/a0
step length    1.4223567E-01 a0      max. step      3.3394941E-02 a0

--------------------------------------------------------------------------------

***  Geometry step: 29

 iSCC Total electronic   Diff electronic      SCC error    
    1   -0.19517998E+03    0.00000000E+00    0.41903371E-02
    2   -0.19518127E+03   -0.12913532E-02    0.23281093E-02
    3   -0.19518128E+03   -0.10130055E-04    0.55555992E-03
    4   -0.19518128E+03   -0.17608397E-05    0.10262403E-03
    5   -0.19518128E+03   -0.83448214E-07    0.35442431E-04
    6   -0.19518128E+03   -0.19676918E-08    0.67104685E-05
    7   -0.19518128E+03   -0.58662408E-10    0.99580594E-06
    8   -0.19518128E+03   -0.39221959E-11    0.16681768E-06
    9   -0.19518128E+03   -0.48316906E-12    0.39557350E-07
   10   -0.19518128E+03   -0.11368684E-12    0.58282703E-08

Total Energy:                     -193.2570767122 H        -5258.7926 eV
Extrapolated to 0K:               -193.2570767122 H        -5258.7926 eV
Total Mermin free energy:         -193.2570767122 H        -5258.7926 eV
Force related energy:             -193.2570767122 H        -5258.7926 eV

Volume:                              0.112797E+05 au^3   0.167149E+04 A^3
Pressure:                            0.881168E-05 au     0.259249E+09 Pa
>> Charges saved for restart in charges.bin

total energy  -1.9325708E+02 H       energy change -4.7729768E-04 H
gradient norm  1.6579811E-02 H/a0    max. gradient  4.2058772E-03 H/a0
step length    1.0138815E-01 a0      max. step      2.3856414E-02 a0

--------------------------------------------------------------------------------

***  Geometry step: 30

 iSCC Total electronic   Diff electronic      SCC error    
    1   -0.19518128E+03    0.00000000E+00    0.35358649E-02
    2   -0.19518015E+03    0.11321924E-02    0.19471932E-02
    3   -0.19518016E+03   -0.64254118E-05    0.37258711E-03
    4   -0.19518016E+03   -0.11624847E-05    0.60910928E-04
    5   -0.19518016E+03   -0.57145257E-07    0.23025915E-04
    6   -0.19518016E+03   -0.85532292E-09    0.51987239E-05
    7   -0.19518016E+03   -0.18616220E-10    0.85084396E-06
    8   -0.19518016E+03   -0.15631940E-11    0.11994425E-06
    9   -0.19518016E+03   -0.56843419E-13    0.23839945E-07
   10   -0.19518016E+03    0.28421709E-13    0.34299563E-08

Total Energy:                     -193.2574429324 H        -5258.8026 eV
Extrapolated to 0K:               -193.2574429324 H        -5258.8026 eV
Total Mermin free energy:         -193.2574429324 H        -5258.8026 eV
Force related energy:             -193.2574429324 H        -5258.8026 eV

Volume:                              0.112921E+05 au^3   0.167332E+04 A^3
Pressure:                            0.777962E-05 au     0.228884E+09 Pa
>> Charges saved for restart in charges.bin

total energy  -1.9325744E+02 H       energy change -3.6622024E-04 H
gradient norm  1.4778055E-02 H/a0    max. gradient  4.6002623E-03 H/a0
step length    7.4007533E-02 a0      max. step      1.5925151E-02 a0

--------------------------------------------------------------------------------

***  Geometry step: 31

 iSCC Total electronic   Diff electronic      SCC error    
    1   -0.19518016E+03    0.00000000E+00    0.37822716E-02
    2   -0.19517634E+03    0.38142585E-02    0.21693696E-02
    3   -0.19517635E+03   -0.46311184E-05    0.39344571E-03
    4   -0.19517635E+03   -0.86549821E-06    0.31858080E-04
    5   -0.19517635E+03   -0.47666077E-07    0.12143716E-04
    6   -0.19517635E+03   -0.12715020E-08    0.31810807E-05
    7   -0.19517635E+03   -0.19099389E-10    0.81746979E-06
    8   -0.19517635E+03   -0.10800250E-11    0.17418198E-06
    9   -0.19517635E+03   -0.19895197E-12    0.27599379E-07
   10   -0.19517635E+03    0.28421709E-13    0.34629037E-08

Total Energy:                     -193.2577796976 H        -5258.8118 eV
Extrapolated to 0K:               -193.2577796976 H        -5258.8118 eV
Total Mermin free energy:         -193.2577796976 H        -5258.8118 eV
Force related energy:             -193.2577796976 H        -5258.8118 eV

Volume:                              0.113019E+05 au^3   0.167477E+04 A^3
Pressure:                            0.584514E-05 au     0.171970E+09 Pa
>> Charges saved for restart in charges.bin

total energy  -1.9325778E+02 H       energy change -3.3676517E-04 H
gradient norm  1.4422445E-02 H/a0    max. gradient  4.4355560E-03 H/a0
step length    6.5454384E-02 a0      max. step      1.2641229E-02 a0

--------------------------------------------------------------------------------

***  Geometry step: 32

 iSCC Total electronic   Diff electronic      SCC error    
    1   -0.19517635E+03    0.00000000E+00    0.29994691E-02
    2   -0.19517285E+03    0.35023685E-02    0.17114609E-02
    3   -0.19517285E+03   -0.49415750E-05    0.38740823E-03
    4   -0.19517285E+03   -0.85222260E-06    0.38759359E-04
    5   -0.19517285E+03   -0.37952930E-07    0.14406145E-04
    6   -0.19517285E+03   -0.14894113E-08    0.35718913E-05
    7   -0.19517285E+03   -0.32599701E-10    0.99604311E-06
    8   -0.19517285E+03   -0.11084467E-11    0.20394156E-06
    9   -0.19517285E+03   -0.19895197E-12    0.35320141E-07
   10   -0.19517285E+03    0.00000000E+00    0.56390643E-08

Total Energy:                     -193.2581326812 H        -5258.8214 eV
Extrapolated to 0K:               -193.2581326812 H        -5258.8214 eV
Total Mermin free energy:         -193.2581326812 H        -5258.8214 eV
Force related energy:             -193.2581326812 H        -5258.8214 eV

Volume:                              0.113105E+05 au^3   0.167604E+04 A^3
Pressure:                            0.396773E-05 au     0.116735E+09 Pa
>> Charges saved for restart in charges.bin

total energy  -1.9325813E+02 H       energy change -3.5298358E-04 H
gradient norm  1.5356789E-02 H/a0    max. gradient  3.1176526E-03 H/a0
step length    7.4142965E-02 a0      max. step      1.4362988E-02 a0

--------------------------------------------------------------------------------

***  Geometry step: 33

 iSCC Total electronic   Diff electronic      SCC error    
    1   -0.19517285E+03    0.00000000E+00    0.26858949E-02
    2   -0.19517071E+03    0.21438730E-02    0.15208024E-02
    3   -0.19517072E+03   -0.57782390E-05    0.41046882E-03
    4   -0.19517072E+03   -0.99427243E-06    0.43636099E-04
    5   -0.19517072E+03   -0.36202977E-07    0.14966109E-04
    6   -0.19517072E+03   -0.19895481E-08    0.36134824E-05
    7   -0.19517072E+03   -0.53518079E-10    0.93350028E-06
    8   -0.19517072E+03   -0.16484591E-11    0.20821568E-06
    9   -0.19517072E+03   -0.19895197E-12    0.39738745E-07
   10   -0.19517072E+03   -0.56843419E-13    0.60210219E-08

Total Energy:                     -193.2585945188 H        -5258.8339 eV
Extrapolated to 0K:               -193.2585945188 H        -5258.8339 eV
Total Mermin free energy:         -193.2585945188 H        -5258.8339 eV
Force related energy:             -193.2585945188 H        -5258.8339 eV

Volume:                              0.113208E+05 au^3   0.167756E+04 A^3
Pressure:                            0.235144E-05 au     0.691818E+08 Pa
>> Charges saved for restart in charges.bin

total energy  -1.9325859E+02 H       energy change -4.6183759E-04 H
gradient norm  1.7503863E-02 H/a0    max. gradient  3.2001385E-03 H/a0
step length    1.0406323E-01 a0      max. step      2.1344144E-02 a0

--------------------------------------------------------------------------------

***  Geometry step: 34

 iSCC Total electronic   Diff electronic      SCC error    
    1   -0.19517072E+03    0.00000000E+00    0.30989558E-02
    2   -0.19517202E+03   -0.13040029E-02    0.16551551E-02
    3   -0.19517203E+03   -0.96541798E-05    0.45327335E-03
    4   -0.19517203E+03   -0.15714173E-05    0.88485733E-04
    5   -0.19517203E+03   -0.50146525E-07    0.26975534E-04
    6   -0.19517203E+03   -0.26495002E-08    0.64389868E-05
    7   -0.19517203E+03   -0.82366114E-10    0.13955066E-05
    8   -0.19517203E+03   -0.32116532E-11    0.30721526E-06
    9   -0.19517203E+03   -0.34106051E-12    0.49325495E-07
   10   -0.19517203E+03   -0.85265128E-13    0.91860350E-08

Total Energy:                     -193.2592181718 H        -5258.8509 eV
Extrapolated to 0K:               -193.2592181718 H        -5258.8509 eV
Total Mermin free energy:         -193.2592181718 H        -5258.8509 eV
Force related energy:             -193.2592181718 H        -5258.8509 eV

Volume:                              0.113339E+05 au^3   0.167951E+04 A^3
Pressure:                            0.190240E-05 au     0.559705E+08 Pa
>> Charges saved for restart in charges.bin

total energy  -1.9325922E+02 H       energy change -6.2365303E-04 H
gradient norm  1.9867998E-02 H/a0    max. gradient  3.4503789E-03 H/a0
step length    1.5731699E-01 a0      max. step      3.2586539E-02 a0

--------------------------------------------------------------------------------

***  Geometry step: 35

 iSCC Total electronic   Diff electronic      SCC error    
    1   -0.19517203E+03    0.00000000E+00    0.39851570E-02
    2   -0.19517674E+03   -0.47064151E-02    0.14838302E-02
    3   -0.19517675E+03   -0.11101825E-04    0.48452829E-03
    4   -0.19517675E+03   -0.17235484E-05    0.95630239E-04
    5   -0.19517675E+03   -0.52304841E-07    0.29954793E-04
    6   -0.19517675E+03   -0.23859172E-08    0.83138944E-05
    7   -0.19517675E+03   -0.54370730E-10    0.10904738E-05
    8   -0.19517675E+03   -0.38369308E-11    0.24309665E-06
    9   -0.19517675E+03   -0.22737368E-12    0.41773717E-07
   10   -0.19517675E+03    0.00000000E+00    0.63409082E-08

Total Energy:                     -193.2598519329 H        -5258.8681 eV
Extrapolated to 0K:               -193.2598519329 H        -5258.8681 eV
Total Mermin free energy:         -193.2598519329 H        -5258.8681 eV
Force related energy:             -193.2598519329 H        -5258.8681 eV

Volume:                              0.113485E+05 au^3   0.168167E+04 A^3
Pressure:                            0.255388E-05 au     0.751377E+08 Pa
>> Charges saved for restart in charges.bin

total energy  -1.9325985E+02 H       energy change -6.3376107E-04 H
gradient norm  1.9652267E-02 H/a0    max. gradient  5.1381753E-03 H/a0
step length    1.8186333E-01 a0      max. step      3.6612795E-02 a0

--------------------------------------------------------------------------------

***  Geometry step: 36

 iSCC Total electronic   Diff electronic      SCC error    
    1   -0.19517675E+03    0.00000000E+00    0.42520179E-02
    2   -0.19518386E+03   -0.71105638E-02    0.23711319E-02
    3   -0.19518388E+03   -0.13834130E-04    0.63721105E-03
    4   -0.19518388E+03   -0.21027878E-05    0.81071846E-04
    5   -0.19518388E+03   -0.63789969E-07    0.25186013E-04
    6   -0.19518388E+03   -0.28716727E-08    0.90609167E-05
    7   -0.19518388E+03   -0.53944404E-10    0.15333514E-05
    8   -0.19518388E+03   -0.29558578E-11    0.30180137E-06
    9   -0.19518388E+03   -0.34106051E-12    0.46025455E-07
   10   -0.19518388E+03    0.00000000E+00    0.70874511E-08

Total Energy:                     -193.2604457093 H        -5258.8843 eV
Extrapolated to 0K:               -193.2604457093 H        -5258.8843 eV
Total Mermin free energy:         -193.2604457093 H        -5258.8843 eV
Force related energy:             -193.2604457093 H        -5258.8843 eV

Volume:                              0.113616E+05 au^3   0.168362E+04 A^3
Pressure:                            0.447151E-05 au     0.131556E+09 Pa
>> Charges saved for restart in charges.bin

total energy  -1.9326045E+02 H       energy change -5.9377639E-04 H
gradient norm  1.6857974E-02 H/a0    max. gradient  5.9486429E-03 H/a0
step length    1.8233126E-01 a0      max. step      3.5189702E-02 a0

--------------------------------------------------------------------------------

***  Geometry step: 37

 iSCC Total electronic   Diff electronic      SCC error    
    1   -0.19518388E+03    0.00000000E+00    0.37872901E-02
    2   -0.19518878E+03   -0.49020239E-02    0.21626193E-02
    3   -0.19518879E+03   -0.10666475E-04    0.59192861E-03
    4   -0.19518879E+03   -0.16827120E-05    0.55191710E-04
    5   -0.19518879E+03   -0.58711009E-07    0.11833270E-04
    6   -0.19518879E+03   -0.26367104E-08    0.37030244E-05
    7   -0.19518879E+03   -0.54427574E-10    0.11209541E-05
    8   -0.19518879E+03   -0.14779289E-11    0.34133720E-06
    9   -0.19518879E+03   -0.14210855E-12    0.59676615E-07
   10   -0.19518879E+03   -0.14210855E-12    0.91965631E-08

Total Energy:                     -193.2609238556 H        -5258.8973 eV
Extrapolated to 0K:               -193.2609238556 H        -5258.8973 eV
Total Mermin free energy:         -193.2609238556 H        -5258.8973 eV
Force related energy:             -193.2609238556 H        -5258.8973 eV

Volume:                              0.113733E+05 au^3   0.168535E+04 A^3
Pressure:                            0.583814E-05 au     0.171764E+09 Pa
>> Charges saved for restart in charges.bin

total energy  -1.9326092E+02 H       energy change -4.7814631E-04 H
gradient norm  1.5392448E-02 H/a0    max. gradient  5.7545943E-03 H/a0
step length    1.5457671E-01 a0      max. step      2.8136835E-02 a0

--------------------------------------------------------------------------------

***  Geometry step: 38

 iSCC Total electronic   Diff electronic      SCC error    
    1   -0.19518879E+03    0.00000000E+00    0.39211854E-02
    2   -0.19519010E+03   -0.13050444E-02    0.22213624E-02
    3   -0.19519011E+03   -0.96154221E-05    0.53188318E-03
    4   -0.19519011E+03   -0.16734806E-05    0.58650553E-04
    5   -0.19519011E+03   -0.64055911E-07    0.11459241E-04
    6   -0.19519011E+03   -0.31707259E-08    0.35467057E-05
    7   -0.19519011E+03   -0.66194161E-10    0.74466326E-06
    8   -0.19519011E+03   -0.15347723E-11    0.12145778E-06
    9   -0.19519011E+03   -0.22737368E-12    0.26506717E-07
   10   -0.19519011E+03    0.11368684E-12    0.76028388E-08

Total Energy:                     -193.2613676811 H        -5258.9094 eV
Extrapolated to 0K:               -193.2613676811 H        -5258.9094 eV
Total Mermin free energy:         -193.2613676811 H        -5258.9094 eV
Force related energy:             -193.2613676811 H        -5258.9094 eV

Volume:                              0.113836E+05 au^3   0.168687E+04 A^3
Pressure:                            0.558456E-05 au     0.164303E+09 Pa
>> Charges saved for restart in charges.bin

total energy  -1.9326137E+02 H       energy change -4.4382550E-04 H
gradient norm  1.6204688E-02 H/a0    max. gradient  4.8011418E-03 H/a0
step length    1.3655288E-01 a0      max. step      2.6364933E-02 a0

--------------------------------------------------------------------------------

***  Geometry step: 39

 iSCC Total electronic   Diff electronic      SCC error    
    1   -0.19519011E+03    0.00000000E+00    0.39431782E-02
    2   -0.19518935E+03    0.76144256E-03    0.22189115E-02
    3   -0.19518936E+03   -0.11842609E-04    0.51284427E-03
    4   -0.19518936E+03   -0.21036475E-05    0.71698830E-04
    5   -0.19518936E+03   -0.10355822E-06    0.97621486E-05
    6   -0.19518936E+03   -0.43352486E-08    0.39461867E-05
    7   -0.19518936E+03   -0.67302608E-10    0.12805420E-05
    8   -0.19518936E+03   -0.23305802E-11    0.38681350E-06
    9   -0.19518936E+03   -0.17053026E-12    0.95912515E-07
   10   -0.19518936E+03   -0.28421709E-13    0.18429553E-07
   11   -0.19518936E+03   -0.56843419E-13    0.14027717E-08

Total Energy:                     -193.2618598529 H        -5258.9228 eV
Extrapolated to 0K:               -193.2618598529 H        -5258.9228 eV
Total Mermin free energy:         -193.2618598529 H        -5258.9228 eV
Force related energy:             -193.2618598529 H        -5258.9228 eV

Volume:                              0.113925E+05 au^3   0.168819E+04 A^3
Pressure:                            0.453046E-05 au     0.133291E+09 Pa
>> Charges saved for restart in charges.bin

total energy  -1.9326186E+02 H       energy change -4.9217185E-04 H
gradient norm  1.7471705E-02 H/a0    max. gradient  3.1848218E-03 H/a0
step length    1.4655255E-01 a0      max. step      2.8925917E-02 a0

--------------------------------------------------------------------------------

***  Geometry step: 40

 iSCC Total electronic   Diff electronic      SCC error    
    1   -0.19518936E+03    0.00000000E+00    0.40205271E-02
    2   -0.19518712E+03    0.22411987E-02    0.21996031E-02
    3   -0.19518713E+03   -0.10591024E-04    0.54516681E-03
    4   -0.19518713E+03   -0.16732239E-05    0.54052736E-04
    5   -0.19518713E+03   -0.94644093E-07    0.18305435E-04
    6   -0.19518713E+03   -0.32893865E-08    0.57779963E-05
    7   -0.19518713E+03   -0.48828497E-10    0.16570743E-05
    8   -0.19518713E+03   -0.22737368E-11    0.34883315E-06
    9   -0.19518713E+03   -0.39790393E-12    0.68360260E-07
   10   -0.19518713E+03    0.00000000E+00    0.78624347E-08

Total Energy:                     -193.2623365534 H        -5258.9357 eV
Extrapolated to 0K:               -193.2623365534 H        -5258.9357 eV
Total Mermin free energy:         -193.2623365534 H        -5258.9357 eV
Force related energy:             -193.2623365534 H        -5258.9357 eV

Volume:                              0.113997E+05 au^3   0.168925E+04 A^3
Pressure:                            0.293391E-05 au     0.863185E+08 Pa
>> Charges saved for restart in charges.bin

total energy  -1.9326234E+02 H       energy change -4.7670052E-04 H
gradient norm  1.6710222E-02 H/a0    max. gradient  3.4870326E-03 H/a0
step length    1.3553566E-01 a0      max. step      2.9193777E-02 a0

--------------------------------------------------------------------------------

***  Geometry step: 41

 iSCC Total electronic   Diff electronic      SCC error    
    1   -0.19518713E+03    0.00000000E+00    0.42246616E-02
    2   -0.19518558E+03    0.15487143E-02    0.18370946E-02
    3   -0.19518560E+03   -0.13411027E-04    0.53019443E-03
    4   -0.19518560E+03   -0.17885089E-05    0.75020868E-04
    5   -0.19518560E+03   -0.91052812E-07    0.25267646E-04
    6   -0.19518560E+03   -0.32089247E-08    0.67968171E-05
    7   -0.19518560E+03   -0.56814997E-10    0.16482693E-05
    8   -0.19518560E+03   -0.28137492E-11    0.27319768E-06
    9   -0.19518560E+03   -0.51159077E-12    0.52686047E-07
   10   -0.19518560E+03    0.00000000E+00    0.68154877E-08

Total Energy:                     -193.2628169812 H        -5258.9488 eV
Extrapolated to 0K:               -193.2628169812 H        -5258.9488 eV
Total Mermin free energy:         -193.2628169812 H        -5258.9488 eV
Force related energy:             -193.2628169812 H        -5258.9488 eV

Volume:                              0.114056E+05 au^3   0.169014E+04 A^3
Pressure:                            0.205085E-05 au     0.603380E+08 Pa
>> Charges saved for restart in charges.bin

total energy  -1.9326282E+02 H       energy change -4.8042772E-04 H
gradient norm  1.4925219E-02 H/a0    max. gradient  3.0587021E-03 H/a0
step length    1.4217278E-01 a0      max. step      3.2820998E-02 a0

--------------------------------------------------------------------------------

***  Geometry step: 42

 iSCC Total electronic   Diff electronic      SCC error    
    1   -0.19518560E+03    0.00000000E+00    0.30559931E-02
    2   -0.19518552E+03    0.77776219E-04    0.15661062E-02
    3   -0.19518553E+03   -0.10188346E-04    0.43977469E-03
    4   -0.19518553E+03   -0.12742807E-05    0.74378029E-04
    5   -0.19518553E+03   -0.39083830E-07    0.23394476E-04
    6   -0.19518553E+03   -0.22600375E-08    0.69741440E-05
    7   -0.19518553E+03   -0.51983307E-10    0.12183845E-05
    8   -0.19518553E+03   -0.26432190E-11    0.18998263E-06
    9   -0.19518553E+03   -0.31263880E-12    0.50217697E-07
   10   -0.19518553E+03    0.00000000E+00    0.97308370E-08

Total Energy:                     -193.2631954517 H        -5258.9591 eV
Extrapolated to 0K:               -193.2631954517 H        -5258.9591 eV
Total Mermin free energy:         -193.2631954517 H        -5258.9591 eV
Force related energy:             -193.2631954517 H        -5258.9591 eV

Volume:                              0.114115E+05 au^3   0.169102E+04 A^3
Pressure:                            0.171751E-05 au     0.505310E+08 Pa
>> Charges saved for restart in charges.bin

total energy  -1.9326320E+02 H       energy change -3.7847056E-04 H
gradient norm  1.4682333E-02 H/a0    max. gradient  3.3521458E-03 H/a0
step length    1.2599558E-01 a0      max. step      2.8314524E-02 a0

--------------------------------------------------------------------------------

***  Geometry step: 43

 iSCC Total electronic   Diff electronic      SCC error    
    1   -0.19518553E+03    0.00000000E+00    0.36645415E-02
    2   -0.19518780E+03   -0.22705194E-02    0.19559146E-02
    3   -0.19518781E+03   -0.10501301E-04    0.55494766E-03
    4   -0.19518781E+03   -0.14884088E-05    0.48913800E-04
    5   -0.19518781E+03   -0.39349999E-07    0.16054908E-04
    6   -0.19518781E+03   -0.23856046E-08    0.57507817E-05
    7   -0.19518781E+03   -0.61334049E-10    0.12832482E-05
    8   -0.19518781E+03   -0.22168933E-11    0.25157874E-06
    9   -0.19518781E+03   -0.19895197E-12    0.56393613E-07
   10   -0.19518781E+03   -0.28421709E-13    0.11953633E-07
   11   -0.19518781E+03   -0.14210855E-12    0.11287309E-08

Total Energy:                     -193.2635751374 H        -5258.9695 eV
Extrapolated to 0K:               -193.2635751374 H        -5258.9695 eV
Total Mermin free energy:         -193.2635751374 H        -5258.9695 eV
Force related energy:             -193.2635751374 H        -5258.9695 eV

Volume:                              0.114179E+05 au^3   0.169196E+04 A^3
Pressure:                            0.228505E-05 au     0.672285E+08 Pa
>> Charges saved for restart in charges.bin

total energy  -1.9326358E+02 H       energy change -3.7968563E-04 H
gradient norm  1.4389764E-02 H/a0    max. gradient  3.2494288E-03 H/a0
step length    1.3429754E-01 a0      max. step      2.8348353E-02 a0

--------------------------------------------------------------------------------

***  Geometry step: 44

 iSCC Total electronic   Diff electronic      SCC error    
    1   -0.19518781E+03    0.00000000E+00    0.32134608E-02
    2   -0.19519152E+03   -0.37049792E-02    0.18765391E-02
    3   -0.19519153E+03   -0.10311557E-04    0.50956071E-03
    4   -0.19519153E+03   -0.18112557E-05    0.56574347E-04
    5   -0.19519153E+03   -0.56644410E-07    0.10606202E-04
    6   -0.19519153E+03   -0.33881236E-08    0.31651750E-05
    7   -0.19519153E+03   -0.98225428E-10    0.87263313E-06
    8   -0.19519153E+03   -0.24442670E-11    0.27619188E-06
    9   -0.19519153E+03   -0.17053026E-12    0.52176697E-07
   10   -0.19519153E+03    0.28421709E-13    0.85885330E-08

Total Energy:                     -193.2639140509 H        -5258.9787 eV
Extrapolated to 0K:               -193.2639140509 H        -5258.9787 eV
Total Mermin free energy:         -193.2639140509 H        -5258.9787 eV
Force related energy:             -193.2639140509 H        -5258.9787 eV

Volume:                              0.114255E+05 au^3   0.169309E+04 A^3
Pressure:                            0.322634E-05 au     0.949221E+08 Pa
>> Charges saved for restart in charges.bin

total energy  -1.9326391E+02 H       energy change -3.3891354E-04 H
gradient norm  1.2896763E-02 H/a0    max. gradient  2.6041784E-03 H/a0
step length    1.4386328E-01 a0      max. step      2.7380044E-02 a0

--------------------------------------------------------------------------------

***  Geometry step: 45

 iSCC Total electronic   Diff electronic      SCC error    
    1   -0.19519153E+03    0.00000000E+00    0.23005056E-02
    2   -0.19519421E+03   -0.26765952E-02    0.13504537E-02
    3   -0.19519421E+03   -0.61908811E-05    0.39794545E-03
    4   -0.19519422E+03   -0.10388614E-05    0.53759510E-04
    5   -0.19519422E+03   -0.37695003E-07    0.67318142E-05
    6   -0.19519422E+03   -0.18326034E-08    0.16141150E-05
    7   -0.19519422E+03   -0.43854698E-10    0.32966391E-06
    8   -0.19519422E+03   -0.85265128E-12    0.10862415E-06
    9   -0.19519422E+03   -0.14210855E-12    0.33018447E-07
   10   -0.19519422E+03    0.00000000E+00    0.89338155E-08

Total Energy:                     -193.2641537304 H        -5258.9852 eV
Extrapolated to 0K:               -193.2641537304 H        -5258.9852 eV
Total Mermin free energy:         -193.2641537304 H        -5258.9852 eV
Force related energy:             -193.2641537304 H        -5258.9852 eV

Volume:                              0.114315E+05 au^3   0.169398E+04 A^3
Pressure:                            0.388723E-05 au     0.114366E+09 Pa
>> Charges saved for restart in charges.bin

total energy  -1.9326415E+02 H       energy change -2.3967952E-04 H
gradient norm  1.1197088E-02 H/a0    max. gradient  3.0002627E-03 H/a0
step length    1.1579343E-01 a0      max. step      2.1736928E-02 a0

--------------------------------------------------------------------------------

***  Geometry step: 46

 iSCC Total electronic   Diff electronic      SCC error    
    1   -0.19519422E+03    0.00000000E+00    0.25438439E-02
    2   -0.19519572E+03   -0.15027860E-02    0.15326266E-02
    3   -0.19519573E+03   -0.64269659E-05    0.43530749E-03
    4   -0.19519573E+03   -0.10073661E-05    0.60009020E-04
    5   -0.19519573E+03   -0.46614559E-07    0.11104300E-04
    6   -0.19519573E+03   -0.21493349E-08    0.39619989E-05
    7   -0.19519573E+03   -0.42433612E-10    0.75131341E-06
    8   -0.19519573E+03   -0.15631940E-11    0.19891184E-06
    9   -0.19519573E+03   -0.85265128E-13    0.39764584E-07
   10   -0.19519573E+03   -0.28421709E-13    0.77806415E-08

Total Energy:                     -193.2643875473 H        -5258.9916 eV
Extrapolated to 0K:               -193.2643875473 H        -5258.9916 eV
Total Mermin free energy:         -193.2643875473 H        -5258.9916 eV
Force related energy:             -193.2643875473 H        -5258.9916 eV

Volume:                              0.114373E+05 au^3   0.169484E+04 A^3
Pressure:                            0.421199E-05 au     0.123921E+09 Pa
>> Charges saved for restart in charges.bin

total energy  -1.9326439E+02 H       energy change -2.3381686E-04 H
gradient norm  1.0993976E-02 H/a0    max. gradient  3.3466070E-03 H/a0
step length    1.1777331E-01 a0      max. step      2.3330614E-02 a0

--------------------------------------------------------------------------------

***  Geometry step: 47

 iSCC Total electronic   Diff electronic      SCC error    
    1   -0.19519573E+03    0.00000000E+00    0.31858782E-02
    2   -0.19519530E+03    0.42675374E-03    0.18624216E-02
    3   -0.19519530E+03   -0.56498894E-05    0.42970571E-03
    4   -0.19519531E+03   -0.87810889E-06    0.54586234E-04
    5   -0.19519531E+03   -0.50490996E-07    0.17779471E-04
    6   -0.19519531E+03   -0.22037341E-08    0.55546303E-05
    7   -0.19519531E+03   -0.33878678E-10    0.57520889E-06
    8   -0.19519531E+03   -0.22168933E-11    0.11091994E-06
    9   -0.19519531E+03   -0.17053026E-12    0.38282993E-07
   10   -0.19519531E+03    0.28421709E-13    0.56613456E-08

Total Energy:                     -193.2646062485 H        -5258.9975 eV
Extrapolated to 0K:               -193.2646062485 H        -5258.9975 eV
Total Mermin free energy:         -193.2646062485 H        -5258.9975 eV
Force related energy:             -193.2646062485 H        -5258.9975 eV

Volume:                              0.114420E+05 au^3   0.169554E+04 A^3
Pressure:                            0.371629E-05 au     0.109337E+09 Pa
>> Charges saved for restart in charges.bin

total energy  -1.9326461E+02 H       energy change -2.1870120E-04 H
gradient norm  1.1718036E-02 H/a0    max. gradient  3.1798220E-03 H/a0
step length    1.0496427E-01 a0      max. step      2.3301969E-02 a0

--------------------------------------------------------------------------------

***  Geometry step: 48

 iSCC Total electronic   Diff electronic      SCC error    
    1   -0.19519531E+03    0.00000000E+00    0.35063480E-02
    2   -0.19519434E+03    0.96565433E-03    0.20156067E-02
    3   -0.19519435E+03   -0.70818932E-05    0.44342130E-03
    4   -0.19519435E+03   -0.10840535E-05    0.57911549E-04
    5   -0.19519435E+03   -0.64831340E-07    0.21735535E-04
    6   -0.19519435E+03   -0.30599381E-08    0.61114433E-05
    7   -0.19519435E+03   -0.41012527E-10    0.64993883E-06
    8   -0.19519435E+03   -0.34674486E-11    0.17217283E-06
    9   -0.19519435E+03   -0.14210855E-12    0.46519664E-07
   10   -0.19519435E+03   -0.85265128E-13    0.42773647E-08

Total Energy:                     -193.2648404308 H        -5259.0039 eV
Extrapolated to 0K:               -193.2648404308 H        -5259.0039 eV
Total Mermin free energy:         -193.2648404308 H        -5259.0039 eV
Force related energy:             -193.2648404308 H        -5259.0039 eV

Volume:                              0.114438E+05 au^3   0.169579E+04 A^3
Pressure:                            0.318510E-05 au     0.937089E+08 Pa
>> Charges saved for restart in charges.bin

total energy  -1.9326484E+02 H       energy change -2.3418232E-04 H
gradient norm  1.1624318E-02 H/a0    max. gradient  2.5801018E-03 H/a0
step length    9.6781373E-02 a0      max. step      2.4853014E-02 a0

--------------------------------------------------------------------------------

***  Geometry step: 49

 iSCC Total electronic   Diff electronic      SCC error    
    1   -0.19519435E+03    0.00000000E+00    0.32508625E-02
    2   -0.19519298E+03    0.13657090E-02    0.17886062E-02
    3   -0.19519299E+03   -0.75754022E-05    0.45191029E-03
    4   -0.19519299E+03   -0.11454928E-05    0.65303731E-04
    5   -0.19519299E+03   -0.53242530E-07    0.22057725E-04
    6   -0.19519299E+03   -0.33152503E-08    0.70866619E-05
    7   -0.19519299E+03   -0.57355010E-10    0.93569843E-06
    8   -0.19519299E+03   -0.31832315E-11    0.17990579E-06
    9   -0.19519299E+03   -0.19895197E-12    0.44641923E-07
   10   -0.19519299E+03   -0.56843419E-13    0.48521298E-08

Total Energy:                     -193.2650512072 H        -5259.0096 eV
Extrapolated to 0K:               -193.2650512072 H        -5259.0096 eV
Total Mermin free energy:         -193.2650512072 H        -5259.0096 eV
Force related energy:             -193.2650512072 H        -5259.0096 eV

Volume:                              0.114443E+05 au^3   0.169587E+04 A^3
Pressure:                            0.248318E-05 au     0.730578E+08 Pa
>> Charges saved for restart in charges.bin

total energy  -1.9326505E+02 H       energy change -2.1077641E-04 H
gradient norm  1.0245442E-02 H/a0    max. gradient  1.9427730E-03 H/a0
step length    7.9801840E-02 a0      max. step      2.0636739E-02 a0

--------------------------------------------------------------------------------

***  Geometry step: 50

 iSCC Total electronic   Diff electronic      SCC error    
    1   -0.19519299E+03    0.00000000E+00    0.25356867E-02
    2   -0.19519277E+03    0.22460660E-03    0.10221618E-02
    3   -0.19519277E+03   -0.54008234E-05    0.29810239E-03
    4   -0.19519277E+03   -0.81747913E-06    0.52303532E-04
    5   -0.19519277E+03   -0.21781688E-07    0.14984609E-04
    6   -0.19519277E+03   -0.17631123E-08    0.54035113E-05
    7   -0.19519277E+03   -0.39790393E-10    0.89325307E-06
    8   -0.19519277E+03   -0.17053026E-11    0.17442879E-06
    9   -0.19519277E+03    0.00000000E+00    0.31396453E-07
   10   -0.19519277E+03   -0.85265128E-13    0.46574118E-08

Total Energy:                     -193.2652174747 H        -5259.0141 eV
Extrapolated to 0K:               -193.2652174747 H        -5259.0141 eV
Total Mermin free energy:         -193.2652174747 H        -5259.0141 eV
Force related energy:             -193.2652174747 H        -5259.0141 eV

Volume:                              0.114430E+05 au^3   0.169567E+04 A^3
Pressure:                            0.250722E-05 au     0.737649E+08 Pa
>> Charges saved for restart in charges.bin

total energy  -1.9326522E+02 H       energy change -1.6626750E-04 H
gradient norm  9.4335618E-03 H/a0    max. gradient  2.0047650E-03 H/a0
[...]
>> Charges saved for restart in charges.bin

total energy  -1.9327499E+02 H       energy change -6.4677238E-07 H
gradient norm  6.3595837E-04 H/a0    max. gradient  2.0163196E-04 H/a0
step length    2.3686442E-03 a0      max. step      4.8926125E-04 a0

--------------------------------------------------------------------------------

***  Geometry step: 163

 iSCC Total electronic   Diff electronic      SCC error    
    1   -0.19518120E+03    0.00000000E+00    0.14513435E-03
    2   -0.19518113E+03    0.68072121E-04    0.51635274E-04
    3   -0.19518113E+03   -0.21617495E-07    0.18735466E-04
    4   -0.19518113E+03   -0.30587728E-08    0.37857848E-05
    5   -0.19518113E+03   -0.79865003E-10    0.10888248E-05
    6   -0.19518113E+03   -0.46327386E-11    0.30230028E-06
    7   -0.19518113E+03   -0.85265128E-13    0.45043134E-07
    8   -0.19518113E+03    0.28421709E-13    0.47161870E-08

Total Energy:                     -193.2749864402 H        -5259.2800 eV
Extrapolated to 0K:               -193.2749864402 H        -5259.2800 eV
Total Mermin free energy:         -193.2749864402 H        -5259.2800 eV
Force related energy:             -193.2749864402 H        -5259.2800 eV

Volume:                              0.112232E+05 au^3   0.166311E+04 A^3
Pressure:                            0.652103E-08 au     0.191855E+06 Pa
>> Charges saved for restart in charges.bin

total energy  -1.9327499E+02 H       energy change -7.4612041E-07 H
gradient norm  6.3232659E-04 H/a0    max. gradient  1.3363200E-04 H/a0
step length    3.2736413E-03 a0      max. step      7.8272443E-04 a0

--------------------------------------------------------------------------------

***  Geometry step: 164

 iSCC Total electronic   Diff electronic      SCC error    
    1   -0.19518113E+03    0.00000000E+00    0.10947672E-03
    2   -0.19518116E+03   -0.26374147E-04    0.42889598E-04
    3   -0.19518116E+03   -0.11241355E-07    0.14423593E-04
    4   -0.19518116E+03   -0.15685941E-08    0.29479138E-05
    5   -0.19518116E+03   -0.47577942E-10    0.86432759E-06
    6   -0.19518116E+03   -0.32116532E-11    0.24923753E-06
    7   -0.19518116E+03   -0.85265128E-13    0.26999573E-07
    8   -0.19518116E+03    0.28421709E-13    0.29481049E-08

Total Energy:                     -193.2749873503 H        -5259.2800 eV
Extrapolated to 0K:               -193.2749873503 H        -5259.2800 eV
Total Mermin free energy:         -193.2749873503 H        -5259.2800 eV
Force related energy:             -193.2749873503 H        -5259.2800 eV

Volume:                              0.112232E+05 au^3   0.166311E+04 A^3
Pressure:                            0.100400E-07 au     0.295387E+06 Pa
>> Charges saved for restart in charges.bin

total energy  -1.9327499E+02 H       energy change -9.1012166E-07 H
gradient norm  7.9129066E-04 H/a0    max. gradient  1.5940498E-04 H/a0
step length    7.7787816E-03 a0      max. step      1.7529849E-03 a0

--------------------------------------------------------------------------------

***  Geometry step: 165

 iSCC Total electronic   Diff electronic      SCC error    
    1   -0.19518116E+03    0.00000000E+00    0.16363144E-03
    2   -0.19518124E+03   -0.78371861E-04    0.64463955E-04
    3   -0.19518124E+03   -0.28879299E-07    0.21741577E-04
    4   -0.19518124E+03   -0.36177710E-08    0.41302063E-05
    5   -0.19518124E+03   -0.81229246E-10    0.98735655E-06
    6   -0.19518124E+03   -0.63664629E-11    0.30492920E-06
    7   -0.19518124E+03   -0.11368684E-12    0.34132051E-07
    8   -0.19518124E+03   -0.85265128E-13    0.40617505E-08

Total Energy:                     -193.2749887225 H        -5259.2800 eV
Extrapolated to 0K:               -193.2749887225 H        -5259.2800 eV
Total Mermin free energy:         -193.2749887225 H        -5259.2800 eV
Force related energy:             -193.2749887225 H        -5259.2800 eV

Volume:                              0.112235E+05 au^3   0.166315E+04 A^3
Pressure:                            0.322552E-07 au     0.948981E+06 Pa
>> Charges saved for restart in charges.bin

total energy  -1.9327499E+02 H       energy change -1.3721976E-06 H
gradient norm  1.0208596E-03 H/a0    max. gradient  1.8408537E-04 H/a0
step length    1.0413285E-02 a0      max. step      1.9344850E-03 a0

--------------------------------------------------------------------------------

***  Geometry step: 166

 iSCC Total electronic   Diff electronic      SCC error    
    1   -0.19518124E+03    0.00000000E+00    0.33803639E-03
    2   -0.19518110E+03    0.14272121E-03    0.10483195E-03
    3   -0.19518110E+03   -0.82847919E-07    0.32696298E-04
    4   -0.19518110E+03   -0.93046140E-08    0.78030377E-05
    5   -0.19518110E+03   -0.19170443E-09    0.14504611E-05
    6   -0.19518110E+03   -0.14949819E-10    0.49436640E-06
    7   -0.19518110E+03   -0.51159077E-12    0.54639256E-07
    8   -0.19518110E+03    0.11368684E-12    0.69560735E-08

Total Energy:                     -193.2749909885 H        -5259.2801 eV
Extrapolated to 0K:               -193.2749909885 H        -5259.2801 eV
Total Mermin free energy:         -193.2749909885 H        -5259.2801 eV
Force related energy:             -193.2749909885 H        -5259.2801 eV

Volume:                              0.112235E+05 au^3   0.166314E+04 A^3
Pressure:                           -0.712129E-07 au    -0.209516E+07 Pa
>> Charges saved for restart in charges.bin

total energy  -1.9327499E+02 H       energy change -2.2659846E-06 H
gradient norm  1.1564667E-03 H/a0    max. gradient  2.9214248E-04 H/a0
step length    3.0271959E-02 a0      max. step      7.2251633E-03 a0

--------------------------------------------------------------------------------

***  Geometry step: 167

 iSCC Total electronic   Diff electronic      SCC error    
    1   -0.19518110E+03    0.00000000E+00    0.17631250E-03
    2   -0.19518120E+03   -0.10851080E-03    0.63062459E-04
    3   -0.19518120E+03   -0.38518493E-07    0.22669550E-04
    4   -0.19518120E+03   -0.44099409E-08    0.36618542E-05
    5   -0.19518120E+03   -0.11129941E-09    0.33060073E-06
    6   -0.19518120E+03   -0.88675733E-11    0.95844137E-07
    7   -0.19518120E+03   -0.22737368E-12    0.14636614E-07
    8   -0.19518120E+03    0.28421709E-13    0.41266905E-08

Total Energy:                     -193.2749927567 H        -5259.2801 eV
Extrapolated to 0K:               -193.2749927567 H        -5259.2801 eV
Total Mermin free energy:         -193.2749927567 H        -5259.2801 eV
Force related energy:             -193.2749927567 H        -5259.2801 eV

Volume:                              0.112236E+05 au^3   0.166317E+04 A^3
Pressure:                           -0.232102E-07 au    -0.682866E+06 Pa
>> Charges saved for restart in charges.bin

total energy  -1.9327499E+02 H       energy change -1.7682615E-06 H
gradient norm  1.0043466E-03 H/a0    max. gradient  1.9444186E-04 H/a0
step length    9.7942875E-03 a0      max. step      2.0980108E-03 a0

--------------------------------------------------------------------------------

***  Geometry step: 168

 iSCC Total electronic   Diff electronic      SCC error    
    1   -0.19518120E+03    0.00000000E+00    0.29193271E-03
    2   -0.19518116E+03    0.40984660E-04    0.16713800E-03
    3   -0.19518116E+03   -0.97379314E-07    0.52049251E-04
    4   -0.19518116E+03   -0.12587890E-07    0.53661071E-05
    5   -0.19518116E+03   -0.47265303E-09    0.10160326E-05
    6   -0.19518116E+03   -0.30041747E-10    0.32428817E-06
    7   -0.19518116E+03   -0.45474735E-12    0.65277469E-07
    8   -0.19518116E+03    0.28421709E-13    0.15277408E-07
    9   -0.19518116E+03    0.00000000E+00    0.35703076E-08

Total Energy:                     -193.2749948196 H        -5259.2802 eV
Extrapolated to 0K:               -193.2749948196 H        -5259.2802 eV
Total Mermin free energy:         -193.2749948196 H        -5259.2802 eV
Force related energy:             -193.2749948196 H        -5259.2802 eV

Volume:                              0.112238E+05 au^3   0.166320E+04 A^3
Pressure:                           -0.634735E-07 au    -0.186746E+07 Pa
>> Charges saved for restart in charges.bin

total energy  -1.9327499E+02 H       energy change -2.0628477E-06 H
gradient norm  6.9149534E-04 H/a0    max. gradient  1.3068777E-04 H/a0
step length    1.5912883E-02 a0      max. step      3.8577480E-03 a0

--------------------------------------------------------------------------------

***  Geometry step: 169

 iSCC Total electronic   Diff electronic      SCC error    
    1   -0.19518116E+03    0.00000000E+00    0.11794533E-03
    2   -0.19518122E+03   -0.55387349E-04    0.67843914E-04
    3   -0.19518122E+03   -0.92705648E-08    0.15812613E-04
    4   -0.19518122E+03   -0.16206059E-08    0.27354147E-05
    5   -0.19518122E+03   -0.73299589E-10    0.10476108E-05
    6   -0.19518122E+03   -0.28990144E-11    0.26018437E-06
    7   -0.19518122E+03   -0.85265128E-13    0.18470254E-07
    8   -0.19518122E+03    0.56843419E-13    0.26347409E-08

Total Energy:                     -193.2749953355 H        -5259.2802 eV
Extrapolated to 0K:               -193.2749953355 H        -5259.2802 eV
Total Mermin free energy:         -193.2749953355 H        -5259.2802 eV
Force related energy:             -193.2749953355 H        -5259.2802 eV

Volume:                              0.112237E+05 au^3   0.166318E+04 A^3
Pressure:                           -0.188524E-07 au    -0.554658E+06 Pa
>> Charges saved for restart in charges.bin

total energy  -1.9327500E+02 H       energy change -5.1594128E-07 H
gradient norm  5.4958218E-04 H/a0    max. gradient  1.1254771E-04 H/a0
step length    1.9455069E-03 a0      max. step      4.4271957E-04 a0

--------------------------------------------------------------------------------

***  Geometry step: 170

 iSCC Total electronic   Diff electronic      SCC error    
    1   -0.19518122E+03    0.00000000E+00    0.13567001E-03
    2   -0.19518127E+03   -0.51492930E-04    0.80461670E-04
    3   -0.19518127E+03   -0.18196744E-07    0.24652774E-04
    4   -0.19518127E+03   -0.26616078E-08    0.38583930E-05
    5   -0.19518127E+03   -0.93848485E-10    0.12208046E-05
    6   -0.19518127E+03   -0.65938366E-11    0.35416734E-06
    7   -0.19518127E+03   -0.11368684E-12    0.29611270E-07
    8   -0.19518127E+03   -0.56843419E-13    0.27620728E-08

Total Energy:                     -193.2749959254 H        -5259.2802 eV
Extrapolated to 0K:               -193.2749959254 H        -5259.2802 eV
Total Mermin free energy:         -193.2749959254 H        -5259.2802 eV
Force related energy:             -193.2749959254 H        -5259.2802 eV

Volume:                              0.112236E+05 au^3   0.166316E+04 A^3
Pressure:                            0.807937E-08 au     0.237703E+06 Pa
>> Charges saved for restart in charges.bin

total energy  -1.9327500E+02 H       energy change -5.8989039E-07 H
gradient norm  5.5810821E-04 H/a0    max. gradient  1.2573417E-04 H/a0
step length    2.9041015E-03 a0      max. step      5.7934758E-04 a0

--------------------------------------------------------------------------------

***  Geometry step: 171

 iSCC Total electronic   Diff electronic      SCC error    
    1   -0.19518127E+03    0.00000000E+00    0.14163371E-03
    2   -0.19518136E+03   -0.88155550E-04    0.51241108E-04
    3   -0.19518136E+03   -0.15836747E-07    0.18356818E-04
    4   -0.19518136E+03   -0.21246649E-08    0.31477687E-05
    5   -0.19518136E+03   -0.44451554E-10    0.48117023E-06
    6   -0.19518136E+03   -0.35242920E-11    0.18134919E-06
    7   -0.19518136E+03   -0.11368684E-12    0.33811410E-07
    8   -0.19518136E+03    0.00000000E+00    0.32940566E-08

Total Energy:                     -193.2749965380 H        -5259.2802 eV
Extrapolated to 0K:               -193.2749965380 H        -5259.2802 eV
Total Mermin free energy:         -193.2749965380 H        -5259.2802 eV
Force related energy:             -193.2749965380 H        -5259.2802 eV

Volume:                              0.112235E+05 au^3   0.166315E+04 A^3
Pressure:                            0.439848E-07 au     0.129408E+07 Pa
>> Charges saved for restart in charges.bin

total energy  -1.9327500E+02 H       energy change -6.1261528E-07 H
gradient norm  6.5713966E-04 H/a0    max. gradient  1.3626818E-04 H/a0
step length    2.8424010E-03 a0      max. step      6.5917339E-04 a0

--------------------------------------------------------------------------------

***  Geometry step: 172

 iSCC Total electronic   Diff electronic      SCC error    
    1   -0.19518136E+03    0.00000000E+00    0.18038731E-03
    2   -0.19518144E+03   -0.83816066E-04    0.79908061E-04
    3   -0.19518144E+03   -0.42971038E-07    0.30295302E-04
    4   -0.19518144E+03   -0.53485394E-08    0.61515270E-05
    5   -0.19518144E+03   -0.11362999E-09    0.63431422E-06
    6   -0.19518144E+03   -0.95212727E-11    0.23225167E-06
    7   -0.19518144E+03   -0.22737368E-12    0.43240949E-07
    8   -0.19518144E+03    0.00000000E+00    0.46061084E-08

Total Energy:                     -193.2749976575 H        -5259.2803 eV
Extrapolated to 0K:               -193.2749976575 H        -5259.2803 eV
Total Mermin free energy:         -193.2749976575 H        -5259.2803 eV
Force related energy:             -193.2749976575 H        -5259.2803 eV

Volume:                              0.112234E+05 au^3   0.166313E+04 A^3
Pressure:                            0.855115E-07 au     0.251584E+07 Pa
>> Charges saved for restart in charges.bin

total energy  -1.9327500E+02 H       energy change -1.1194461E-06 H
gradient norm  8.1860914E-04 H/a0    max. gradient  1.4457432E-04 H/a0
step length    6.2160472E-03 a0      max. step      1.5642744E-03 a0

--------------------------------------------------------------------------------

***  Geometry step: 173

 iSCC Total electronic   Diff electronic      SCC error    
    1   -0.19518144E+03    0.00000000E+00    0.26180948E-03
    2   -0.19518158E+03   -0.13798192E-03    0.10352933E-03
    3   -0.19518158E+03   -0.50854737E-07    0.36249897E-04
    4   -0.19518158E+03   -0.66882251E-08    0.38828926E-05
    5   -0.19518158E+03   -0.15319301E-09    0.96133458E-06
    6   -0.19518158E+03   -0.10658141E-10    0.35721682E-06
    7   -0.19518158E+03   -0.19895197E-12    0.59552514E-07
    8   -0.19518158E+03   -0.28421709E-13    0.81250393E-08

Total Energy:                     -193.2749991683 H        -5259.2803 eV
Extrapolated to 0K:               -193.2749991683 H        -5259.2803 eV
Total Mermin free energy:         -193.2749991683 H        -5259.2803 eV
Force related energy:             -193.2749991683 H        -5259.2803 eV

Volume:                              0.112235E+05 au^3   0.166315E+04 A^3
Pressure:                            0.128979E-06 au     0.379469E+07 Pa
>> Charges saved for restart in charges.bin

total energy  -1.9327500E+02 H       energy change -1.5108362E-06 H
gradient norm  9.2463814E-04 H/a0    max. gradient  1.9677584E-04 H/a0
step length    1.2467950E-02 a0      max. step      3.1097737E-03 a0

--------------------------------------------------------------------------------

***  Geometry step: 174

 iSCC Total electronic   Diff electronic      SCC error    
    1   -0.19518158E+03    0.00000000E+00    0.29683855E-03
    2   -0.19518167E+03   -0.87289161E-04    0.11443258E-03
    3   -0.19518167E+03   -0.65842073E-07    0.34708667E-04
    4   -0.19518167E+03   -0.87839567E-08    0.45530454E-05
    5   -0.19518167E+03   -0.27489477E-09    0.14839411E-05
    6   -0.19518167E+03   -0.14011903E-10    0.39537455E-06
    7   -0.19518167E+03   -0.22737368E-12    0.54945552E-07
    8   -0.19518167E+03   -0.56843419E-13    0.94147574E-08

Total Energy:                     -193.2750008094 H        -5259.2804 eV
Extrapolated to 0K:               -193.2750008094 H        -5259.2804 eV
Total Mermin free energy:         -193.2750008094 H        -5259.2804 eV
Force related energy:             -193.2750008094 H        -5259.2804 eV

Volume:                              0.112242E+05 au^3   0.166326E+04 A^3
Pressure:                            0.124029E-06 au     0.364906E+07 Pa
>> Charges saved for restart in charges.bin

total energy  -1.9327500E+02 H       energy change -1.6410683E-06 H
gradient norm  8.2833655E-04 H/a0    max. gradient  1.8339712E-04 H/a0
step length    1.9182036E-02 a0      max. step      4.2486864E-03 a0

--------------------------------------------------------------------------------

***  Geometry step: 175

 iSCC Total electronic   Diff electronic      SCC error    
    1   -0.19518167E+03    0.00000000E+00    0.14942188E-03
    2   -0.19518170E+03   -0.27726596E-04    0.81334614E-04
    3   -0.19518170E+03   -0.25637519E-07    0.23367701E-04
    4   -0.19518170E+03   -0.37800589E-08    0.37686580E-05
    5   -0.19518170E+03   -0.12565238E-09    0.11589837E-05
    6   -0.19518170E+03   -0.86401997E-11    0.36684079E-06
    7   -0.19518170E+03   -0.28421709E-12    0.39592481E-07
    8   -0.19518170E+03    0.11368684E-12    0.53586597E-08

Total Energy:                     -193.2750020144 H        -5259.2804 eV
Extrapolated to 0K:               -193.2750020144 H        -5259.2804 eV
Total Mermin free energy:         -193.2750020144 H        -5259.2804 eV
Force related energy:             -193.2750020144 H        -5259.2804 eV

Volume:                              0.112255E+05 au^3   0.166345E+04 A^3
Pressure:                            0.733631E-07 au     0.215842E+07 Pa
>> Charges saved for restart in charges.bin

total energy  -1.9327500E+02 H       energy change -1.2050047E-06 H
gradient norm  6.4118045E-04 H/a0    max. gradient  1.3705430E-04 H/a0
step length    1.9415548E-02 a0      max. step      4.0321831E-03 a0

--------------------------------------------------------------------------------

***  Geometry step: 176

 iSCC Total electronic   Diff electronic      SCC error    
    1   -0.19518170E+03    0.00000000E+00    0.14249286E-03
    2   -0.19518150E+03    0.19836210E-03    0.80165829E-04
    3   -0.19518150E+03   -0.10693952E-07    0.18977129E-04
    4   -0.19518150E+03   -0.19173285E-08    0.24109093E-05
    5   -0.19518150E+03   -0.56047611E-10    0.78200490E-06
    6   -0.19518150E+03   -0.29558578E-11    0.20841918E-06
    7   -0.19518150E+03   -0.14210855E-12    0.24322010E-07
    8   -0.19518150E+03    0.00000000E+00    0.34782537E-08

Total Energy:                     -193.2750025408 H        -5259.2804 eV
Extrapolated to 0K:               -193.2750025408 H        -5259.2804 eV
Total Mermin free energy:         -193.2750025408 H        -5259.2804 eV
Force related energy:             -193.2750025408 H        -5259.2804 eV

Volume:                              0.112258E+05 au^3   0.166349E+04 A^3
Pressure:                           -0.640621E-08 au    -0.188477E+06 Pa
>> Charges saved for restart in charges.bin

total energy  -1.9327500E+02 H       energy change -5.2642221E-07 H
gradient norm  4.5528081E-04 H/a0    max. gradient  9.3918570E-05 H/a0
step length    2.0166947E-03 a0      max. step      3.6633029E-04 a0

Geometry converged

--------------------------------------------------------------------------------
DFTB+ running times                          cpu [s]             wall clock [s]
--------------------------------------------------------------------------------
Pre-SCC initialisation                 +      11.91 (  0.6%)       2.48 (  1.0%)
SCC                                    +    1706.03 ( 89.7%)     216.13 ( 90.3%)
Post-SCC processing                    +     184.08 (  9.7%)      20.78 (  8.7%)
--------------------------------------------------------------------------------
Missing                                +       0.01 (  0.0%)       0.01 (  0.0%)
Total                                  =    1902.04 (100.0%)     239.40 (100.0%)
--------------------------------------------------------------------------------
