|===============================================================================
|
|  DFTB+ release 24.1
|
|  Copyright (C) 2006 - 2024  DFTB+ developers group
|
|===============================================================================
|
|  When publishing results obtained with DFTB+, please cite the following
|  reference:
|
|  * DFTB+, a software package for efficient approximate density functional
|    theory based atomistic simulations, J. Chem. Phys. 152, 124101 (2020).
|    [doi: 10.1063/1.5143190]
|
|  You should also cite additional publications crediting the parametrization
|  data you use. Please consult the documentation of the SK-files for the
|  references.
|
|===============================================================================

Reading input file 'dftb_in.hsd'
Parser version: 14

--------------------------------------------------------------------------------
Reading SK-files:
./SKFiles/Si-Si.skf
./SKFiles/Si-Ge.skf
./SKFiles/Si-O.skf
./SKFiles/Ge-Ge.skf
./SKFiles/Ge-O.skf
./SKFiles/O-O.skf
Done.


Processed input in HSD format written to 'dftb_pin.hsd'

Starting initialization...
--------------------------------------------------------------------------------
WARNING!
-> Dipole printed for extended system : value printed is not well defined
MPI processes:               1
OpenMP threads:              8
BLACS orbital grid size:     1 x 1
BLACS atom grid size:        1 x 1
Chosen random seed:          151595068
Current stacksize:           unlimited
Mode:                        Static calculation
Self consistent charges:     Yes
SCC-tolerance:                 0.100000E-07
Max. scc iterations:                    500
Shell resolved Hubbard:      No
Spin polarisation:           No
Nr. of up electrons:           192.000000
Nr. of down electrons:         192.000000
Periodic boundaries:         Yes
Electronic solver:           Relatively robust
Mixer:                       Broyden mixer
Mixing parameter:                  0.200000
Maximal SCC-cycles:                     500
Nr. of chrg. vec. in memory:            500
Electronic temperature:              0.100000E-07 H      0.272114E-06 eV
Initial charges:             Set automatically (system chrg:   0.000E+00)
Included shells:            Si:  s, p, d
                            Ge:  s, p, d
                             O:  s, p
K-points and weights:           1:  0.500000  0.500000  0.500000     1.000000

K-points in absolute space:     1:  0.025319  0.017606  0.037774

Extra options:
                             Mulliken analysis
Force type                   original

--------------------------------------------------------------------------------

***  Geometry step: 0

 iSCC Total electronic   Diff electronic      SCC error    
    1    0.00000000E+00    0.00000000E+00    0.14260209E+01
    2   -0.19732406E+03   -0.19732406E+03    0.97877277E+00
    3   -0.19766699E+03   -0.34293225E+00    0.38846098E-01
    4   -0.19795565E+03   -0.28865614E+00    0.32517307E-01
    5   -0.19795729E+03   -0.16365263E-02    0.52523057E-02
    6   -0.19795740E+03   -0.11335696E-03    0.14591068E-02
    7   -0.19795740E+03   -0.35754705E-05    0.32962488E-03
    8   -0.19795740E+03   -0.62419110E-06    0.58066556E-04
    9   -0.19795740E+03   -0.41828883E-07    0.20198854E-04
   10   -0.19795740E+03   -0.26946623E-09    0.44621049E-05
   11   -0.19795740E+03   -0.99731778E-10    0.45271293E-06
   12   -0.19795740E+03   -0.53717031E-11    0.12939145E-06
   13   -0.19795740E+03    0.00000000E+00    0.21515056E-07
   14   -0.19795740E+03    0.56843419E-13    0.49002398E-08

Total Energy:                     -190.4252656650 H        -5181.7351 eV
Extrapolated to 0K:               -190.4252656650 H        -5181.7351 eV
Total Mermin free energy:         -190.4252656650 H        -5181.7351 eV
Force related energy:             -190.4252656650 H        -5181.7351 eV

Volume:                              0.913789E+04 au^3   0.135410E+04 A^3
Pressure:                            0.249386E-02 au     0.733717E+11 Pa
>> Charges saved for restart in charges.bin

total energy  -1.9042527E+02 H       energy change -1.9042527E+02 H
gradient norm  2.2513703E+00 H/a0    max. gradient  1.3962340E+00 H/a0
step length    0.0000000E+00 a0      max. step      0.0000000E+00 a0

--------------------------------------------------------------------------------

***  Geometry step: 1

 iSCC Total electronic   Diff electronic      SCC error    
    1   -0.19795740E+03    0.00000000E+00    0.13615374E+00
    2   -0.19728277E+03    0.67463343E+00    0.67921280E-01
    3   -0.19729997E+03   -0.17195712E-01    0.23479250E-01
    4   -0.19730312E+03   -0.31529354E-02    0.21879492E-02
    5   -0.19730320E+03   -0.80343092E-04    0.77317145E-03
    6   -0.19730320E+03   -0.45405066E-05    0.27027347E-03
    7   -0.19730320E+03   -0.17235874E-06    0.47625522E-04
    8   -0.19730320E+03   -0.18939630E-07    0.85403495E-05
    9   -0.19730320E+03   -0.11293650E-08    0.32276912E-05
   10   -0.19730320E+03   -0.23760549E-10    0.79400836E-06
   11   -0.19730320E+03   -0.10516032E-11    0.99540343E-07
   12   -0.19730320E+03   -0.19895197E-12    0.28543987E-07
   13   -0.19730320E+03    0.00000000E+00    0.38134296E-08

Total Energy:                     -191.1155198432 H        -5200.5179 eV
Extrapolated to 0K:               -191.1155198432 H        -5200.5179 eV
Total Mermin free energy:         -191.1155198432 H        -5200.5179 eV
Force related energy:             -191.1155198432 H        -5200.5179 eV

Volume:                              0.969280E+04 au^3   0.143633E+04 A^3
Pressure:                            0.179354E-02 au     0.527678E+11 Pa
>> Charges saved for restart in charges.bin

total energy  -1.9111552E+02 H       energy change -6.9025418E-01 H
gradient norm  1.4467027E+00 H/a0    max. gradient  2.6849931E-01 H/a0
step length    8.0227753E-01 a0      max. step      4.9754903E-01 a0

--------------------------------------------------------------------------------

***  Geometry step: 2

 iSCC Total electronic   Diff electronic      SCC error    
    1   -0.19730320E+03    0.00000000E+00    0.47521389E-01
    2   -0.19694904E+03    0.35416080E+00    0.25119154E-01
    3   -0.19695278E+03   -0.37372956E-02    0.64571883E-02
    4   -0.19695351E+03   -0.72763771E-03    0.11411877E-02
    5   -0.19695353E+03   -0.18850387E-04    0.24390665E-03
    6   -0.19695353E+03   -0.13364699E-05    0.11429756E-03
    7   -0.19695353E+03   -0.25933531E-07    0.18960243E-04
    8   -0.19695353E+03   -0.26852547E-08    0.21713121E-05
    9   -0.19695353E+03   -0.24562041E-09    0.89251721E-06
   10   -0.19695353E+03   -0.25295321E-11    0.25055339E-06
   11   -0.19695353E+03   -0.14210855E-12    0.55129501E-07
   12   -0.19695353E+03   -0.56843419E-13    0.14486255E-07
   13   -0.19695353E+03    0.28421709E-13    0.16554238E-08

Total Energy:                     -191.8953652783 H        -5221.7386 eV
Extrapolated to 0K:               -191.8953652783 H        -5221.7386 eV
Total Mermin free energy:         -191.8953652783 H        -5221.7386 eV
Force related energy:             -191.8953652783 H        -5221.7386 eV

Volume:                              0.984306E+04 au^3   0.145859E+04 A^3
Pressure:                            0.133078E-02 au     0.391528E+11 Pa
>> Charges saved for restart in charges.bin

total energy  -1.9189537E+02 H       energy change -7.7984544E-01 H
gradient norm  9.4404212E-01 H/a0    max. gradient  1.9388046E-01 H/a0
step length    7.4166392E-01 a0      max. step      1.3701547E-01 a0

--------------------------------------------------------------------------------

***  Geometry step: 3

 iSCC Total electronic   Diff electronic      SCC error    
    1   -0.19695353E+03    0.00000000E+00    0.73210751E-01
    2   -0.19657492E+03    0.37861365E+00    0.29048905E-01
    3   -0.19657941E+03   -0.44952482E-02    0.10711376E-01
    4   -0.19658015E+03   -0.73510381E-03    0.10326634E-02
    5   -0.19658018E+03   -0.35095503E-04    0.25190269E-03
    6   -0.19658018E+03   -0.16329667E-05    0.12518459E-03
    7   -0.19658018E+03   -0.31632226E-07    0.16084415E-04
    8   -0.19658018E+03   -0.32332252E-08    0.36549481E-05
    9   -0.19658018E+03   -0.35879566E-09    0.12315513E-05
   10   -0.19658018E+03   -0.81286089E-11    0.38943548E-06
   11   -0.19658018E+03   -0.56843419E-13    0.87251943E-07
   12   -0.19658018E+03   -0.11368684E-12    0.16265985E-07
   13   -0.19658018E+03    0.28421709E-13    0.23622135E-08

Total Energy:                     -192.4563369410 H        -5237.0034 eV
Extrapolated to 0K:               -192.4563369410 H        -5237.0034 eV
Total Mermin free energy:         -192.4563369410 H        -5237.0034 eV
Force related energy:             -192.4563369410 H        -5237.0034 eV

Volume:                              0.996396E+04 au^3   0.147651E+04 A^3
Pressure:                            0.955975E-03 au     0.281257E+11 Pa
>> Charges saved for restart in charges.bin

total energy  -1.9245634E+02 H       energy change -5.6097166E-01 H
gradient norm  6.0001698E-01 H/a0    max. gradient  1.0385399E-01 H/a0
step length    7.9022519E-01 a0      max. step      1.7240573E-01 a0

--------------------------------------------------------------------------------

***  Geometry step: 4

 iSCC Total electronic   Diff electronic      SCC error    
    1   -0.19658018E+03    0.00000000E+00    0.57875317E-01
    2   -0.19618592E+03    0.39426174E+00    0.34848957E-01
    3   -0.19618860E+03   -0.26759531E-02    0.61645472E-02
    4   -0.19618922E+03   -0.62583567E-03    0.11307986E-02
    5   -0.19618926E+03   -0.38440335E-04    0.30515292E-03
    6   -0.19618926E+03   -0.15030784E-05    0.89860117E-04
    7   -0.19618926E+03   -0.24660807E-07    0.17621234E-04
    8   -0.19618926E+03   -0.20950495E-08    0.48911157E-05
    9   -0.19618926E+03   -0.25087843E-09    0.15834530E-05
   10   -0.19618926E+03   -0.50022209E-11    0.34928598E-06
   11   -0.19618926E+03   -0.25579538E-12    0.85783946E-07
   12   -0.19618926E+03   -0.28421709E-13    0.22587979E-07
   13   -0.19618926E+03    0.56843419E-13    0.25184961E-08

Total Energy:                     -192.7882197691 H        -5246.0344 eV
Extrapolated to 0K:               -192.7882197691 H        -5246.0344 eV
Total Mermin free energy:         -192.7882197691 H        -5246.0344 eV
Force related energy:             -192.7882197691 H        -5246.0344 eV

Volume:                              0.100867E+05 au^3   0.149470E+04 A^3
Pressure:                            0.666983E-03 au     0.196233E+11 Pa
>> Charges saved for restart in charges.bin

total energy  -1.9278822E+02 H       energy change -3.3188283E-01 H
gradient norm  4.5861511E-01 H/a0    max. gradient  2.3036664E-01 H/a0
step length    7.5548021E-01 a0      max. step      1.3134581E-01 a0

--------------------------------------------------------------------------------

***  Geometry step: 5

 iSCC Total electronic   Diff electronic      SCC error    
    1   -0.19618926E+03    0.00000000E+00    0.66463477E-01
    2   -0.19573960E+03    0.44966505E+00    0.40366583E-01
    3   -0.19574134E+03   -0.17391266E-02    0.75068917E-02
    4   -0.19574181E+03   -0.47393733E-03    0.13540758E-02
    5   -0.19574184E+03   -0.27353235E-04    0.31582443E-03
    6   -0.19574184E+03   -0.77901655E-06    0.96120342E-04
    7   -0.19574184E+03   -0.16423257E-07    0.28325246E-04
    8   -0.19574184E+03   -0.14184991E-08    0.53438155E-05
    9   -0.19574184E+03   -0.16055424E-09    0.13854486E-05
   10   -0.19574184E+03   -0.67643668E-11    0.22017480E-06
   11   -0.19574184E+03   -0.31263880E-12    0.31994195E-07
   12   -0.19574184E+03   -0.56843419E-13    0.90971772E-08

Total Energy:                     -192.9849807634 H        -5251.3885 eV
Extrapolated to 0K:               -192.9849807634 H        -5251.3885 eV
Total Mermin free energy:         -192.9849807634 H        -5251.3885 eV
Force related energy:             -192.9849807634 H        -5251.3885 eV

Volume:                              0.102876E+05 au^3   0.152447E+04 A^3
Pressure:                            0.402232E-03 au     0.118341E+11 Pa
>> Charges saved for restart in charges.bin

total energy  -1.9298498E+02 H       energy change -1.9676099E-01 H
gradient norm  3.1296594E-01 H/a0    max. gradient  1.5183337E-01 H/a0
step length    7.1006643E-01 a0      max. step      2.3368129E-01 a0

--------------------------------------------------------------------------------

***  Geometry step: 6

 iSCC Total electronic   Diff electronic      SCC error    
    1   -0.19574184E+03    0.00000000E+00    0.54898489E-01
    2   -0.19540924E+03    0.33259377E+00    0.30277165E-01
    3   -0.19541081E+03   -0.15642197E-02    0.38655815E-02
    4   -0.19541117E+03   -0.36553413E-03    0.69745431E-03
    5   -0.19541119E+03   -0.15571498E-04    0.23683914E-03
    6   -0.19541119E+03   -0.58364952E-06    0.10196669E-03
    7   -0.19541119E+03   -0.77365314E-08    0.22046982E-04
    8   -0.19541119E+03   -0.79097617E-09    0.49271892E-05
    9   -0.19541119E+03   -0.99845465E-10    0.14577531E-05
   10   -0.19541119E+03   -0.27569058E-11    0.11920331E-06
   11   -0.19541119E+03   -0.19895197E-12    0.27657500E-07
   12   -0.19541119E+03    0.00000000E+00    0.80467051E-08

Total Energy:                     -193.0771397254 H        -5253.8963 eV
Extrapolated to 0K:               -193.0771397254 H        -5253.8963 eV
Total Mermin free energy:         -193.0771397254 H        -5253.8963 eV
Force related energy:             -193.0771397254 H        -5253.8963 eV

Volume:                              0.104267E+05 au^3   0.154507E+04 A^3
Pressure:                            0.228822E-03 au     0.673216E+10 Pa
>> Charges saved for restart in charges.bin

total energy  -1.9307714E+02 H       energy change -9.2158962E-02 H
gradient norm  1.8466404E-01 H/a0    max. gradient  9.0589710E-02 H/a0
step length    5.8921353E-01 a0      max. step      1.1125520E-01 a0

--------------------------------------------------------------------------------

***  Geometry step: 7

 iSCC Total electronic   Diff electronic      SCC error    
    1   -0.19541119E+03    0.00000000E+00    0.39134558E-01
    2   -0.19520808E+03    0.20311317E+00    0.19302583E-01
    3   -0.19520894E+03   -0.86484958E-03    0.32418236E-02
    4   -0.19520911E+03   -0.16519431E-03    0.52267953E-03
    5   -0.19520911E+03   -0.59141975E-05    0.19514216E-03
    6   -0.19520911E+03   -0.30973979E-06    0.64733051E-04
    7   -0.19520911E+03   -0.72201090E-08    0.17207848E-04
    8   -0.19520911E+03   -0.37499603E-09    0.44030110E-05
    9   -0.19520911E+03   -0.42263082E-10    0.12379223E-05
   10   -0.19520911E+03   -0.32400749E-11    0.15409466E-06
   11   -0.19520911E+03   -0.85265128E-13    0.16298607E-07
   12   -0.19520911E+03   -0.56843419E-13    0.48925024E-08

Total Energy:                     -193.1123191442 H        -5254.8536 eV
Extrapolated to 0K:               -193.1123191442 H        -5254.8536 eV
Total Mermin free energy:         -193.1123191442 H        -5254.8536 eV
Force related energy:             -193.1123191442 H        -5254.8536 eV

Volume:                              0.105170E+05 au^3   0.155847E+04 A^3
Pressure:                            0.137045E-03 au     0.403200E+10 Pa
>> Charges saved for restart in charges.bin

total energy  -1.9311232E+02 H       energy change -3.5179419E-02 H
gradient norm  1.4857394E-01 H/a0    max. gradient  7.3629534E-02 H/a0
step length    4.4329290E-01 a0      max. step      8.2454741E-02 a0

--------------------------------------------------------------------------------

***  Geometry step: 8

 iSCC Total electronic   Diff electronic      SCC error    
    1   -0.19520911E+03    0.00000000E+00    0.19886353E-01
    2   -0.19509625E+03    0.11286416E+00    0.92945904E-02
    3   -0.19509658E+03   -0.33291709E-03    0.19463696E-02
    4   -0.19509664E+03   -0.59970024E-04    0.39566386E-03
    5   -0.19509664E+03   -0.17554488E-05    0.10409166E-03
    6   -0.19509664E+03   -0.88342119E-07    0.28773063E-04
    7   -0.19509664E+03   -0.53965721E-08    0.88822054E-05
    8   -0.19509664E+03   -0.21731239E-09    0.27397273E-05
    9   -0.19509664E+03   -0.11965540E-10    0.74619332E-06
   10   -0.19509664E+03   -0.12505552E-11    0.99051211E-07
   11   -0.19509664E+03   -0.85265128E-13    0.15905457E-07
   12   -0.19509664E+03    0.00000000E+00    0.36034749E-08

Total Energy:                     -193.1333475172 H        -5255.4258 eV
Extrapolated to 0K:               -193.1333475172 H        -5255.4258 eV
Total Mermin free energy:         -193.1333475172 H        -5255.4258 eV
Force related energy:             -193.1333475172 H        -5255.4258 eV

Volume:                              0.105804E+05 au^3   0.156786E+04 A^3
Pressure:                            0.787164E-04 au     0.231592E+10 Pa
>> Charges saved for restart in charges.bin

total energy  -1.9313335E+02 H       energy change -2.1028373E-02 H
gradient norm  1.1724621E-01 H/a0    max. gradient  3.7057031E-02 H/a0
step length    3.5572287E-01 a0      max. step      7.6815508E-02 a0

--------------------------------------------------------------------------------

***  Geometry step: 9

 iSCC Total electronic   Diff electronic      SCC error    
    1   -0.19509664E+03    0.00000000E+00    0.20954271E-01
    2   -0.19508713E+03    0.95142776E-02    0.12433384E-01
    3   -0.19508749E+03   -0.35499201E-03    0.38341886E-02
    4   -0.19508754E+03   -0.54145592E-04    0.42289469E-03
    5   -0.19508754E+03   -0.19615528E-05    0.72705854E-04
    6   -0.19508754E+03   -0.23819280E-06    0.29292126E-04
    7   -0.19508754E+03   -0.35182381E-08    0.82751234E-05
    8   -0.19508754E+03   -0.12246915E-09    0.20294296E-05
    9   -0.19508754E+03   -0.96918029E-11    0.37993892E-06
   10   -0.19508754E+03   -0.88107299E-12    0.89689599E-07
   11   -0.19508754E+03   -0.14210855E-12    0.12487773E-07
   12   -0.19508754E+03    0.28421709E-13    0.23033468E-08

Total Energy:                     -193.1516459962 H        -5255.9237 eV
Extrapolated to 0K:               -193.1516459962 H        -5255.9237 eV
Total Mermin free energy:         -193.1516459962 H        -5255.9237 eV
Force related energy:             -193.1516459962 H        -5255.9237 eV

Volume:                              0.105993E+05 au^3   0.157065E+04 A^3
Pressure:                            0.625020E-04 au     0.183887E+10 Pa
>> Charges saved for restart in charges.bin

total energy  -1.9315165E+02 H       energy change -1.8298479E-02 H
gradient norm  1.0372778E-01 H/a0    max. gradient  2.6888881E-02 H/a0
step length    3.2684751E-01 a0      max. step      5.8465179E-02 a0

--------------------------------------------------------------------------------

***  Geometry step: 10

 iSCC Total electronic   Diff electronic      SCC error    
    1   -0.19508754E+03    0.00000000E+00    0.30145976E-01
    2   -0.19512973E+03   -0.42185601E-01    0.17418296E-01
    3   -0.19513032E+03   -0.59630379E-03    0.28308761E-02
    4   -0.19513045E+03   -0.12461659E-03    0.48143388E-03
    5   -0.19513045E+03   -0.68593679E-05    0.19713249E-03
    6   -0.19513045E+03   -0.16892881E-06    0.63006057E-04
    7   -0.19513045E+03   -0.46125876E-08    0.11430695E-04
    8   -0.19513045E+03   -0.25838176E-09    0.30397266E-05
    9   -0.19513045E+03   -0.25067948E-10    0.66743418E-06
   10   -0.19513045E+03   -0.18189894E-11    0.12258368E-06
   11   -0.19513045E+03   -0.56843419E-13    0.12321435E-07
   12   -0.19513045E+03    0.00000000E+00    0.35505052E-08

Total Energy:                     -193.1732011278 H        -5256.5103 eV
Extrapolated to 0K:               -193.1732011278 H        -5256.5103 eV
Total Mermin free energy:         -193.1732011278 H        -5256.5103 eV
Force related energy:             -193.1732011278 H        -5256.5103 eV

Volume:                              0.106166E+05 au^3   0.157322E+04 A^3
Pressure:                            0.678852E-04 au     0.199725E+10 Pa
>> Charges saved for restart in charges.bin

total energy  -1.9317320E+02 H       energy change -2.1555132E-02 H
gradient norm  1.0073658E-01 H/a0    max. gradient  3.6995144E-02 H/a0
step length    4.4529921E-01 a0      max. step      6.9253257E-02 a0

--------------------------------------------------------------------------------

***  Geometry step: 11

 iSCC Total electronic   Diff electronic      SCC error    
    1   -0.19513045E+03    0.00000000E+00    0.26948111E-01
    2   -0.19517863E+03   -0.48175357E-01    0.15529463E-01
    3   -0.19517911E+03   -0.47632137E-03    0.27111216E-02
    4   -0.19517922E+03   -0.11186151E-03    0.48133226E-03
    5   -0.19517922E+03   -0.52700509E-05    0.18647994E-03
    6   -0.19517922E+03   -0.22284073E-06    0.60957494E-04
    7   -0.19517922E+03   -0.62383094E-08    0.13925575E-04
    8   -0.19517922E+03   -0.21503865E-09    0.28956522E-05
    9   -0.19517922E+03   -0.24868996E-10    0.51928780E-06
   10   -0.19517922E+03   -0.25295321E-11    0.10275215E-06
   11   -0.19517922E+03    0.00000000E+00    0.13055413E-07
   12   -0.19517922E+03    0.56843419E-13    0.28915563E-08

Total Energy:                     -193.1877193813 H        -5256.9053 eV
Extrapolated to 0K:               -193.1877193813 H        -5256.9053 eV
Total Mermin free energy:         -193.1877193813 H        -5256.9053 eV
Force related energy:             -193.1877193813 H        -5256.9053 eV

Volume:                              0.106311E+05 au^3   0.157537E+04 A^3
Pressure:                            0.758686E-04 au     0.223213E+10 Pa
>> Charges saved for restart in charges.bin

total energy  -1.9318772E+02 H       energy change -1.4518254E-02 H
gradient norm  8.7656803E-02 H/a0    max. gradient  2.2253464E-02 H/a0
step length    3.7428070E-01 a0      max. step      5.4382548E-02 a0

--------------------------------------------------------------------------------

***  Geometry step: 12

 iSCC Total electronic   Diff electronic      SCC error    
    1   -0.19517922E+03    0.00000000E+00    0.24653951E-01
    2   -0.19520888E+03   -0.29660740E-01    0.14752479E-01
    3   -0.19520909E+03   -0.20963286E-03    0.13925732E-02
    4   -0.19520915E+03   -0.60071681E-04    0.41603034E-03
    5   -0.19520916E+03   -0.28080840E-05    0.17580814E-03
    6   -0.19520916E+03   -0.41614157E-07    0.48251916E-04
    7   -0.19520916E+03   -0.17431319E-08    0.86899942E-05
    8   -0.19520916E+03   -0.11652901E-09    0.13468167E-05
    9   -0.19520916E+03   -0.11880275E-10    0.23485782E-06
   10   -0.19520916E+03   -0.45474735E-12    0.45922969E-07
   11   -0.19520916E+03   -0.85265128E-13    0.67385004E-08

Total Energy:                     -193.1994206970 H        -5257.2237 eV
Extrapolated to 0K:               -193.1994206970 H        -5257.2237 eV
Total Mermin free energy:         -193.1994206970 H        -5257.2237 eV
Force related energy:             -193.1994206970 H        -5257.2237 eV

Volume:                              0.106560E+05 au^3   0.157905E+04 A^3
Pressure:                            0.777976E-04 au     0.228888E+10 Pa
>> Charges saved for restart in charges.bin

total energy  -1.9319942E+02 H       energy change -1.1701316E-02 H
gradient norm  7.4157202E-02 H/a0    max. gradient  1.7936864E-02 H/a0
step length    3.4276637E-01 a0      max. step      5.1597604E-02 a0

--------------------------------------------------------------------------------

***  Geometry step: 13

 iSCC Total electronic   Diff electronic      SCC error    
    1   -0.19520916E+03    0.00000000E+00    0.23146094E-01
    2   -0.19521589E+03   -0.67311553E-02    0.13401395E-01
    3   -0.19521603E+03   -0.14083247E-03    0.17349207E-02
    4   -0.19521607E+03   -0.44254929E-04    0.27783685E-03
    5   -0.19521608E+03   -0.18213337E-05    0.10916744E-03
    6   -0.19521608E+03   -0.29498977E-07    0.42147103E-04
    7   -0.19521608E+03   -0.46870241E-09    0.71017125E-05
    8   -0.19521608E+03   -0.69945827E-10    0.69882407E-06
    9   -0.19521608E+03   -0.76454398E-11    0.20546297E-06
   10   -0.19521608E+03   -0.31263880E-12    0.39008730E-07
   11   -0.19521608E+03   -0.28421709E-13    0.66142891E-08

Total Energy:                     -193.2091011118 H        -5257.4871 eV
Extrapolated to 0K:               -193.2091011118 H        -5257.4871 eV
Total Mermin free energy:         -193.2091011118 H        -5257.4871 eV
Force related energy:             -193.2091011118 H        -5257.4871 eV

Volume:                              0.106981E+05 au^3   0.158530E+04 A^3
Pressure:                            0.702959E-04 au     0.206818E+10 Pa
>> Charges saved for restart in charges.bin

total energy  -1.9320910E+02 H       energy change -9.6804148E-03 H
gradient norm  6.2817509E-02 H/a0    max. gradient  1.2253394E-02 H/a0
step length    3.2358307E-01 a0      max. step      5.7164716E-02 a0

--------------------------------------------------------------------------------

***  Geometry step: 14

 iSCC Total electronic   Diff electronic      SCC error    
    1   -0.19521608E+03    0.00000000E+00    0.15988895E-01
    2   -0.19520023E+03    0.15843824E-01    0.91320537E-02
    3   -0.19520032E+03   -0.87864260E-04    0.12057611E-02
    4   -0.19520034E+03   -0.24716094E-04    0.25243137E-03
    5   -0.19520035E+03   -0.10960246E-05    0.71508680E-04
    6   -0.19520035E+03   -0.36443453E-07    0.28368747E-04
    7   -0.19520035E+03   -0.72873263E-09    0.71645359E-05
    8   -0.19520035E+03   -0.29899638E-10    0.10913926E-05
    9   -0.19520035E+03   -0.36379788E-11    0.15085373E-06
   10   -0.19520035E+03   -0.31263880E-12    0.24808338E-07
   11   -0.19520035E+03    0.28421709E-13    0.34103014E-08

Total Energy:                     -193.2153525302 H        -5257.6572 eV
Extrapolated to 0K:               -193.2153525302 H        -5257.6572 eV
Total Mermin free energy:         -193.2153525302 H        -5257.6572 eV
Force related energy:             -193.2153525302 H        -5257.6572 eV

Volume:                              0.107474E+05 au^3   0.159260E+04 A^3
Pressure:                            0.585741E-04 au     0.172331E+10 Pa
>> Charges saved for restart in charges.bin

total energy  -1.9321535E+02 H       energy change -6.2514184E-03 H
gradient norm  5.4575233E-02 H/a0    max. gradient  1.2453059E-02 H/a0
step length    2.6587183E-01 a0      max. step      4.5213330E-02 a0

--------------------------------------------------------------------------------

***  Geometry step: 15

 iSCC Total electronic   Diff electronic      SCC error    
    1   -0.19520035E+03    0.00000000E+00    0.75692091E-02
    2   -0.19517135E+03    0.28993620E-01    0.44412471E-02
    3   -0.19517139E+03   -0.41704097E-04    0.69248851E-03
    4   -0.19517140E+03   -0.99165600E-05    0.16917968E-03
    5   -0.19517140E+03   -0.46230048E-06    0.26185127E-04
    6   -0.19517140E+03   -0.17836413E-07    0.11396346E-04
    7   -0.19517140E+03   -0.37556447E-09    0.39690354E-05
    8   -0.19517140E+03   -0.10032863E-10    0.94937377E-06
    9   -0.19517140E+03   -0.12789769E-11    0.19958245E-06
   10   -0.19517140E+03   -0.17053026E-12    0.33164187E-07
   11   -0.19517140E+03    0.56843419E-13    0.32644842E-08

Total Energy:                     -193.2196457235 H        -5257.7741 eV
Extrapolated to 0K:               -193.2196457235 H        -5257.7741 eV
Total Mermin free energy:         -193.2196457235 H        -5257.7741 eV
Force related energy:             -193.2196457235 H        -5257.7741 eV

Volume:                              0.107963E+05 au^3   0.159985E+04 A^3
Pressure:                            0.431311E-04 au     0.126896E+10 Pa
>> Charges saved for restart in charges.bin

total energy  -1.9321965E+02 H       energy change -4.2931932E-03 H
gradient norm  4.8418485E-02 H/a0    max. gradient  8.1152580E-03 H/a0
step length    2.1928002E-01 a0      max. step      4.2489999E-02 a0

--------------------------------------------------------------------------------

***  Geometry step: 16

 iSCC Total electronic   Diff electronic      SCC error    
    1   -0.19517140E+03    0.00000000E+00    0.10684457E-01
    2   -0.19514154E+03    0.29862996E-01    0.60638550E-02
    3   -0.19514157E+03   -0.31693425E-04    0.11617887E-02
    4   -0.19514158E+03   -0.61538101E-05    0.14173787E-03
    5   -0.19514158E+03   -0.27073264E-06    0.27907297E-04
    6   -0.19514158E+03   -0.19063378E-07    0.10688591E-04
    7   -0.19514158E+03   -0.41447379E-09    0.32359787E-05
    8   -0.19514158E+03   -0.92086339E-11    0.84809850E-06
    9   -0.19514158E+03   -0.11368684E-11    0.21897991E-06
   10   -0.19514158E+03   -0.56843419E-13    0.22647479E-07
   11   -0.19514158E+03    0.00000000E+00    0.41031911E-08

Total Energy:                     -193.2239317123 H        -5257.8907 eV
Extrapolated to 0K:               -193.2239317123 H        -5257.8907 eV
Total Mermin free energy:         -193.2239317123 H        -5257.8907 eV
Force related energy:             -193.2239317123 H        -5257.8907 eV

Volume:                              0.108469E+05 au^3   0.160735E+04 A^3
Pressure:                            0.263277E-04 au     0.774587E+09 Pa
>> Charges saved for restart in charges.bin

total energy  -1.9322393E+02 H       energy change -4.2859888E-03 H
gradient norm  5.0566293E-02 H/a0    max. gradient  9.3461018E-03 H/a0
step length    2.2992567E-01 a0      max. step      4.2361022E-02 a0

--------------------------------------------------------------------------------

***  Geometry step: 17

 iSCC Total electronic   Diff electronic      SCC error    
    1   -0.19514158E+03    0.00000000E+00    0.11506261E-01
    2   -0.19512883E+03    0.12753441E-01    0.65346889E-02
    3   -0.19512887E+03   -0.45382704E-04    0.13973104E-02
    4   -0.19512888E+03   -0.79602674E-05    0.14593027E-03
    5   -0.19512888E+03   -0.39961060E-06    0.63814288E-04
    6   -0.19512888E+03   -0.25525367E-07    0.20691433E-04
    7   -0.19512888E+03   -0.70124884E-09    0.46425060E-05
    8   -0.19512888E+03   -0.25039526E-10    0.11789728E-05
    9   -0.19512888E+03   -0.23590019E-11    0.18602313E-06
   10   -0.19512888E+03   -0.14210855E-12    0.30514733E-07
   11   -0.19512888E+03    0.00000000E+00    0.33678171E-08

Total Energy:                     -193.2289357173 H        -5258.0269 eV
Extrapolated to 0K:               -193.2289357173 H        -5258.0269 eV
Total Mermin free energy:         -193.2289357173 H        -5258.0269 eV
Force related energy:             -193.2289357173 H        -5258.0269 eV

Volume:                              0.108936E+05 au^3   0.161426E+04 A^3
Pressure:                            0.167822E-04 au     0.493751E+09 Pa
>> Charges saved for restart in charges.bin

total energy  -1.9322894E+02 H       energy change -5.0040050E-03 H
gradient norm  5.8058413E-02 H/a0    max. gradient  1.2397294E-02 H/a0
step length    2.6321946E-01 a0      max. step      4.6738678E-02 a0

--------------------------------------------------------------------------------

***  Geometry step: 18

 iSCC Total electronic   Diff electronic      SCC error    
    1   -0.19512888E+03    0.00000000E+00    0.15594217E-01
    2   -0.19513433E+03   -0.54548133E-02    0.89351562E-02
    3   -0.19513444E+03   -0.10540829E-03    0.25725153E-02
    4   -0.19513445E+03   -0.14787233E-04    0.27295787E-03
    5   -0.19513446E+03   -0.88522884E-06    0.10007509E-03
    6   -0.19513446E+03   -0.50250122E-07    0.32382531E-04
    7   -0.19513446E+03   -0.11505961E-08    0.65730021E-05
    8   -0.19513446E+03   -0.55621285E-10    0.18668025E-05
    9   -0.19513446E+03   -0.40074610E-11    0.28412853E-06
   10   -0.19513446E+03   -0.51159077E-12    0.44005108E-07
   11   -0.19513446E+03   -0.28421709E-13    0.45258344E-08

Total Energy:                     -193.2350472931 H        -5258.1932 eV
Extrapolated to 0K:               -193.2350472931 H        -5258.1932 eV
Total Mermin free energy:         -193.2350472931 H        -5258.1932 eV
Force related energy:             -193.2350472931 H        -5258.1932 eV

Volume:                              0.109407E+05 au^3   0.162124E+04 A^3
Pressure:                            0.144426E-04 au     0.424915E+09 Pa
>> Charges saved for restart in charges.bin

total energy  -1.9323505E+02 H       energy change -6.1115758E-03 H
gradient norm  6.0599536E-02 H/a0    max. gradient  1.4207394E-02 H/a0
step length    3.4347547E-01 a0      max. step      5.8402723E-02 a0

--------------------------------------------------------------------------------

***  Geometry step: 19

 iSCC Total electronic   Diff electronic      SCC error    
    1   -0.19513446E+03    0.00000000E+00    0.14706699E-01
    2   -0.19515220E+03   -0.17743906E-01    0.86638099E-02
    3   -0.19515236E+03   -0.15657930E-03    0.28403569E-02
    4   -0.19515238E+03   -0.19666065E-04    0.33641095E-03
    5   -0.19515238E+03   -0.94944838E-06    0.88093363E-04
    6   -0.19515238E+03   -0.59709805E-07    0.32637010E-04
    7   -0.19515238E+03   -0.14714487E-08    0.78101136E-05
    8   -0.19515238E+03   -0.54285465E-10    0.21768568E-05
    9   -0.19515238E+03   -0.36664005E-11    0.34263083E-06
   10   -0.19515238E+03   -0.59685590E-12    0.53601844E-07
   11   -0.19515238E+03   -0.85265128E-13    0.59132605E-08

Total Energy:                     -193.2404905049 H        -5258.3413 eV
Extrapolated to 0K:               -193.2404905049 H        -5258.3413 eV
Total Mermin free energy:         -193.2404905049 H        -5258.3413 eV
Force related energy:             -193.2404905049 H        -5258.3413 eV

Volume:                              0.109801E+05 au^3   0.162709E+04 A^3
Pressure:                            0.171417E-04 au     0.504325E+09 Pa
>> Charges saved for restart in charges.bin

total energy  -1.9324049E+02 H       energy change -5.4432117E-03 H
gradient norm  5.1482671E-02 H/a0    max. gradient  1.1445140E-02 H/a0
step length    3.5094765E-01 a0      max. step      6.3661877E-02 a0

--------------------------------------------------------------------------------

***  Geometry step: 20

 iSCC Total electronic   Diff electronic      SCC error    
    1   -0.19515238E+03    0.00000000E+00    0.11276105E-01
    2   -0.19517371E+03   -0.21330063E-01    0.53181217E-02
    3   -0.19517385E+03   -0.14249728E-03    0.18093465E-02
    4   -0.19517387E+03   -0.16372933E-04    0.20736575E-03
    5   -0.19517387E+03   -0.66838689E-06    0.68462066E-04
    6   -0.19517387E+03   -0.48298489E-07    0.26079107E-04
    7   -0.19517387E+03   -0.12254020E-08    0.63005078E-05
    8   -0.19517387E+03   -0.38880899E-10    0.16442596E-05
    9   -0.19517387E+03   -0.28137492E-11    0.31537484E-06
   10   -0.19517387E+03   -0.45474735E-12    0.36973530E-07
   11   -0.19517387E+03    0.11368684E-12    0.52795630E-08

Total Energy:                     -193.2448320050 H        -5258.4594 eV
Extrapolated to 0K:               -193.2448320050 H        -5258.4594 eV
Total Mermin free energy:         -193.2448320050 H        -5258.4594 eV
Force related energy:             -193.2448320050 H        -5258.4594 eV

Volume:                              0.110142E+05 au^3   0.163214E+04 A^3
Pressure:                            0.215438E-04 au     0.633839E+09 Pa
>> Charges saved for restart in charges.bin

total energy  -1.9324483E+02 H       energy change -4.3415001E-03 H
gradient norm  4.0696151E-02 H/a0    max. gradient  7.6541341E-03 H/a0
step length    3.2821283E-01 a0      max. step      5.9809917E-02 a0

--------------------------------------------------------------------------------

***  Geometry step: 21

 iSCC Total electronic   Diff electronic      SCC error    
    1   -0.19517387E+03    0.00000000E+00    0.12510215E-01
    2   -0.19518763E+03   -0.13766192E-01    0.70703715E-02
    3   -0.19518774E+03   -0.10402653E-03    0.20558683E-02
    4   -0.19518775E+03   -0.13034528E-04    0.19785554E-03
    5   -0.19518775E+03   -0.58647774E-06    0.45870604E-04
    6   -0.19518775E+03   -0.37159055E-07    0.17494262E-04
    7   -0.19518775E+03   -0.10266206E-08    0.43523554E-05
    8   -0.19518775E+03   -0.27256419E-10    0.10134911E-05
    9   -0.19518775E+03   -0.20463631E-11    0.18914483E-06
   10   -0.19518775E+03   -0.28421709E-12    0.33336125E-07
   11   -0.19518775E+03    0.00000000E+00    0.60900534E-08

Total Energy:                     -193.2481038339 H        -5258.5485 eV
Extrapolated to 0K:               -193.2481038339 H        -5258.5485 eV
Total Mermin free energy:         -193.2481038339 H        -5258.5485 eV
Force related energy:             -193.2481038339 H        -5258.5485 eV

Volume:                              0.110488E+05 au^3   0.163727E+04 A^3
Pressure:                            0.233946E-04 au     0.688292E+09 Pa
>> Charges saved for restart in charges.bin

total energy  -1.9324810E+02 H       energy change -3.2718290E-03 H
gradient norm  3.6010335E-02 H/a0    max. gradient  7.4500595E-03 H/a0
step length    2.9683120E-01 a0      max. step      5.4402261E-02 a0

--------------------------------------------------------------------------------

***  Geometry step: 22

 iSCC Total electronic   Diff electronic      SCC error    
    1   -0.19518775E+03    0.00000000E+00    0.11437004E-01
    2   -0.19518879E+03   -0.10402037E-02    0.64635892E-02
    3   -0.19518884E+03   -0.47070321E-04    0.14505735E-02
    4   -0.19518884E+03   -0.77014556E-05    0.14202308E-03
    5   -0.19518885E+03   -0.40831370E-06    0.36502155E-04
    6   -0.19518885E+03   -0.20538948E-07    0.14215036E-04
    7   -0.19518885E+03   -0.62223648E-09    0.38214689E-05
    8   -0.19518885E+03   -0.17706725E-10    0.97297251E-06
    9   -0.19518885E+03   -0.11652901E-11    0.14163613E-06
   10   -0.19518885E+03   -0.19895197E-12    0.24498550E-07
   11   -0.19518885E+03    0.56843419E-13    0.38691286E-08

Total Energy:                     -193.2502457884 H        -5258.6067 eV
Extrapolated to 0K:               -193.2502457884 H        -5258.6067 eV
Total Mermin free energy:         -193.2502457884 H        -5258.6067 eV
Force related energy:             -193.2502457884 H        -5258.6067 eV

Volume:                              0.110829E+05 au^3   0.164231E+04 A^3
Pressure:                            0.216709E-04 au     0.637578E+09 Pa
>> Charges saved for restart in charges.bin

total energy  -1.9325025E+02 H       energy change -2.1419544E-03 H
gradient norm  3.5397922E-02 H/a0    max. gradient  9.2231667E-03 H/a0
step length    2.2979035E-01 a0      max. step      4.4343788E-02 a0

--------------------------------------------------------------------------------

***  Geometry step: 23

 iSCC Total electronic   Diff electronic      SCC error    
    1   -0.19518885E+03    0.00000000E+00    0.75233571E-02
    2   -0.19518056E+03    0.82831137E-02    0.42139476E-02
    3   -0.19518058E+03   -0.22861243E-04    0.63893371E-03
    4   -0.19518059E+03   -0.47418108E-05    0.10752125E-03
    5   -0.19518059E+03   -0.22825614E-06    0.21306231E-04
    6   -0.19518059E+03   -0.88500371E-08    0.73659755E-05
    7   -0.19518059E+03   -0.26940938E-09    0.22858366E-05
    8   -0.19518059E+03   -0.63380412E-11    0.58977784E-06
    9   -0.19518059E+03   -0.59685590E-12    0.68297794E-07
   10   -0.19518059E+03   -0.28421709E-13    0.18599415E-07
   11   -0.19518059E+03   -0.56843419E-13    0.30650389E-08

Total Energy:                     -193.2516579397 H        -5258.6452 eV
Extrapolated to 0K:               -193.2516579397 H        -5258.6452 eV
Total Mermin free energy:         -193.2516579397 H        -5258.6452 eV
Force related energy:             -193.2516579397 H        -5258.6452 eV

Volume:                              0.111116E+05 au^3   0.164657E+04 A^3
Pressure:                            0.169397E-04 au     0.498383E+09 Pa
>> Charges saved for restart in charges.bin

total energy  -1.9325166E+02 H       energy change -1.4121513E-03 H
gradient norm  2.7773419E-02 H/a0    max. gradient  7.3875169E-03 H/a0
step length    1.4889892E-01 a0      max. step      2.8438750E-02 a0

--------------------------------------------------------------------------------

***  Geometry step: 24

 iSCC Total electronic   Diff electronic      SCC error    
    1   -0.19518059E+03    0.00000000E+00    0.51120132E-02
    2   -0.19517107E+03    0.95201098E-02    0.29864594E-02
    3   -0.19517110E+03   -0.27247098E-04    0.81664341E-03
    4   -0.19517110E+03   -0.43841364E-05    0.78292823E-04
    5   -0.19517110E+03   -0.15668866E-06    0.21473398E-04
    6   -0.19517110E+03   -0.71886461E-08    0.92100551E-05
    7   -0.19517110E+03   -0.13903900E-09    0.25308621E-05
    8   -0.19517110E+03   -0.67927886E-11    0.66038087E-06
    9   -0.19517110E+03   -0.51159077E-12    0.10314290E-06
   10   -0.19517110E+03   -0.85265128E-13    0.15554764E-07
   11   -0.19517110E+03   -0.28421709E-13    0.37759640E-08

Total Energy:                     -193.2526424404 H        -5258.6720 eV
Extrapolated to 0K:               -193.2526424404 H        -5258.6720 eV
Total Mermin free energy:         -193.2526424404 H        -5258.6720 eV
Force related energy:             -193.2526424404 H        -5258.6720 eV

Volume:                              0.111334E+05 au^3   0.164980E+04 A^3
Pressure:                            0.115650E-04 au     0.340255E+09 Pa
>> Charges saved for restart in charges.bin

total energy  -1.9325264E+02 H       energy change -9.8450068E-04 H
gradient norm  2.1688726E-02 H/a0    max. gradient  5.4718169E-03 H/a0
step length    9.7630184E-02 a0      max. step      2.4132032E-02 a0

--------------------------------------------------------------------------------

***  Geometry step: 25

 iSCC Total electronic   Diff electronic      SCC error    
    1   -0.19517110E+03    0.00000000E+00    0.42195715E-02
    2   -0.19516780E+03    0.33060331E-02    0.15164811E-02
    3   -0.19516781E+03   -0.15158153E-04    0.52793283E-03
    4   -0.19516781E+03   -0.18131496E-05    0.55145608E-04
    5   -0.19516781E+03   -0.53690115E-07    0.15800674E-04
    6   -0.19516781E+03   -0.27895055E-08    0.58483919E-05
    7   -0.19516781E+03   -0.51755933E-10    0.14884930E-05
    8   -0.19516781E+03   -0.21884716E-11    0.36985495E-06
    9   -0.19516781E+03   -0.17053026E-12    0.71409275E-07
   10   -0.19516781E+03   -0.28421709E-13    0.12610710E-07
   11   -0.19516781E+03    0.28421709E-13    0.18529374E-08

Total Energy:                     -193.2533502126 H        -5258.6912 eV
Extrapolated to 0K:               -193.2533502126 H        -5258.6912 eV
Total Mermin free energy:         -193.2533502126 H        -5258.6912 eV
Force related energy:             -193.2533502126 H        -5258.6912 eV

Volume:                              0.111476E+05 au^3   0.165191E+04 A^3
Pressure:                            0.882828E-05 au     0.259737E+09 Pa
>> Charges saved for restart in charges.bin

total energy  -1.9325335E+02 H       energy change -7.0777226E-04 H
gradient norm  2.3253400E-02 H/a0    max. gradient  5.5323606E-03 H/a0
step length    7.2388232E-02 a0      max. step      2.1541928E-02 a0

--------------------------------------------------------------------------------

***  Geometry step: 26

 iSCC Total electronic   Diff electronic      SCC error    
    1   -0.19516781E+03    0.00000000E+00    0.62235924E-02
    2   -0.19516890E+03   -0.10849428E-02    0.26947287E-02
    3   -0.19516893E+03   -0.32108233E-04    0.89279395E-03
    4   -0.19516893E+03   -0.38726279E-05    0.82894240E-04
    5   -0.19516893E+03   -0.12074179E-06    0.23407876E-04
    6   -0.19516893E+03   -0.54703264E-08    0.99486460E-05
    7   -0.19516893E+03   -0.70514261E-10    0.23682057E-05
    8   -0.19516893E+03   -0.43200998E-11    0.49583695E-06
    9   -0.19516893E+03   -0.48316906E-12    0.10275735E-06
   10   -0.19516893E+03   -0.14210855E-12    0.13707559E-07
   11   -0.19516893E+03    0.14210855E-12    0.17265283E-08

Total Energy:                     -193.2544147179 H        -5258.7202 eV
Extrapolated to 0K:               -193.2544147179 H        -5258.7202 eV
Total Mermin free energy:         -193.2544147179 H        -5258.7202 eV
Force related energy:             -193.2544147179 H        -5258.7202 eV

Volume:                              0.111696E+05 au^3   0.165516E+04 A^3
Pressure:                            0.749763E-05 au     0.220588E+09 Pa
>> Charges saved for restart in charges.bin

total energy  -1.9325441E+02 H       energy change -1.0645052E-03 H
gradient norm  2.4693747E-02 H/a0    max. gradient  5.7318992E-03 H/a0
step length    1.2133717E-01 a0      max. step      3.7131617E-02 a0

--------------------------------------------------------------------------------

***  Geometry step: 27

 iSCC Total electronic   Diff electronic      SCC error    
    1   -0.19516893E+03    0.00000000E+00    0.57935211E-02
    2   -0.19517279E+03   -0.38589492E-02    0.30112672E-02
    3   -0.19517282E+03   -0.30416637E-04    0.84981035E-03
    4   -0.19517283E+03   -0.44682833E-05    0.93685387E-04
    5   -0.19517283E+03   -0.20476756E-06    0.19328378E-04
    6   -0.19517283E+03   -0.60535115E-08    0.87747274E-05
    7   -0.19517283E+03   -0.81939788E-10    0.25502859E-05
    8   -0.19517283E+03   -0.45190518E-11    0.58854565E-06
    9   -0.19517283E+03   -0.59685590E-12    0.13333799E-06
   10   -0.19517283E+03   -0.11368684E-12    0.15855566E-07
   11   -0.19517283E+03    0.85265128E-13    0.25962388E-08

Total Energy:                     -193.2553864636 H        -5258.7466 eV
Extrapolated to 0K:               -193.2553864636 H        -5258.7466 eV
Total Mermin free energy:         -193.2553864636 H        -5258.7466 eV
Force related energy:             -193.2553864636 H        -5258.7466 eV

Volume:                              0.111986E+05 au^3   0.165946E+04 A^3
Pressure:                            0.739576E-05 au     0.217591E+09 Pa
>> Charges saved for restart in charges.bin

total energy  -1.9325539E+02 H       energy change -9.7174567E-04 H
gradient norm  2.2131010E-02 H/a0    max. gradient  5.5745795E-03 H/a0
step length    1.5319517E-01 a0      max. step      4.2216576E-02 a0

--------------------------------------------------------------------------------

***  Geometry step: 28

 iSCC Total electronic   Diff electronic      SCC error    
    1   -0.19517283E+03    0.00000000E+00    0.40994043E-02
    2   -0.19517670E+03   -0.38753541E-02    0.23714622E-02
    3   -0.19517672E+03   -0.15318075E-04    0.47819767E-03
    4   -0.19517672E+03   -0.29667352E-05    0.58780482E-04
    5   -0.19517672E+03   -0.14515089E-06    0.10313956E-04
    6   -0.19517672E+03   -0.34964103E-08    0.46398164E-05
    7   -0.19517672E+03   -0.50022209E-10    0.16309515E-05
    8   -0.19517672E+03   -0.19042545E-11    0.37465258E-06
    9   -0.19517672E+03   -0.39790393E-12    0.78072091E-07
   10   -0.19517672E+03   -0.85265128E-13    0.83342915E-08

Total Energy:                     -193.2560620144 H        -5258.7650 eV
Extrapolated to 0K:               -193.2560620144 H        -5258.7650 eV
Total Mermin free energy:         -193.2560620144 H        -5258.7650 eV
Force related energy:             -193.2560620144 H        -5258.7650 eV

Volume:                              0.112239E+05 au^3   0.166321E+04 A^3
Pressure:                            0.757228E-05 au     0.222784E+09 Pa
>> Charges saved for restart in charges.bin

total energy  -1.9325606E+02 H       energy change -6.7555086E-04 H
gradient norm  1.7445124E-02 H/a0    max. gradient  4.4358848E-03 H/a0
step length    1.3756416E-01 a0      max. step      3.2573463E-02 a0

--------------------------------------------------------------------------------

***  Geometry step: 29

 iSCC Total electronic   Diff electronic      SCC error    
    1   -0.19517672E+03    0.00000000E+00    0.46214400E-02
    2   -0.19518013E+03   -0.34127168E-02    0.26265766E-02
    3   -0.19518014E+03   -0.10357872E-04    0.46573654E-03
    4   -0.19518015E+03   -0.20985254E-05    0.41748724E-04
    5   -0.19518015E+03   -0.10055840E-06    0.95157950E-05
    6   -0.19518015E+03   -0.20268089E-08    0.30503455E-05
    7   -0.19518015E+03   -0.27284841E-10    0.75002258E-06
    8   -0.19518015E+03   -0.79580786E-12    0.15913275E-06
    9   -0.19518015E+03   -0.17053026E-12    0.47013380E-07
   10   -0.19518015E+03   -0.28421709E-13    0.87389913E-08

Total Energy:                     -193.2565469701 H        -5258.7782 eV
Extrapolated to 0K:               -193.2565469701 H        -5258.7782 eV
Total Mermin free energy:         -193.2565469701 H        -5258.7782 eV
Force related energy:             -193.2565469701 H        -5258.7782 eV

Volume:                              0.112429E+05 au^3   0.166603E+04 A^3
Pressure:                            0.826137E-05 au     0.243058E+09 Pa
>> Charges saved for restart in charges.bin

total energy  -1.9325655E+02 H       energy change -4.8495568E-04 H
gradient norm  1.5147755E-02 H/a0    max. gradient  5.7863675E-03 H/a0
step length    1.1288530E-01 a0      max. step      2.2713228E-02 a0

--------------------------------------------------------------------------------

***  Geometry step: 30

 iSCC Total electronic   Diff electronic      SCC error    
    1   -0.19518015E+03    0.00000000E+00    0.36883873E-02
    2   -0.19518052E+03   -0.37546705E-03    0.20808912E-02
    3   -0.19518053E+03   -0.65017971E-05    0.39146875E-03
    4   -0.19518053E+03   -0.13167442E-05    0.40060431E-04
    5   -0.19518053E+03   -0.53764893E-07    0.61999934E-05
    6   -0.19518053E+03   -0.13602630E-08    0.27398640E-05
    7   -0.19518053E+03   -0.15603518E-10    0.93491812E-06
    8   -0.19518053E+03   -0.34106051E-12    0.14097691E-06
    9   -0.19518053E+03   -0.19895197E-12    0.34776617E-07
   10   -0.19518053E+03    0.11368684E-12    0.53857425E-08

Total Energy:                     -193.2569283379 H        -5258.7886 eV
Extrapolated to 0K:               -193.2569283379 H        -5258.7886 eV
Total Mermin free energy:         -193.2569283379 H        -5258.7886 eV
Force related energy:             -193.2569283379 H        -5258.7886 eV

Volume:                              0.112557E+05 au^3   0.166792E+04 A^3
Pressure:                            0.809269E-05 au     0.238095E+09 Pa
>> Charges saved for restart in charges.bin

total energy  -1.9325693E+02 H       energy change -3.8136784E-04 H
gradient norm  1.5317855E-02 H/a0    max. gradient  5.8320187E-03 H/a0
step length    8.1813386E-02 a0      max. step      1.5194857E-02 a0

--------------------------------------------------------------------------------

***  Geometry step: 31

 iSCC Total electronic   Diff electronic      SCC error    
    1   -0.19518053E+03    0.00000000E+00    0.30709018E-02
    2   -0.19517846E+03    0.20698767E-02    0.17387920E-02
    3   -0.19517847E+03   -0.67652050E-05    0.35615771E-03
    4   -0.19517847E+03   -0.13848347E-05    0.43194474E-04
    5   -0.19517847E+03   -0.57954963E-07    0.11621771E-04
    6   -0.19517847E+03   -0.19607853E-08    0.45654233E-05
    7   -0.19517847E+03   -0.41410431E-10    0.11178160E-05
    8   -0.19517847E+03   -0.12221335E-11    0.19818609E-06
    9   -0.19517847E+03   -0.19895197E-12    0.41774237E-07
   10   -0.19517847E+03   -0.85265128E-13    0.58499148E-08

Total Energy:                     -193.2573478950 H        -5258.8000 eV
Extrapolated to 0K:               -193.2573478950 H        -5258.8000 eV
Total Mermin free energy:         -193.2573478950 H        -5258.8000 eV
Force related energy:             -193.2573478950 H        -5258.8000 eV

Volume:                              0.112668E+05 au^3   0.166956E+04 A^3
Pressure:                            0.665096E-05 au     0.195678E+09 Pa
>> Charges saved for restart in charges.bin

total energy  -1.9325735E+02 H       energy change -4.1955704E-04 H
gradient norm  1.5879132E-02 H/a0    max. gradient  4.6451030E-03 H/a0
step length    8.5678910E-02 a0      max. step      1.5959310E-02 a0

--------------------------------------------------------------------------------

***  Geometry step: 32

 iSCC Total electronic   Diff electronic      SCC error    
    1   -0.19517847E+03    0.00000000E+00    0.31130183E-02
    2   -0.19517580E+03    0.26658963E-02    0.18597729E-02
    3   -0.19517581E+03   -0.55638082E-05    0.43989098E-03
    4   -0.19517581E+03   -0.10728758E-05    0.39567212E-04
    5   -0.19517581E+03   -0.47136240E-07    0.15899769E-04
    6   -0.19517581E+03   -0.20636435E-08    0.50978400E-05
    7   -0.19517581E+03   -0.48800075E-10    0.10196085E-05
    8   -0.19517581E+03   -0.18474111E-11    0.20199390E-06
    9   -0.19517581E+03   -0.17053026E-12    0.42109086E-07
   10   -0.19517581E+03    0.85265128E-13    0.64099819E-08

Total Energy:                     -193.2577718398 H        -5258.8115 eV
Extrapolated to 0K:               -193.2577718398 H        -5258.8115 eV
Total Mermin free energy:         -193.2577718398 H        -5258.8115 eV
Force related energy:             -193.2577718398 H        -5258.8115 eV

Volume:                              0.112745E+05 au^3   0.167071E+04 A^3
Pressure:                            0.515913E-05 au     0.151787E+09 Pa
>> Charges saved for restart in charges.bin

total energy  -1.9325777E+02 H       energy change -4.2394482E-04 H
gradient norm  1.6795956E-02 H/a0    max. gradient  4.8062337E-03 H/a0
step length    8.9120893E-02 a0      max. step      1.9561216E-02 a0

--------------------------------------------------------------------------------

***  Geometry step: 33

 iSCC Total electronic   Diff electronic      SCC error    
    1   -0.19517581E+03    0.00000000E+00    0.38624133E-02
    2   -0.19517312E+03    0.26877069E-02    0.19085576E-02
    3   -0.19517313E+03   -0.88907929E-05    0.50174356E-03
    4   -0.19517313E+03   -0.15600793E-05    0.57028834E-04
    5   -0.19517313E+03   -0.70226406E-07    0.21790151E-04
    6   -0.19517313E+03   -0.34235654E-08    0.70880272E-05
    7   -0.19517313E+03   -0.90864205E-10    0.12706170E-05
    8   -0.19517313E+03   -0.38653525E-11    0.28054690E-06
    9   -0.19517313E+03   -0.22737368E-12    0.49517088E-07
   10   -0.19517313E+03   -0.11368684E-12    0.86210745E-08

Total Energy:                     -193.2583083283 H        -5258.8261 eV
Extrapolated to 0K:               -193.2583083283 H        -5258.8261 eV
Total Mermin free energy:         -193.2583083283 H        -5258.8261 eV
Force related energy:             -193.2583083283 H        -5258.8261 eV

Volume:                              0.112824E+05 au^3   0.167188E+04 A^3
Pressure:                            0.341666E-05 au     0.100522E+09 Pa
>> Charges saved for restart in charges.bin

total energy  -1.9325831E+02 H       energy change -5.3648850E-04 H
gradient norm  1.7812467E-02 H/a0    max. gradient  3.5820642E-03 H/a0
step length    1.2238606E-01 a0      max. step      2.8327013E-02 a0

--------------------------------------------------------------------------------

***  Geometry step: 34

 iSCC Total electronic   Diff electronic      SCC error    
    1   -0.19517313E+03    0.00000000E+00    0.35988563E-02
    2   -0.19517353E+03   -0.39846884E-03    0.15590854E-02
    3   -0.19517354E+03   -0.83176858E-05    0.39053736E-03
    4   -0.19517354E+03   -0.13601225E-05    0.50146431E-04
    5   -0.19517354E+03   -0.57330510E-07    0.15958520E-04
    6   -0.19517354E+03   -0.20969253E-08    0.55803905E-05
    7   -0.19517354E+03   -0.40074610E-10    0.12017633E-05
    8   -0.19517354E+03   -0.19610980E-11    0.30510881E-06
    9   -0.19517354E+03    0.00000000E+00    0.48939525E-07
   10   -0.19517354E+03   -0.14210855E-12    0.58783050E-08

Total Energy:                     -193.2588632510 H        -5258.8412 eV
Extrapolated to 0K:               -193.2588632510 H        -5258.8412 eV
Total Mermin free energy:         -193.2588632510 H        -5258.8412 eV
Force related energy:             -193.2588632510 H        -5258.8412 eV

Volume:                              0.112895E+05 au^3   0.167294E+04 A^3
Pressure:                            0.296255E-05 au     0.871612E+08 Pa
>> Charges saved for restart in charges.bin

total energy  -1.9325886E+02 H       energy change -5.5492273E-04 H
gradient norm  1.8514333E-02 H/a0    max. gradient  3.3693966E-03 H/a0
step length    1.3500685E-01 a0      max. step      3.1624369E-02 a0

--------------------------------------------------------------------------------

***  Geometry step: 35

 iSCC Total electronic   Diff electronic      SCC error    
    1   -0.19517354E+03    0.00000000E+00    0.41830210E-02
    2   -0.19517756E+03   -0.40150467E-02    0.20492389E-02
    3   -0.19517757E+03   -0.11931655E-04    0.53415060E-03
    4   -0.19517757E+03   -0.20208571E-05    0.54236939E-04
    5   -0.19517757E+03   -0.69094654E-07    0.54436809E-05
    6   -0.19517757E+03   -0.26607836E-08    0.16722856E-05
    7   -0.19517757E+03   -0.33338665E-10    0.37673749E-06
    8   -0.19517757E+03   -0.12221335E-11    0.10999525E-06
    9   -0.19517757E+03   -0.14210855E-12    0.30379038E-07
   10   -0.19517757E+03    0.85265128E-13    0.70424191E-08

Total Energy:                     -193.2594785355 H        -5258.8580 eV
Extrapolated to 0K:               -193.2594785355 H        -5258.8580 eV
Total Mermin free energy:         -193.2594785355 H        -5258.8580 eV
Force related energy:             -193.2594785355 H        -5258.8580 eV

Volume:                              0.112982E+05 au^3   0.167422E+04 A^3
Pressure:                            0.337851E-05 au     0.993991E+08 Pa
>> Charges saved for restart in charges.bin

total energy  -1.9325948E+02 H       energy change -6.1528452E-04 H
gradient norm  1.7600574E-02 H/a0    max. gradient  5.3552703E-03 H/a0
step length    1.6373804E-01 a0      max. step      3.6853852E-02 a0

--------------------------------------------------------------------------------

***  Geometry step: 36

 iSCC Total electronic   Diff electronic      SCC error    
    1   -0.19517757E+03    0.00000000E+00    0.35903941E-02
    2   -0.19518422E+03   -0.66522944E-02    0.20570613E-02
    3   -0.19518423E+03   -0.11332907E-04    0.51435970E-03
    4   -0.19518423E+03   -0.19904388E-05    0.57307141E-04
    5   -0.19518424E+03   -0.69200610E-07    0.12530952E-04
    6   -0.19518424E+03   -0.31700722E-08    0.50869685E-05
    7   -0.19518424E+03   -0.51699089E-10    0.13643301E-05
    8   -0.19518424E+03   -0.19610980E-11    0.36079814E-06
    9   -0.19518424E+03   -0.85265128E-13    0.56898092E-07
   10   -0.19518424E+03   -0.56843419E-13    0.66362800E-08

Total Energy:                     -193.2599875825 H        -5258.8718 eV
Extrapolated to 0K:               -193.2599875825 H        -5258.8718 eV
Total Mermin free energy:         -193.2599875825 H        -5258.8718 eV
Force related energy:             -193.2599875825 H        -5258.8718 eV

Volume:                              0.113076E+05 au^3   0.167562E+04 A^3
Pressure:                            0.490029E-05 au     0.144171E+09 Pa
>> Charges saved for restart in charges.bin

total energy  -1.9325999E+02 H       energy change -5.0904691E-04 H
gradient norm  1.6055017E-02 H/a0    max. gradient  5.9157718E-03 H/a0
step length    1.5025654E-01 a0      max. step      3.0701696E-02 a0

--------------------------------------------------------------------------------

***  Geometry step: 37

 iSCC Total electronic   Diff electronic      SCC error    
    1   -0.19518424E+03    0.00000000E+00    0.33414682E-02
    2   -0.19518983E+03   -0.55939359E-02    0.18920927E-02
    3   -0.19518984E+03   -0.88741364E-05    0.46771017E-03
    4   -0.19518984E+03   -0.14557245E-05    0.66369408E-04
    5   -0.19518984E+03   -0.57484812E-07    0.22763632E-04
    6   -0.19518984E+03   -0.32451339E-08    0.82540689E-05
    7   -0.19518984E+03   -0.59998229E-10    0.13464662E-05
    8   -0.19518984E+03   -0.28705927E-11    0.29386932E-06
    9   -0.19518984E+03   -0.11368684E-12    0.62490173E-07
   10   -0.19518984E+03    0.85265128E-13    0.51578795E-08

Total Energy:                     -193.2604156776 H        -5258.8835 eV
Extrapolated to 0K:               -193.2604156776 H        -5258.8835 eV
Total Mermin free energy:         -193.2604156776 H        -5258.8835 eV
Force related energy:             -193.2604156776 H        -5258.8835 eV

Volume:                              0.113175E+05 au^3   0.167709E+04 A^3
Pressure:                            0.651805E-05 au     0.191768E+09 Pa
>> Charges saved for restart in charges.bin

total energy  -1.9326042E+02 H       energy change -4.2809513E-04 H
gradient norm  1.5683496E-02 H/a0    max. gradient  5.2411545E-03 H/a0
step length    1.2742821E-01 a0      max. step      2.3622362E-02 a0

--------------------------------------------------------------------------------

***  Geometry step: 38

 iSCC Total electronic   Diff electronic      SCC error    
    1   -0.19518984E+03    0.00000000E+00    0.35784783E-02
    2   -0.19519263E+03   -0.27926869E-02    0.20578915E-02
    3   -0.19519264E+03   -0.12844021E-04    0.57840196E-03
    4   -0.19519265E+03   -0.19200967E-05    0.93629690E-04
    5   -0.19519265E+03   -0.73750016E-07    0.30724361E-04
    6   -0.19519265E+03   -0.44005333E-08    0.10887916E-04
    7   -0.19519265E+03   -0.85378815E-10    0.16774708E-05
    8   -0.19519265E+03   -0.42064130E-11    0.30426440E-06
    9   -0.19519265E+03   -0.34106051E-12    0.97340611E-07
   10   -0.19519265E+03    0.28421709E-13    0.92915045E-08

Total Energy:                     -193.2609163520 H        -5258.8971 eV
Extrapolated to 0K:               -193.2609163520 H        -5258.8971 eV
Total Mermin free energy:         -193.2609163520 H        -5258.8971 eV
Force related energy:             -193.2609163520 H        -5258.8971 eV

Volume:                              0.113307E+05 au^3   0.167903E+04 A^3
Pressure:                            0.676415E-05 au     0.199008E+09 Pa
>> Charges saved for restart in charges.bin

total energy  -1.9326092E+02 H       energy change -5.0067439E-04 H
gradient norm  1.6865866E-02 H/a0    max. gradient  4.3317749E-03 H/a0
step length    1.4799990E-01 a0      max. step      2.7246190E-02 a0

--------------------------------------------------------------------------------

***  Geometry step: 39

 iSCC Total electronic   Diff electronic      SCC error    
    1   -0.19519265E+03    0.00000000E+00    0.42888422E-02
    2   -0.19519297E+03   -0.32801392E-03    0.24439354E-02
    3   -0.19519299E+03   -0.15983244E-04    0.68609930E-03
    4   -0.19519299E+03   -0.22273473E-05    0.85818699E-04
    5   -0.19519299E+03   -0.95546909E-07    0.27744453E-04
    6   -0.19519299E+03   -0.48482605E-08    0.99851586E-05
    7   -0.19519299E+03   -0.86856744E-10    0.18324570E-05
    8   -0.19519299E+03   -0.44622084E-11    0.30083084E-06
    9   -0.19519299E+03   -0.22737368E-12    0.10476964E-06
   10   -0.19519299E+03   -0.56843419E-13    0.12881120E-07
   11   -0.19519299E+03    0.56843419E-13    0.26673890E-08

Total Energy:                     -193.2614940026 H        -5258.9128 eV
Extrapolated to 0K:               -193.2614940026 H        -5258.9128 eV
Total Mermin free energy:         -193.2614940026 H        -5258.9128 eV
Force related energy:             -193.2614940026 H        -5258.9128 eV

Volume:                              0.113444E+05 au^3   0.168106E+04 A^3
Pressure:                            0.625424E-05 au     0.184006E+09 Pa
>> Charges saved for restart in charges.bin

total energy  -1.9326149E+02 H       energy change -5.7765058E-04 H
gradient norm  1.7988566E-02 H/a0    max. gradient  3.7590838E-03 H/a0
step length    1.7228714E-01 a0      max. step      3.4040706E-02 a0

--------------------------------------------------------------------------------

***  Geometry step: 40

 iSCC Total electronic   Diff electronic      SCC error    
    1   -0.19519299E+03    0.00000000E+00    0.44277420E-02
    2   -0.19519000E+03    0.29907236E-02    0.23229097E-02
    3   -0.19519002E+03   -0.21355488E-04    0.66264952E-03
    4   -0.19519003E+03   -0.27642939E-05    0.69538243E-04
    5   -0.19519003E+03   -0.12666541E-06    0.19130122E-04
    6   -0.19519003E+03   -0.57586647E-08    0.71185534E-05
    7   -0.19519003E+03   -0.84440899E-10    0.19549594E-05
    8   -0.19519003E+03   -0.34958703E-11    0.33320781E-06
    9   -0.19519003E+03   -0.62527761E-12    0.73911182E-07
   10   -0.19519003E+03   -0.28421709E-13    0.14960286E-07
   11   -0.19519003E+03    0.28421709E-13    0.20959030E-08

Total Energy:                     -193.2621158105 H        -5258.9297 eV
Extrapolated to 0K:               -193.2621158105 H        -5258.9297 eV
Total Mermin free energy:         -193.2621158105 H        -5258.9297 eV
Force related energy:             -193.2621158105 H        -5258.9297 eV

Volume:                              0.113573E+05 au^3   0.168299E+04 A^3
Pressure:                            0.434330E-05 au     0.127784E+09 Pa
>> Charges saved for restart in charges.bin

total energy  -1.9326212E+02 H       energy change -6.2180795E-04 H
gradient norm  1.7270911E-02 H/a0    max. gradient  3.9807292E-03 H/a0
step length    1.9182211E-01 a0      max. step      4.4237509E-02 a0

--------------------------------------------------------------------------------

***  Geometry step: 41

 iSCC Total electronic   Diff electronic      SCC error    
    1   -0.19519003E+03    0.00000000E+00    0.47172419E-02
    2   -0.19518736E+03    0.26709200E-02    0.20525439E-02
    3   -0.19518737E+03   -0.18022546E-04    0.63767853E-03
    4   -0.19518738E+03   -0.22756912E-05    0.77902452E-04
    5   -0.19518738E+03   -0.10740061E-06    0.21699113E-04
    6   -0.19518738E+03   -0.48971458E-08    0.78654019E-05
    7   -0.19518738E+03   -0.72446937E-10    0.23213865E-05
    8   -0.19518738E+03   -0.21600499E-11    0.30883276E-06
    9   -0.19518738E+03   -0.51159077E-12    0.49918765E-07
   10   -0.19518738E+03   -0.28421709E-13    0.82067073E-08

Total Energy:                     -193.2626314675 H        -5258.9438 eV
Extrapolated to 0K:               -193.2626314675 H        -5258.9438 eV
Total Mermin free energy:         -193.2626314675 H        -5258.9438 eV
Force related energy:             -193.2626314675 H        -5258.9438 eV

Volume:                              0.113653E+05 au^3   0.168416E+04 A^3
Pressure:                            0.298927E-05 au     0.879473E+08 Pa
>> Charges saved for restart in charges.bin

total energy  -1.9326263E+02 H       energy change -5.1565698E-04 H
gradient norm  1.5026680E-02 H/a0    max. gradient  4.4960038E-03 H/a0
step length    1.7251724E-01 a0      max. step      4.3623835E-02 a0

--------------------------------------------------------------------------------

***  Geometry step: 42

 iSCC Total electronic   Diff electronic      SCC error    
    1   -0.19518738E+03    0.00000000E+00    0.30314888E-02
    2   -0.19518625E+03    0.11238134E-02    0.15948170E-02
    3   -0.19518626E+03   -0.10699815E-04    0.51861052E-03
    4   -0.19518626E+03   -0.13894219E-05    0.62713104E-04
    5   -0.19518626E+03   -0.55156562E-07    0.13532409E-04
    6   -0.19518626E+03   -0.31375293E-08    0.52885797E-05
    7   -0.19518626E+03   -0.51215920E-10    0.13297938E-05
    8   -0.19518626E+03   -0.15916157E-11    0.25594675E-06
    9   -0.19518626E+03   -0.22737368E-12    0.53639396E-07
   10   -0.19518626E+03   -0.56843419E-13    0.93172723E-08

Total Energy:                     -193.2629950030 H        -5258.9537 eV
Extrapolated to 0K:               -193.2629950030 H        -5258.9537 eV
Total Mermin free energy:         -193.2629950030 H        -5258.9537 eV
Force related energy:             -193.2629950030 H        -5258.9537 eV

Volume:                              0.113708E+05 au^3   0.168498E+04 A^3
Pressure:                            0.224198E-05 au     0.659613E+08 Pa
>> Charges saved for restart in charges.bin

total energy  -1.9326300E+02 H       energy change -3.6353555E-04 H
gradient norm  1.3350863E-02 H/a0    max. gradient  2.6012715E-03 H/a0
step length    1.2795443E-01 a0      max. step      3.2612833E-02 a0

--------------------------------------------------------------------------------

***  Geometry step: 43

 iSCC Total electronic   Diff electronic      SCC error    
    1   -0.19518626E+03    0.00000000E+00    0.39756364E-02
    2   -0.19518766E+03   -0.13933230E-02    0.22835471E-02
    3   -0.19518766E+03   -0.68233344E-05    0.60960982E-03
    4   -0.19518767E+03   -0.10686903E-05    0.64843900E-04
    5   -0.19518767E+03   -0.42231505E-07    0.13125509E-04
    6   -0.19518767E+03   -0.24546694E-08    0.52271631E-05
    7   -0.19518767E+03   -0.40273562E-10    0.11460052E-05
    8   -0.19518767E+03   -0.12789769E-11    0.26004342E-06
    9   -0.19518767E+03   -0.14210855E-12    0.63604261E-07
   10   -0.19518767E+03   -0.14210855E-12    0.93036898E-08

Total Energy:                     -193.2633086777 H        -5258.9622 eV
Extrapolated to 0K:               -193.2633086777 H        -5258.9622 eV
Total Mermin free energy:         -193.2633086777 H        -5258.9622 eV
Force related energy:             -193.2633086777 H        -5258.9622 eV

Volume:                              0.113759E+05 au^3   0.168574E+04 A^3
Pressure:                            0.252747E-05 au     0.743607E+08 Pa
>> Charges saved for restart in charges.bin

total energy  -1.9326331E+02 H       energy change -3.1367470E-04 H
gradient norm  1.3029504E-02 H/a0    max. gradient  2.6915373E-03 H/a0
step length    1.0727001E-01 a0      max. step      2.5251028E-02 a0

--------------------------------------------------------------------------------

***  Geometry step: 44

 iSCC Total electronic   Diff electronic      SCC error    
    1   -0.19518767E+03    0.00000000E+00    0.46099372E-02
    2   -0.19519037E+03   -0.27053878E-02    0.26734155E-02
    3   -0.19519038E+03   -0.66631209E-05    0.62093605E-03
    4   -0.19519038E+03   -0.11839059E-05    0.57248387E-04
    5   -0.19519038E+03   -0.48956593E-07    0.13701855E-04
    6   -0.19519038E+03   -0.31118645E-08    0.48738734E-05
    7   -0.19519038E+03   -0.48402171E-10    0.10094848E-05
    8   -0.19519038E+03   -0.14210855E-11    0.19039119E-06
    9   -0.19519038E+03   -0.28421709E-13    0.53902873E-07
   10   -0.19519038E+03    0.00000000E+00    0.75361695E-08

Total Energy:                     -193.2636250523 H        -5258.9708 eV
Extrapolated to 0K:               -193.2636250523 H        -5258.9708 eV
Total Mermin free energy:         -193.2636250523 H        -5258.9708 eV
Force related energy:             -193.2636250523 H        -5258.9708 eV

Volume:                              0.113829E+05 au^3   0.168677E+04 A^3
Pressure:                            0.284556E-05 au     0.837192E+08 Pa
>> Charges saved for restart in charges.bin

total energy  -1.9326363E+02 H       energy change -3.1637451E-04 H
gradient norm  1.3256900E-02 H/a0    max. gradient  3.1184722E-03 H/a0
step length    1.1938258E-01 a0      max. step      2.5368592E-02 a0

--------------------------------------------------------------------------------

***  Geometry step: 45

 iSCC Total electronic   Diff electronic      SCC error    
    1   -0.19519038E+03    0.00000000E+00    0.37177205E-02
    2   -0.19519481E+03   -0.44305832E-02    0.21832797E-02
    3   -0.19519482E+03   -0.63295549E-05    0.53154091E-03
    4   -0.19519482E+03   -0.10253912E-05    0.62216255E-04
    5   -0.19519482E+03   -0.55492535E-07    0.16273396E-04
    6   -0.19519482E+03   -0.28626630E-08    0.59706255E-05
    7   -0.19519482E+03   -0.49510618E-10    0.99963830E-06
    8   -0.19519482E+03   -0.19326762E-11    0.22966219E-06
    9   -0.19519482E+03   -0.85265128E-13    0.52029383E-07
   10   -0.19519482E+03   -0.56843419E-13    0.65141736E-08

Total Energy:                     -193.2639393135 H        -5258.9794 eV
Extrapolated to 0K:               -193.2639393135 H        -5258.9794 eV
Total Mermin free energy:         -193.2639393135 H        -5258.9794 eV
Force related energy:             -193.2639393135 H        -5258.9794 eV

Volume:                              0.113892E+05 au^3   0.168770E+04 A^3
Pressure:                            0.384385E-05 au     0.113090E+09 Pa
>> Charges saved for restart in charges.bin

total energy  -1.9326394E+02 H       energy change -3.1426129E-04 H
gradient norm  1.3394570E-02 H/a0    max. gradient  3.2637521E-03 H/a0
step length    1.2359943E-01 a0      max. step      2.5007244E-02 a0

--------------------------------------------------------------------------------

***  Geometry step: 46

 iSCC Total electronic   Diff electronic      SCC error    
    1   -0.19519482E+03    0.00000000E+00    0.33667964E-02
    2   -0.19519825E+03   -0.34288590E-02    0.19515033E-02
    3   -0.19519825E+03   -0.88045659E-05    0.56431727E-03
    4   -0.19519826E+03   -0.12001348E-05    0.83313168E-04
    5   -0.19519826E+03   -0.72332853E-07    0.25399325E-04
    6   -0.19519826E+03   -0.32564174E-08    0.81885248E-05
    7   -0.19519826E+03   -0.67103656E-10    0.11712577E-05
    8   -0.19519826E+03   -0.33821834E-11    0.22377883E-06
    9   -0.19519826E+03   -0.22737368E-12    0.73925795E-07
   10   -0.19519826E+03    0.00000000E+00    0.79435876E-08

Total Energy:                     -193.2642682057 H        -5258.9883 eV
Extrapolated to 0K:               -193.2642682057 H        -5258.9883 eV
Total Mermin free energy:         -193.2642682057 H        -5258.9883 eV
Force related energy:             -193.2642682057 H        -5258.9883 eV

Volume:                              0.113980E+05 au^3   0.168902E+04 A^3
Pressure:                            0.446965E-05 au     0.131501E+09 Pa
>> Charges saved for restart in charges.bin

total energy  -1.9326427E+02 H       energy change -3.2889217E-04 H
gradient norm  1.2621623E-02 H/a0    max. gradient  2.6525508E-03 H/a0
step length    1.5126786E-01 a0      max. step      3.0099515E-02 a0

--------------------------------------------------------------------------------

***  Geometry step: 47

 iSCC Total electronic   Diff electronic      SCC error    
    1   -0.19519826E+03    0.00000000E+00    0.31041865E-02
    2   -0.19519904E+03   -0.78218308E-03    0.14883657E-02
    3   -0.19519904E+03   -0.64627789E-05    0.46944715E-03
    4   -0.19519905E+03   -0.89393905E-06    0.59015673E-04
    5   -0.19519905E+03   -0.40735358E-07    0.19433251E-04
    6   -0.19519905E+03   -0.26279281E-08    0.64523185E-05
    7   -0.19519905E+03   -0.53347549E-10    0.92631369E-06
    8   -0.19519905E+03   -0.20179414E-11    0.16910034E-06
    9   -0.19519905E+03   -0.25579538E-12    0.48011024E-07
   10   -0.19519905E+03    0.28421709E-13    0.62250618E-08

Total Energy:                     -193.2645166611 H        -5258.9951 eV
Extrapolated to 0K:               -193.2645166611 H        -5258.9951 eV
Total Mermin free energy:         -193.2645166611 H        -5258.9951 eV
Force related energy:             -193.2645166611 H        -5258.9951 eV

Volume:                              0.114039E+05 au^3   0.168988E+04 A^3
Pressure:                            0.443612E-05 au     0.130515E+09 Pa
>> Charges saved for restart in charges.bin

total energy  -1.9326452E+02 H       energy change -2.4845539E-04 H
gradient norm  1.1069596E-02 H/a0    max. gradient  2.0906559E-03 H/a0
step length    1.1166834E-01 a0      max. step      2.3444914E-02 a0

--------------------------------------------------------------------------------

***  Geometry step: 48

 iSCC Total electronic   Diff electronic      SCC error    
    1   -0.19519905E+03    0.00000000E+00    0.36931490E-02
    2   -0.19519783E+03    0.12153173E-02    0.20537377E-02
    3   -0.19519784E+03   -0.59770175E-05    0.50716800E-03
    4   -0.19519784E+03   -0.90261645E-06    0.72421136E-04
    5   -0.19519784E+03   -0.38367858E-07    0.17562111E-04
    6   -0.19519784E+03   -0.27166891E-08    0.53109822E-05
    7   -0.19519784E+03   -0.50874860E-10    0.89964473E-06
    8   -0.19519784E+03   -0.15916157E-11    0.17253964E-06
    9   -0.19519784E+03   -0.19895197E-12    0.30650258E-07
   10   -0.19519784E+03    0.28421709E-13    0.51918918E-08

Total Energy:                     -193.2647261624 H        -5259.0008 eV
Extrapolated to 0K:               -193.2647261624 H        -5259.0008 eV
Total Mermin free energy:         -193.2647261624 H        -5259.0008 eV
Force related energy:             -193.2647261624 H        -5259.0008 eV

Volume:                              0.114077E+05 au^3   0.169045E+04 A^3
Pressure:                            0.384921E-05 au     0.113248E+09 Pa
>> Charges saved for restart in charges.bin

total energy  -1.9326473E+02 H       energy change -2.0950131E-04 H
gradient norm  9.4837990E-03 H/a0    max. gradient  1.8741728E-03 H/a0
step length    8.9696273E-02 a0      max. step      2.1318964E-02 a0

--------------------------------------------------------------------------------

***  Geometry step: 49

 iSCC Total electronic   Diff electronic      SCC error    
    1   -0.19519784E+03    0.00000000E+00    0.37515965E-02
    2   -0.19519612E+03    0.17169324E-02    0.21331127E-02
    3   -0.19519612E+03   -0.35163294E-05    0.47513178E-03
    4   -0.19519612E+03   -0.61714152E-06    0.54497498E-04
    5   -0.19519612E+03   -0.25257862E-07    0.18875591E-04
    6   -0.19519612E+03   -0.17476509E-08    0.52016727E-05
    7   -0.19519612E+03   -0.33224978E-10    0.75502010E-06
    8   -0.19519612E+03   -0.15063506E-11    0.14576588E-06
    9   -0.19519612E+03   -0.28421709E-13    0.28447187E-07
   10   -0.19519612E+03   -0.56843419E-13    0.37690220E-08

Total Energy:                     -193.2648744216 H        -5259.0048 eV
Extrapolated to 0K:               -193.2648744216 H        -5259.0048 eV
Total Mermin free energy:         -193.2648744216 H        -5259.0048 eV
Force related energy:             -193.2648744216 H        -5259.0048 eV

Volume:                              0.114093E+05 au^3   0.169069E+04 A^3
Pressure:                            0.318961E-05 au     0.938415E+08 Pa
>> Charges saved for restart in charges.bin

total energy  -1.9326487E+02 H       energy change -1.4825917E-04 H
gradient norm  8.8724713E-03 H/a0    max. gradient  2.2814216E-03 H/a0
step length    6.1070441E-02 a0      max. step      1.5523646E-02 a0

--------------------------------------------------------------------------------

***  Geometry step: 50

 iSCC Total electronic   Diff electronic      SCC error    
    1   -0.19519612E+03    0.00000000E+00    0.26606194E-02
    2   -0.19519477E+03    0.13501446E-02    0.15492472E-02
    3   -0.19519478E+03   -0.23439621E-05    0.35781045E-03
    4   -0.19519478E+03   -0.43882807E-06    0.50303016E-04
    5   -0.19519478E+03   -0.16765995E-07    0.17674013E-04
    6   -0.19519478E+03   -0.89352170E-09    0.45422716E-05
    7   -0.19519478E+03   -0.19895197E-10    0.55345605E-06
    8   -0.19519478E+03   -0.13358203E-11    0.99865920E-07
    9   -0.19519478E+03   -0.56843419E-13    0.31900397E-07
   10   -0.19519478E+03    0.28421709E-13    0.31818042E-08

Total Energy:                     -193.2650051848 H        -5259.0084 eV
Extrapolated to 0K:               -193.2650051848 H        -5259.0084 eV
Total Mermin free energy:         -193.2650051848 H        -5259.0084 eV
Force related energy:             -193.2650051848 H        -5259.0084 eV

Volume:                              0.114106E+05 au^3   0.169088E+04 A^3
Pressure:                            0.266332E-05 au     0.783575E+08 Pa
>> Charges saved for restart in charges.bin

total energy  -1.9326501E+02 H       energy change -1.3076323E-04 H
gradient norm  8.9788259E-03 H/a0    max. gradient  1.7853348E-03 H/a0
step length    4.9562718E-02 a0      max. step      1.1958825E-02 a0

[...]
Pressure:                            0.177591E-07 au     0.522490E+06 Pa
>> Charges saved for restart in charges.bin

total energy  -1.9327550E+02 H       energy change -4.1191717E-07 H
gradient norm  5.4395473E-04 H/a0    max. gradient  1.1231847E-04 H/a0
step length    1.1010225E-03 a0      max. step      2.1528194E-04 a0

--------------------------------------------------------------------------------

***  Geometry step: 178

 iSCC Total electronic   Diff electronic      SCC error    
    1   -0.19518348E+03    0.00000000E+00    0.20417989E-03
    2   -0.19518344E+03    0.33682166E-04    0.11530983E-03
    3   -0.19518344E+03   -0.23798179E-07    0.28873200E-04
    4   -0.19518344E+03   -0.37903192E-08    0.24154897E-05
    5   -0.19518344E+03   -0.15251089E-09    0.35094769E-06
    6   -0.19518344E+03   -0.49169557E-11    0.13430629E-06
    7   -0.19518344E+03    0.00000000E+00    0.27473557E-07
    8   -0.19518344E+03   -0.85265128E-13    0.55783147E-08

Total Energy:                     -193.2755029728 H        -5259.2940 eV
Extrapolated to 0K:               -193.2755029728 H        -5259.2940 eV
Total Mermin free energy:         -193.2755029728 H        -5259.2940 eV
Force related energy:             -193.2755029728 H        -5259.2940 eV

Volume:                              0.111888E+05 au^3   0.165801E+04 A^3
Pressure:                            0.117047E-07 au     0.344365E+06 Pa
>> Charges saved for restart in charges.bin

total energy  -1.9327550E+02 H       energy change -9.1923349E-07 H
gradient norm  6.4686800E-04 H/a0    max. gradient  1.7995870E-04 H/a0
step length    4.1582351E-03 a0      max. step      9.2596052E-04 a0

--------------------------------------------------------------------------------

***  Geometry step: 179

 iSCC Total electronic   Diff electronic      SCC error    
    1   -0.19518344E+03    0.00000000E+00    0.12497899E-03
    2   -0.19518340E+03    0.39173283E-04    0.58322471E-04
    3   -0.19518340E+03   -0.12356878E-07    0.17517659E-04
    4   -0.19518340E+03   -0.16450770E-08    0.16904207E-05
    5   -0.19518340E+03   -0.44536819E-10    0.40518192E-06
    6   -0.19518340E+03   -0.25295321E-11    0.12540988E-06
    7   -0.19518340E+03   -0.56843419E-13    0.24744148E-07
    8   -0.19518340E+03   -0.28421709E-13    0.30315839E-08

Total Energy:                     -193.2755037111 H        -5259.2940 eV
Extrapolated to 0K:               -193.2755037111 H        -5259.2940 eV
Total Mermin free energy:         -193.2755037111 H        -5259.2940 eV
Force related energy:             -193.2755037111 H        -5259.2940 eV

Volume:                              0.111887E+05 au^3   0.165800E+04 A^3
Pressure:                           -0.107585E-07 au    -0.316526E+06 Pa
>> Charges saved for restart in charges.bin

total energy  -1.9327550E+02 H       energy change -7.3832675E-07 H
gradient norm  7.6663450E-04 H/a0    max. gradient  1.8924303E-04 H/a0
step length    4.5953939E-03 a0      max. step      1.1549490E-03 a0

--------------------------------------------------------------------------------

***  Geometry step: 180

 iSCC Total electronic   Diff electronic      SCC error    
    1   -0.19518340E+03    0.00000000E+00    0.30463187E-03
    2   -0.19518345E+03   -0.43640325E-04    0.10144750E-03
    3   -0.19518345E+03   -0.29900150E-07    0.20113082E-04
    4   -0.19518345E+03   -0.37347263E-08    0.25305599E-05
    5   -0.19518345E+03   -0.91034735E-10    0.57442214E-06
    6   -0.19518345E+03   -0.57127636E-11    0.16126160E-06
    7   -0.19518345E+03   -0.56843419E-13    0.27118537E-07
    8   -0.19518345E+03   -0.28421709E-13    0.37952970E-08

Total Energy:                     -193.2755049257 H        -5259.2941 eV
Extrapolated to 0K:               -193.2755049257 H        -5259.2941 eV
Total Mermin free energy:         -193.2755049257 H        -5259.2941 eV
Force related energy:             -193.2755049257 H        -5259.2941 eV

Volume:                              0.111888E+05 au^3   0.165801E+04 A^3
Pressure:                            0.194639E-07 au     0.572646E+06 Pa
>> Charges saved for restart in charges.bin

total energy  -1.9327550E+02 H       energy change -1.2146376E-06 H
gradient norm  8.8750017E-04 H/a0    max. gradient  2.4451212E-04 H/a0
step length    8.9182851E-03 a0      max. step      2.4250443E-03 a0

--------------------------------------------------------------------------------

***  Geometry step: 181

 iSCC Total electronic   Diff electronic      SCC error    
    1   -0.19518345E+03    0.00000000E+00    0.42130555E-03
    2   -0.19518345E+03   -0.93080388E-07    0.14179136E-03
    3   -0.19518345E+03   -0.47128765E-07    0.33157505E-04
    4   -0.19518345E+03   -0.53588565E-08    0.30482222E-05
    5   -0.19518345E+03   -0.15396040E-09    0.10118990E-05
    6   -0.19518345E+03   -0.84412477E-11    0.30119101E-06
    7   -0.19518345E+03   -0.11368684E-12    0.41585198E-07
    8   -0.19518345E+03   -0.11368684E-12    0.48246833E-08

Total Energy:                     -193.2755063462 H        -5259.2941 eV
Extrapolated to 0K:               -193.2755063462 H        -5259.2941 eV
Total Mermin free energy:         -193.2755063462 H        -5259.2941 eV
Force related energy:             -193.2755063462 H        -5259.2941 eV

Volume:                              0.111890E+05 au^3   0.165804E+04 A^3
Pressure:                           -0.177319E-07 au    -0.521690E+06 Pa
>> Charges saved for restart in charges.bin

total energy  -1.9327551E+02 H       energy change -1.4204258E-06 H
gradient norm  8.7217861E-04 H/a0    max. gradient  2.4772692E-04 H/a0
step length    1.1671279E-02 a0      max. step      3.2467777E-03 a0

--------------------------------------------------------------------------------

***  Geometry step: 182

 iSCC Total electronic   Diff electronic      SCC error    
    1   -0.19518345E+03    0.00000000E+00    0.33487338E-03
    2   -0.19518350E+03   -0.52001063E-04    0.11002112E-03
    3   -0.19518350E+03   -0.48975750E-07    0.30186673E-04
    4   -0.19518350E+03   -0.58092553E-08    0.36975948E-05
    5   -0.19518350E+03   -0.16584067E-09    0.11958786E-05
    6   -0.19518350E+03   -0.87823082E-11    0.34056869E-06
    7   -0.19518350E+03   -0.22737368E-12    0.31645115E-07
    8   -0.19518350E+03    0.85265128E-13    0.41442028E-08

Total Energy:                     -193.2755075977 H        -5259.2942 eV
Extrapolated to 0K:               -193.2755075977 H        -5259.2942 eV
Total Mermin free energy:         -193.2755075977 H        -5259.2942 eV
Force related energy:             -193.2755075977 H        -5259.2942 eV

Volume:                              0.111895E+05 au^3   0.165812E+04 A^3
Pressure:                            0.889841E-08 au     0.261800E+06 Pa
>> Charges saved for restart in charges.bin

total energy  -1.9327551E+02 H       energy change -1.2515312E-06 H
gradient norm  7.1257223E-04 H/a0    max. gradient  2.1084367E-04 H/a0
step length    1.0534914E-02 a0      max. step      2.9021101E-03 a0

--------------------------------------------------------------------------------

***  Geometry step: 183

 iSCC Total electronic   Diff electronic      SCC error    
    1   -0.19518350E+03    0.00000000E+00    0.15414745E-03
    2   -0.19518351E+03   -0.11606720E-04    0.70385391E-04
    3   -0.19518351E+03   -0.24119913E-07    0.22751764E-04
    4   -0.19518351E+03   -0.33305696E-08    0.37424764E-05
    5   -0.19518351E+03   -0.74834361E-10    0.52096112E-06
    6   -0.19518351E+03   -0.44337867E-11    0.18283732E-06
    7   -0.19518351E+03   -0.11368684E-12    0.32182892E-07
    8   -0.19518351E+03   -0.56843419E-13    0.31743626E-08

Total Energy:                     -193.2755084436 H        -5259.2942 eV
Extrapolated to 0K:               -193.2755084436 H        -5259.2942 eV
Total Mermin free energy:         -193.2755084436 H        -5259.2942 eV
Force related energy:             -193.2755084436 H        -5259.2942 eV

Volume:                              0.111898E+05 au^3   0.165815E+04 A^3
Pressure:                            0.652243E-09 au     0.191896E+05 Pa
>> Charges saved for restart in charges.bin

total energy  -1.9327551E+02 H       energy change -8.4588845E-07 H
gradient norm  5.3444945E-04 H/a0    max. gradient  1.4149248E-04 H/a0
step length    3.6412859E-03 a0      max. step      1.0474446E-03 a0

--------------------------------------------------------------------------------

***  Geometry step: 184

 iSCC Total electronic   Diff electronic      SCC error    
    1   -0.19518351E+03    0.00000000E+00    0.12982565E-03
    2   -0.19518352E+03   -0.68239428E-05    0.49643554E-04
    3   -0.19518352E+03   -0.17458035E-07    0.16582512E-04
    4   -0.19518352E+03   -0.24202222E-08    0.29415852E-05
    5   -0.19518352E+03   -0.51585403E-10    0.41203681E-06
    6   -0.19518352E+03   -0.28137492E-11    0.14355608E-06
    7   -0.19518352E+03    0.56843419E-13    0.24372918E-07
    8   -0.19518352E+03    0.28421709E-13    0.30237399E-08

Total Energy:                     -193.2755089607 H        -5259.2942 eV
Extrapolated to 0K:               -193.2755089607 H        -5259.2942 eV
Total Mermin free energy:         -193.2755089607 H        -5259.2942 eV
Force related energy:             -193.2755089607 H        -5259.2942 eV

Volume:                              0.111900E+05 au^3   0.165819E+04 A^3
Pressure:                           -0.227964E-07 au    -0.670694E+06 Pa
>> Charges saved for restart in charges.bin

total energy  -1.9327551E+02 H       energy change -5.1713988E-07 H
gradient norm  5.0690971E-04 H/a0    max. gradient  1.0976162E-04 H/a0
step length    3.8170031E-03 a0      max. step      1.1148836E-03 a0

--------------------------------------------------------------------------------

***  Geometry step: 185

 iSCC Total electronic   Diff electronic      SCC error    
    1   -0.19518352E+03    0.00000000E+00    0.71545609E-04
    2   -0.19518356E+03   -0.42148220E-04    0.39848465E-04
    3   -0.19518356E+03   -0.32665071E-08    0.92128224E-05
    4   -0.19518356E+03   -0.56792260E-09    0.76238603E-06
    5   -0.19518356E+03   -0.17195134E-10    0.13647655E-06
    6   -0.19518356E+03   -0.54001248E-12    0.48034481E-07
    7   -0.19518356E+03   -0.56843419E-13    0.13067110E-07
    8   -0.19518356E+03   -0.85265128E-13    0.23122650E-08

Total Energy:                     -193.2755092506 H        -5259.2942 eV
Extrapolated to 0K:               -193.2755092506 H        -5259.2942 eV
Total Mermin free energy:         -193.2755092506 H        -5259.2942 eV
Force related energy:             -193.2755092506 H        -5259.2942 eV

Volume:                              0.111899E+05 au^3   0.165818E+04 A^3
Pressure:                            0.853837E-08 au     0.251207E+06 Pa
>> Charges saved for restart in charges.bin

total energy  -1.9327551E+02 H       energy change -2.8985104E-07 H
gradient norm  4.8673972E-04 H/a0    max. gradient  1.0322667E-04 H/a0
step length    1.0126738E-03 a0      max. step      2.8279059E-04 a0

--------------------------------------------------------------------------------

***  Geometry step: 186

 iSCC Total electronic   Diff electronic      SCC error    
    1   -0.19518356E+03    0.00000000E+00    0.18826214E-03
    2   -0.19518357E+03   -0.12801260E-04    0.85346963E-04
    3   -0.19518357E+03   -0.21587994E-07    0.24446129E-04
    4   -0.19518357E+03   -0.34436312E-08    0.20666282E-05
    5   -0.19518357E+03   -0.11311840E-09    0.44495026E-06
    6   -0.19518357E+03   -0.28705927E-11    0.14558696E-06
    7   -0.19518357E+03   -0.17053026E-12    0.34101087E-07
    8   -0.19518357E+03    0.85265128E-13    0.52271267E-08

Total Energy:                     -193.2755101927 H        -5259.2942 eV
Extrapolated to 0K:               -193.2755101927 H        -5259.2942 eV
Total Mermin free energy:         -193.2755101927 H        -5259.2942 eV
Force related energy:             -193.2755101927 H        -5259.2942 eV

Volume:                              0.111899E+05 au^3   0.165817E+04 A^3
Pressure:                            0.432518E-08 au     0.127251E+06 Pa
>> Charges saved for restart in charges.bin

total energy  -1.9327551E+02 H       energy change -9.4213448E-07 H
gradient norm  6.6693744E-04 H/a0    max. gradient  1.5865549E-04 H/a0
step length    1.1912560E-02 a0      max. step      3.2378404E-03 a0

--------------------------------------------------------------------------------

***  Geometry step: 187

 iSCC Total electronic   Diff electronic      SCC error    
    1   -0.19518357E+03    0.00000000E+00    0.13508189E-03
    2   -0.19518361E+03   -0.38363251E-04    0.52687617E-04
    3   -0.19518361E+03   -0.96207486E-08    0.14701475E-04
    4   -0.19518361E+03   -0.14503883E-08    0.16773315E-05
    5   -0.19518361E+03   -0.40245141E-10    0.52851365E-06
    6   -0.19518361E+03   -0.17337243E-11    0.17482868E-06
    7   -0.19518361E+03    0.00000000E+00    0.28462136E-07
    8   -0.19518361E+03   -0.85265128E-13    0.26604692E-08

Total Energy:                     -193.2755107614 H        -5259.2942 eV
Extrapolated to 0K:               -193.2755107614 H        -5259.2942 eV
Total Mermin free energy:         -193.2755107614 H        -5259.2942 eV
Force related energy:             -193.2755107614 H        -5259.2942 eV

Volume:                              0.111897E+05 au^3   0.165815E+04 A^3
Pressure:                            0.269087E-07 au     0.791682E+06 Pa
>> Charges saved for restart in charges.bin

total energy  -1.9327551E+02 H       energy change -5.6864576E-07 H
gradient norm  7.0574344E-04 H/a0    max. gradient  2.6615111E-04 H/a0
step length    2.4636912E-03 a0      max. step      7.1474527E-04 a0

--------------------------------------------------------------------------------

***  Geometry step: 188

 iSCC Total electronic   Diff electronic      SCC error    
    1   -0.19518361E+03    0.00000000E+00    0.35074629E-03
    2   -0.19518358E+03    0.31137784E-04    0.13136856E-03
    3   -0.19518358E+03   -0.51570794E-07    0.32970873E-04
    4   -0.19518358E+03   -0.69530302E-08    0.27076111E-05
    5   -0.19518358E+03   -0.15276669E-09    0.65802738E-06
    6   -0.19518358E+03   -0.57411853E-11    0.20959013E-06
    7   -0.19518358E+03   -0.85265128E-13    0.40179573E-07
    8   -0.19518358E+03   -0.28421709E-13    0.42639314E-08

Total Energy:                     -193.2755123700 H        -5259.2943 eV
Extrapolated to 0K:               -193.2755123700 H        -5259.2943 eV
Total Mermin free energy:         -193.2755123700 H        -5259.2943 eV
Force related energy:             -193.2755123700 H        -5259.2943 eV

Volume:                              0.111895E+05 au^3   0.165812E+04 A^3
Pressure:                            0.251483E-07 au     0.739887E+06 Pa
>> Charges saved for restart in charges.bin

total energy  -1.9327551E+02 H       energy change -1.6086923E-06 H
gradient norm  8.9256705E-04 H/a0    max. gradient  3.6697274E-04 H/a0
step length    1.7139746E-02 a0      max. step      4.5135848E-03 a0

--------------------------------------------------------------------------------

***  Geometry step: 189

 iSCC Total electronic   Diff electronic      SCC error    
    1   -0.19518358E+03    0.00000000E+00    0.22654311E-03
    2   -0.19518359E+03   -0.72745203E-05    0.71634253E-04
    3   -0.19518359E+03   -0.38732850E-07    0.19974812E-04
    4   -0.19518359E+03   -0.46733248E-08    0.25775791E-05
    5   -0.19518359E+03   -0.79069196E-10    0.79201816E-06
    6   -0.19518359E+03   -0.41211479E-11    0.21242794E-06
    7   -0.19518359E+03    0.28421709E-13    0.23914114E-07
    8   -0.19518359E+03   -0.56843419E-13    0.29617673E-08

Total Energy:                     -193.2755133975 H        -5259.2943 eV
Extrapolated to 0K:               -193.2755133975 H        -5259.2943 eV
Total Mermin free energy:         -193.2755133975 H        -5259.2943 eV
Force related energy:             -193.2755133975 H        -5259.2943 eV

Volume:                              0.111894E+05 au^3   0.165809E+04 A^3
Pressure:                            0.367631E-07 au     0.108161E+07 Pa
>> Charges saved for restart in charges.bin

total energy  -1.9327551E+02 H       energy change -1.0274127E-06 H
gradient norm  8.3345556E-04 H/a0    max. gradient  3.0968658E-04 H/a0
step length    7.2858902E-03 a0      max. step      2.1583237E-03 a0

--------------------------------------------------------------------------------

***  Geometry step: 190

 iSCC Total electronic   Diff electronic      SCC error    
    1   -0.19518359E+03    0.00000000E+00    0.29733933E-03
    2   -0.19518353E+03    0.58284393E-04    0.10498172E-03
    3   -0.19518353E+03   -0.81361264E-07    0.37601026E-04
    4   -0.19518353E+03   -0.97126360E-08    0.33590381E-05
    5   -0.19518353E+03   -0.20207835E-09    0.41789615E-06
    6   -0.19518353E+03   -0.10885515E-10    0.11166485E-06
    7   -0.19518353E+03   -0.14210855E-12    0.22703373E-07
    8   -0.19518353E+03   -0.85265128E-13    0.65564731E-08

Total Energy:                     -193.2755146749 H        -5259.2943 eV
Extrapolated to 0K:               -193.2755146749 H        -5259.2943 eV
Total Mermin free energy:         -193.2755146749 H        -5259.2943 eV
Force related energy:             -193.2755146749 H        -5259.2943 eV

Volume:                              0.111897E+05 au^3   0.165814E+04 A^3
Pressure:                           -0.810044E-08 au    -0.238323E+06 Pa
>> Charges saved for restart in charges.bin

total energy  -1.9327551E+02 H       energy change -1.2774173E-06 H
gradient norm  6.9869493E-04 H/a0    max. gradient  1.6425538E-04 H/a0
step length    1.6862949E-02 a0      max. step      4.2179821E-03 a0

--------------------------------------------------------------------------------

***  Geometry step: 191

 iSCC Total electronic   Diff electronic      SCC error    
    1   -0.19518353E+03    0.00000000E+00    0.98575114E-04
    2   -0.19518350E+03    0.28149718E-04    0.56961676E-04
    3   -0.19518350E+03   -0.95835446E-08    0.14779296E-04
    4   -0.19518350E+03   -0.17336674E-08    0.20001229E-05
    5   -0.19518350E+03   -0.50846438E-10    0.33215199E-06
    6   -0.19518350E+03   -0.34106051E-11    0.13424665E-06
    7   -0.19518350E+03   -0.11368684E-12    0.32277351E-07
    8   -0.19518350E+03    0.11368684E-12    0.57442877E-08

Total Energy:                     -193.2755151846 H        -5259.2944 eV
Extrapolated to 0K:               -193.2755151846 H        -5259.2944 eV
Total Mermin free energy:         -193.2755151846 H        -5259.2944 eV
Force related energy:             -193.2755151846 H        -5259.2944 eV

Volume:                              0.111898E+05 au^3   0.165816E+04 A^3
Pressure:                           -0.173438E-07 au    -0.510271E+06 Pa
>> Charges saved for restart in charges.bin

total energy  -1.9327552E+02 H       energy change -5.0973807E-07 H
gradient norm  4.9402252E-04 H/a0    max. gradient  8.5926067E-05 H/a0
step length    1.8155748E-03 a0      max. step      3.4684401E-04 a0

Geometry converged

--------------------------------------------------------------------------------
DFTB+ running times                          cpu [s]             wall clock [s]
--------------------------------------------------------------------------------
Pre-SCC initialisation                 +       6.49 (  0.2%)       3.12 (  0.8%)
SCC                                    +    2594.97 ( 92.2%)     337.24 ( 90.3%)
Post-SCC processing                    +     213.28 (  7.6%)      33.27 (  8.9%)
--------------------------------------------------------------------------------
Missing                                +       0.17 (  0.0%)       0.01 (  0.0%)
Total                                  =    2814.91 (100.0%)     373.64 (100.0%)
--------------------------------------------------------------------------------
