|===============================================================================
|
|  DFTB+ release 24.1
|
|  Copyright (C) 2006 - 2024  DFTB+ developers group
|
|===============================================================================
|
|  When publishing results obtained with DFTB+, please cite the following
|  reference:
|
|  * DFTB+, a software package for efficient approximate density functional
|    theory based atomistic simulations, J. Chem. Phys. 152, 124101 (2020).
|    [doi: 10.1063/1.5143190]
|
|  You should also cite additional publications crediting the parametrization
|  data you use. Please consult the documentation of the SK-files for the
|  references.
|
|===============================================================================

Reading input file 'dftb_in.hsd'
Parser version: 14

--------------------------------------------------------------------------------
Reading SK-files:
./SKFiles/Si-Si.skf
./SKFiles/Si-Ge.skf
./SKFiles/Si-O.skf
./SKFiles/Ge-Ge.skf
./SKFiles/Ge-O.skf
./SKFiles/O-O.skf
Done.


Processed input in HSD format written to 'dftb_pin.hsd'

Starting initialization...
--------------------------------------------------------------------------------
WARNING!
-> Dipole printed for extended system : value printed is not well defined
MPI processes:               1
OpenMP threads:              8
BLACS orbital grid size:     1 x 1
BLACS atom grid size:        1 x 1
Chosen random seed:          150096846
Current stacksize:           unlimited
Mode:                        Static calculation
Self consistent charges:     Yes
SCC-tolerance:                 0.100000E-07
Max. scc iterations:                    500
Shell resolved Hubbard:      No
Spin polarisation:           No
Nr. of up electrons:           192.000000
Nr. of down electrons:         192.000000
Periodic boundaries:         Yes
Electronic solver:           Relatively robust
Mixer:                       Broyden mixer
Mixing parameter:                  0.200000
Maximal SCC-cycles:                     500
Nr. of chrg. vec. in memory:            500
Electronic temperature:              0.100000E-07 H      0.272114E-06 eV
Initial charges:             Set automatically (system chrg:   0.000E+00)
Included shells:            Si:  s, p, d
                            Ge:  s, p, d
                             O:  s, p
K-points and weights:           1:  0.500000  0.500000  0.500000     1.000000

K-points in absolute space:     1:  0.025319  0.017606  0.037774

Extra options:
                             Mulliken analysis
Force type                   original

--------------------------------------------------------------------------------

***  Geometry step: 0

 iSCC Total electronic   Diff electronic      SCC error    
    1    0.00000000E+00    0.00000000E+00    0.14262250E+01
    2   -0.19732415E+03   -0.19732415E+03    0.97906931E+00
    3   -0.19766708E+03   -0.34292830E+00    0.38700043E-01
    4   -0.19795573E+03   -0.28864563E+00    0.32628813E-01
    5   -0.19795737E+03   -0.16381365E-02    0.52889425E-02
    6   -0.19795748E+03   -0.11338221E-03    0.14645147E-02
    7   -0.19795748E+03   -0.35979849E-05    0.32323051E-03
    8   -0.19795748E+03   -0.62367334E-06    0.43397078E-04
    9   -0.19795748E+03   -0.40857657E-07    0.20066250E-04
   10   -0.19795748E+03   -0.24348878E-09    0.42547155E-05
   11   -0.19795748E+03   -0.87936769E-10    0.37375555E-06
   12   -0.19795748E+03   -0.48885340E-11    0.13472016E-06
   13   -0.19795748E+03   -0.56843419E-13    0.22735636E-07
   14   -0.19795748E+03   -0.28421709E-13    0.66504349E-08

Total Energy:                     -190.4253447279 H        -5181.7373 eV
Extrapolated to 0K:               -190.4253447279 H        -5181.7373 eV
Total Mermin free energy:         -190.4253447279 H        -5181.7373 eV
Force related energy:             -190.4253447279 H        -5181.7373 eV

Volume:                              0.913789E+04 au^3   0.135410E+04 A^3
Pressure:                            0.249385E-02 au     0.733715E+11 Pa
>> Charges saved for restart in charges.bin

total energy  -1.9042534E+02 H       energy change -1.9042534E+02 H
gradient norm  2.2465116E+00 H/a0    max. gradient  1.3914024E+00 H/a0
step length    0.0000000E+00 a0      max. step      0.0000000E+00 a0

--------------------------------------------------------------------------------

***  Geometry step: 1

 iSCC Total electronic   Diff electronic      SCC error    
    1   -0.19795748E+03    0.00000000E+00    0.13622891E+00
    2   -0.19728431E+03    0.67317771E+00    0.62998172E-01
    3   -0.19730044E+03   -0.16136030E-01    0.20275865E-01
    4   -0.19730337E+03   -0.29245356E-02    0.22216433E-02
    5   -0.19730344E+03   -0.73665771E-04    0.76645456E-03
    6   -0.19730344E+03   -0.44293940E-05    0.24375863E-03
    7   -0.19730344E+03   -0.15713923E-06    0.37463327E-04
    8   -0.19730344E+03   -0.18000975E-07    0.84953736E-05
    9   -0.19730344E+03   -0.10464305E-08    0.32509694E-05
   10   -0.19730344E+03   -0.18303581E-10    0.85833569E-06
   11   -0.19730344E+03   -0.76738615E-12    0.12318703E-06
   12   -0.19730344E+03   -0.22737368E-12    0.27449301E-07
   13   -0.19730344E+03   -0.56843419E-13    0.35663863E-08

Total Energy:                     -191.1443503855 H        -5201.3024 eV
Extrapolated to 0K:               -191.1443503855 H        -5201.3024 eV
Total Mermin free energy:         -191.1443503855 H        -5201.3024 eV
Force related energy:             -191.1443503855 H        -5201.3024 eV

Volume:                              0.969248E+04 au^3   0.143628E+04 A^3
Pressure:                            0.178377E-02 au     0.524804E+11 Pa
>> Charges saved for restart in charges.bin

total energy  -1.9114435E+02 H       energy change -7.1900566E-01 H
gradient norm  1.4750726E+00 H/a0    max. gradient  2.5846130E-01 H/a0
step length    8.0190145E-01 a0      max. step      4.9666674E-01 a0

--------------------------------------------------------------------------------

***  Geometry step: 2

 iSCC Total electronic   Diff electronic      SCC error    
    1   -0.19730344E+03    0.00000000E+00    0.52742775E-01
    2   -0.19694568E+03    0.35776054E+00    0.25990164E-01
    3   -0.19694923E+03   -0.35477475E-02    0.59998904E-02
    4   -0.19694995E+03   -0.71401436E-03    0.10299083E-02
    5   -0.19694997E+03   -0.19672746E-04    0.23284598E-03
    6   -0.19694997E+03   -0.11426945E-05    0.12291391E-03
    7   -0.19694997E+03   -0.20758392E-07    0.25613618E-04
    8   -0.19694997E+03   -0.23465248E-08    0.55660263E-05
    9   -0.19694997E+03   -0.20901325E-09    0.18204752E-05
   10   -0.19694997E+03   -0.26716407E-11    0.46736879E-06
   11   -0.19694997E+03   -0.17053026E-12    0.77021663E-07
   12   -0.19694997E+03   -0.56843419E-13    0.99263953E-08

Total Energy:                     -191.9481669977 H        -5223.1754 eV
Extrapolated to 0K:               -191.9481669977 H        -5223.1754 eV
Total Mermin free energy:         -191.9481669977 H        -5223.1754 eV
Force related energy:             -191.9481669977 H        -5223.1754 eV

Volume:                              0.984974E+04 au^3   0.145958E+04 A^3
Pressure:                            0.130849E-02 au     0.384972E+11 Pa
>> Charges saved for restart in charges.bin

total energy  -1.9194817E+02 H       energy change -8.0381661E-01 H
gradient norm  9.4233117E-01 H/a0    max. gradient  1.7543330E-01 H/a0
step length    7.5259415E-01 a0      max. step      1.3735813E-01 a0

--------------------------------------------------------------------------------

***  Geometry step: 3

 iSCC Total electronic   Diff electronic      SCC error    
    1   -0.19694997E+03    0.00000000E+00    0.70674207E-01
    2   -0.19657119E+03    0.37877230E+00    0.30041287E-01
    3   -0.19657561E+03   -0.44175797E-02    0.10390652E-01
    4   -0.19657635E+03   -0.74267172E-03    0.10026520E-02
    5   -0.19657639E+03   -0.35703200E-04    0.26414743E-03
    6   -0.19657639E+03   -0.16606854E-05    0.11827614E-03
    7   -0.19657639E+03   -0.31536587E-07    0.25887192E-04
    8   -0.19657639E+03   -0.31731417E-08    0.79484889E-05
    9   -0.19657639E+03   -0.38207304E-09    0.22886201E-05
   10   -0.19657639E+03   -0.11169732E-10    0.59993312E-06
   11   -0.19657639E+03   -0.48316906E-12    0.12828470E-06
   12   -0.19657639E+03   -0.56843419E-13    0.16577372E-07
   13   -0.19657639E+03    0.56843419E-13    0.29360923E-08

Total Energy:                     -192.4911878148 H        -5237.9517 eV
Extrapolated to 0K:               -192.4911878148 H        -5237.9517 eV
Total Mermin free energy:         -192.4911878148 H        -5237.9517 eV
Force related energy:             -192.4911878148 H        -5237.9517 eV

Volume:                              0.997767E+04 au^3   0.147854E+04 A^3
Pressure:                            0.938276E-03 au     0.276050E+11 Pa
>> Charges saved for restart in charges.bin

total energy  -1.9249119E+02 H       energy change -5.4302082E-01 H
gradient norm  5.8747346E-01 H/a0    max. gradient  1.3073589E-01 H/a0
step length    7.8227069E-01 a0      max. step      1.6319563E-01 a0

--------------------------------------------------------------------------------

***  Geometry step: 4

 iSCC Total electronic   Diff electronic      SCC error    
    1   -0.19657639E+03    0.00000000E+00    0.59106031E-01
    2   -0.19618155E+03    0.39484378E+00    0.35384397E-01
    3   -0.19618409E+03   -0.25417344E-02    0.64830573E-02
    4   -0.19618467E+03   -0.58424523E-03    0.11814197E-02
    5   -0.19618471E+03   -0.33614953E-04    0.40035410E-03
    6   -0.19618471E+03   -0.15979354E-05    0.14238979E-03
    7   -0.19618471E+03   -0.29786719E-07    0.46985217E-04
    8   -0.19618471E+03   -0.23104008E-08    0.11376540E-04
    9   -0.19618471E+03   -0.35004177E-09    0.26183163E-05
   10   -0.19618471E+03   -0.92086339E-11    0.35494243E-06
   11   -0.19618471E+03   -0.79580786E-12    0.92061162E-07
   12   -0.19618471E+03    0.00000000E+00    0.22436928E-07
   13   -0.19618471E+03   -0.28421709E-13    0.39452490E-08

Total Energy:                     -192.8049573442 H        -5246.4898 eV
Extrapolated to 0K:               -192.8049573442 H        -5246.4898 eV
Total Mermin free energy:         -192.8049573442 H        -5246.4898 eV
Force related energy:             -192.8049573442 H        -5246.4898 eV

Volume:                              0.101114E+05 au^3   0.149836E+04 A^3
Pressure:                            0.652630E-03 au     0.192010E+11 Pa
>> Charges saved for restart in charges.bin

total energy  -1.9280496E+02 H       energy change -3.1376953E-01 H
gradient norm  4.4587448E-01 H/a0    max. gradient  2.2698953E-01 H/a0
step length    7.3587958E-01 a0      max. step      1.3008490E-01 a0

--------------------------------------------------------------------------------

***  Geometry step: 5

 iSCC Total electronic   Diff electronic      SCC error    
    1   -0.19618471E+03    0.00000000E+00    0.63320022E-01
    2   -0.19573584E+03    0.44887060E+00    0.38871223E-01
    3   -0.19573774E+03   -0.18967744E-02    0.76236690E-02
    4   -0.19573820E+03   -0.46656209E-03    0.15479585E-02
    5   -0.19573823E+03   -0.28869238E-04    0.40744821E-03
    6   -0.19573823E+03   -0.86449896E-06    0.14953811E-03
    7   -0.19573823E+03   -0.15256575E-07    0.46442299E-04
    8   -0.19573823E+03   -0.17024320E-08    0.97751541E-05
    9   -0.19573823E+03   -0.19286972E-09    0.20216532E-05
   10   -0.19573823E+03   -0.83559826E-11    0.21921483E-06
   11   -0.19573823E+03   -0.85265128E-12    0.50981218E-07
   12   -0.19573823E+03    0.28421709E-13    0.21710608E-07
   13   -0.19573823E+03    0.28421709E-13    0.65361649E-08

Total Energy:                     -192.9919391346 H        -5251.5779 eV
Extrapolated to 0K:               -192.9919391346 H        -5251.5779 eV
Total Mermin free energy:         -192.9919391346 H        -5251.5779 eV
Force related energy:             -192.9919391346 H        -5251.5779 eV

Volume:                              0.103198E+05 au^3   0.152924E+04 A^3
Pressure:                            0.393003E-03 au     0.115626E+11 Pa
>> Charges saved for restart in charges.bin

total energy  -1.9299194E+02 H       energy change -1.8698179E-01 H
gradient norm  3.1960772E-01 H/a0    max. gradient  1.6010784E-01 H/a0
step length    7.0613681E-01 a0      max. step      2.3716306E-01 a0

--------------------------------------------------------------------------------

***  Geometry step: 6

 iSCC Total electronic   Diff electronic      SCC error    
    1   -0.19573823E+03    0.00000000E+00    0.47405529E-01
    2   -0.19540692E+03    0.33131432E+00    0.26268116E-01
    3   -0.19540842E+03   -0.15073922E-02    0.41409911E-02
    4   -0.19540875E+03   -0.32924848E-03    0.79723578E-03
    5   -0.19540877E+03   -0.14409540E-04    0.25200905E-03
    6   -0.19540877E+03   -0.64836041E-06    0.10598540E-03
    7   -0.19540877E+03   -0.83377927E-08    0.26597675E-04
    8   -0.19540877E+03   -0.69164230E-09    0.51758969E-05
    9   -0.19540877E+03   -0.12136070E-09    0.11888313E-05
   10   -0.19540877E+03   -0.37232439E-11    0.15826464E-06
   11   -0.19540877E+03   -0.22737368E-12    0.31856579E-07
   12   -0.19540877E+03    0.00000000E+00    0.10887169E-07
   13   -0.19540877E+03   -0.28421709E-13    0.30800815E-08

Total Energy:                     -193.0802487382 H        -5253.9809 eV
Extrapolated to 0K:               -193.0802487382 H        -5253.9809 eV
Total Mermin free energy:         -193.0802487382 H        -5253.9809 eV
Force related energy:             -193.0802487382 H        -5253.9809 eV

Volume:                              0.104670E+05 au^3   0.155105E+04 A^3
Pressure:                            0.222226E-03 au     0.653811E+10 Pa
>> Charges saved for restart in charges.bin

total energy  -1.9308025E+02 H       energy change -8.8309604E-02 H
gradient norm  1.9112726E-01 H/a0    max. gradient  9.4162713E-02 H/a0
step length    5.7966922E-01 a0      max. step      1.1415685E-01 a0

--------------------------------------------------------------------------------

***  Geometry step: 7

 iSCC Total electronic   Diff electronic      SCC error    
    1   -0.19540877E+03    0.00000000E+00    0.39864739E-01
    2   -0.19521617E+03    0.19260361E+00    0.19393117E-01
    3   -0.19521708E+03   -0.91524193E-03    0.34773151E-02
    4   -0.19521725E+03   -0.17340601E-03    0.45271507E-03
    5   -0.19521726E+03   -0.51616603E-05    0.20894037E-03
    6   -0.19521726E+03   -0.26503002E-06    0.72721678E-04
    7   -0.19521726E+03   -0.65764141E-08    0.17422066E-04
    8   -0.19521726E+03   -0.36359893E-09    0.29160902E-05
    9   -0.19521726E+03   -0.57980287E-10    0.85107612E-06
   10   -0.19521726E+03   -0.31548097E-11    0.97123727E-07
   11   -0.19521726E+03   -0.14210855E-12    0.20672128E-07
   12   -0.19521726E+03    0.00000000E+00    0.44696407E-08

Total Energy:                     -193.1176501136 H        -5254.9986 eV
Extrapolated to 0K:               -193.1176501136 H        -5254.9986 eV
Total Mermin free energy:         -193.1176501136 H        -5254.9986 eV
Force related energy:             -193.1176501136 H        -5254.9986 eV

Volume:                              0.105491E+05 au^3   0.156322E+04 A^3
Pressure:                            0.133927E-03 au     0.394027E+10 Pa
>> Charges saved for restart in charges.bin

total energy  -1.9311765E+02 H       energy change -3.7401375E-02 H
gradient norm  1.4140576E-01 H/a0    max. gradient  5.6894257E-02 H/a0
step length    4.4223957E-01 a0      max. step      7.9418465E-02 a0

--------------------------------------------------------------------------------

***  Geometry step: 8

 iSCC Total electronic   Diff electronic      SCC error    
    1   -0.19521726E+03    0.00000000E+00    0.18254273E-01
    2   -0.19510785E+03    0.10941048E+00    0.90889904E-02
    3   -0.19510813E+03   -0.28181263E-03    0.16232319E-02
    4   -0.19510818E+03   -0.51406963E-04    0.29260107E-03
    5   -0.19510818E+03   -0.17527300E-05    0.94196458E-04
    6   -0.19510818E+03   -0.76228247E-07    0.28971748E-04
    7   -0.19510818E+03   -0.44415458E-08    0.94807475E-05
    8   -0.19510818E+03   -0.17050183E-09    0.25077253E-05
    9   -0.19510818E+03   -0.13272938E-10    0.58343247E-06
   10   -0.19510818E+03   -0.13926638E-11    0.73572078E-07
   11   -0.19510818E+03   -0.14210855E-12    0.14269408E-07
   12   -0.19510818E+03    0.28421709E-13    0.29421550E-08

Total Energy:                     -193.1397364776 H        -5255.5996 eV
Extrapolated to 0K:               -193.1397364776 H        -5255.5996 eV
Total Mermin free energy:         -193.1397364776 H        -5255.5996 eV
Force related energy:             -193.1397364776 H        -5255.5996 eV

Volume:                              0.106094E+05 au^3   0.157216E+04 A^3
Pressure:                            0.787413E-04 au     0.231665E+10 Pa
>> Charges saved for restart in charges.bin

total energy  -1.9313974E+02 H       energy change -2.2086364E-02 H
gradient norm  1.1113982E-01 H/a0    max. gradient  2.4031960E-02 H/a0
step length    3.5634703E-01 a0      max. step      7.4906582E-02 a0

--------------------------------------------------------------------------------

***  Geometry step: 9

 iSCC Total electronic   Diff electronic      SCC error    
    1   -0.19510818E+03    0.00000000E+00    0.20158999E-01
    2   -0.19509293E+03    0.15250325E-01    0.11887591E-01
    3   -0.19509327E+03   -0.33382693E-03    0.33624660E-02
    4   -0.19509332E+03   -0.53926661E-04    0.40470833E-03
    5   -0.19509332E+03   -0.19294138E-05    0.10946002E-03
    6   -0.19509332E+03   -0.22584146E-06    0.36471314E-04
    7   -0.19509332E+03   -0.34646916E-08    0.95867670E-05
    8   -0.19509332E+03   -0.95297992E-10    0.17198035E-05
    9   -0.19509332E+03   -0.12050805E-10    0.27376903E-06
   10   -0.19509332E+03   -0.10800250E-11    0.72381666E-07
   11   -0.19509332E+03    0.28421709E-13    0.14409799E-07
   12   -0.19509332E+03    0.28421709E-13    0.20845770E-08

Total Energy:                     -193.1595777079 H        -5256.1395 eV
Extrapolated to 0K:               -193.1595777079 H        -5256.1395 eV
Total Mermin free energy:         -193.1595777079 H        -5256.1395 eV
Force related energy:             -193.1595777079 H        -5256.1395 eV

Volume:                              0.106311E+05 au^3   0.157536E+04 A^3
Pressure:                            0.595141E-04 au     0.175097E+10 Pa
>> Charges saved for restart in charges.bin

total energy  -1.9315958E+02 H       energy change -1.9841230E-02 H
gradient norm  9.6857471E-02 H/a0    max. gradient  2.0068099E-02 H/a0
step length    3.5503720E-01 a0      max. step      7.5927432E-02 a0

--------------------------------------------------------------------------------

***  Geometry step: 10

 iSCC Total electronic   Diff electronic      SCC error    
    1   -0.19509332E+03    0.00000000E+00    0.29667624E-01
    2   -0.19513252E+03   -0.39195763E-01    0.17364916E-01
    3   -0.19513307E+03   -0.55009868E-03    0.28768458E-02
    4   -0.19513319E+03   -0.11601078E-03    0.54674224E-03
    5   -0.19513319E+03   -0.64056242E-05    0.22105102E-03
    6   -0.19513319E+03   -0.16344814E-06    0.74294354E-04
    7   -0.19513319E+03   -0.47369895E-08    0.11713785E-04
    8   -0.19513319E+03   -0.25468694E-09    0.23228370E-05
    9   -0.19513319E+03   -0.24527935E-10    0.46397661E-06
   10   -0.19513319E+03   -0.20179414E-11    0.81978883E-07
   11   -0.19513319E+03   -0.85265128E-13    0.11405096E-07
   12   -0.19513319E+03    0.00000000E+00    0.27699767E-08

Total Energy:                     -193.1789173020 H        -5256.6658 eV
Extrapolated to 0K:               -193.1789173020 H        -5256.6658 eV
Total Mermin free energy:         -193.1789173020 H        -5256.6658 eV
Force related energy:             -193.1789173020 H        -5256.6658 eV

Volume:                              0.106463E+05 au^3   0.157761E+04 A^3
Pressure:                            0.642261E-04 au     0.188960E+10 Pa
>> Charges saved for restart in charges.bin

total energy  -1.9317892E+02 H       energy change -1.9339594E-02 H
gradient norm  1.0008682E-01 H/a0    max. gradient  4.2834210E-02 H/a0
step length    4.3145295E-01 a0      max. step      7.7958859E-02 a0

--------------------------------------------------------------------------------

***  Geometry step: 11

 iSCC Total electronic   Diff electronic      SCC error    
    1   -0.19513319E+03    0.00000000E+00    0.21297103E-01
    2   -0.19518307E+03   -0.49879616E-01    0.13082199E-01
    3   -0.19518355E+03   -0.47543623E-03    0.31437321E-02
    4   -0.19518365E+03   -0.10019258E-03    0.82205722E-03
    5   -0.19518365E+03   -0.48599335E-05    0.28392069E-03
    6   -0.19518365E+03   -0.27775420E-06    0.84529365E-04
    7   -0.19518365E+03   -0.73881665E-08    0.13169623E-04
    8   -0.19518365E+03   -0.33807623E-09    0.18139059E-05
    9   -0.19518365E+03   -0.37005066E-10    0.25219041E-06
   10   -0.19518365E+03   -0.28705927E-11    0.69323091E-07
   11   -0.19518365E+03   -0.85265128E-13    0.11043418E-07
   12   -0.19518365E+03    0.00000000E+00    0.23317743E-08

Total Energy:                     -193.1908349660 H        -5256.9901 eV
Extrapolated to 0K:               -193.1908349660 H        -5256.9901 eV
Total Mermin free energy:         -193.1908349660 H        -5256.9901 eV
Force related energy:             -193.1908349660 H        -5256.9901 eV

Volume:                              0.106530E+05 au^3   0.157861E+04 A^3
Pressure:                            0.749422E-04 au     0.220488E+10 Pa
>> Charges saved for restart in charges.bin

total energy  -1.9319083E+02 H       energy change -1.1917664E-02 H
gradient norm  8.9201467E-02 H/a0    max. gradient  2.5810892E-02 H/a0
step length    3.3564999E-01 a0      max. step      4.8673865E-02 a0

--------------------------------------------------------------------------------

***  Geometry step: 12

 iSCC Total electronic   Diff electronic      SCC error    
    1   -0.19518365E+03    0.00000000E+00    0.20048221E-01
    2   -0.19520997E+03   -0.26313798E-01    0.11714999E-01
    3   -0.19521012E+03   -0.15438162E-03    0.22853841E-02
    4   -0.19521016E+03   -0.41689241E-04    0.63039097E-03
    5   -0.19521016E+03   -0.21436371E-05    0.23256564E-03
    6   -0.19521016E+03   -0.38303767E-07    0.45858128E-04
    7   -0.19521016E+03   -0.17575417E-08    0.45383413E-05
    8   -0.19521016E+03   -0.18758328E-09    0.76598578E-06
    9   -0.19521016E+03   -0.94075858E-11    0.21471794E-06
   10   -0.19521016E+03   -0.51159077E-12    0.29834807E-07
   11   -0.19521016E+03    0.11368684E-12    0.28878704E-08

Total Energy:                     -193.2009004254 H        -5257.2640 eV
Extrapolated to 0K:               -193.2009004254 H        -5257.2640 eV
Total Mermin free energy:         -193.2009004254 H        -5257.2640 eV
Force related energy:             -193.2009004254 H        -5257.2640 eV

Volume:                              0.106746E+05 au^3   0.158181E+04 A^3
Pressure:                            0.757543E-04 au     0.222877E+10 Pa
>> Charges saved for restart in charges.bin

total energy  -1.9320090E+02 H       energy change -1.0065459E-02 H
gradient norm  7.3599449E-02 H/a0    max. gradient  1.6737487E-02 H/a0
step length    2.8846305E-01 a0      max. step      4.6721225E-02 a0

--------------------------------------------------------------------------------

***  Geometry step: 13

 iSCC Total electronic   Diff electronic      SCC error    
    1   -0.19521016E+03    0.00000000E+00    0.23728038E-01
    2   -0.19522155E+03   -0.11389278E-01    0.13572028E-01
    3   -0.19522171E+03   -0.15840266E-03    0.25335054E-02
    4   -0.19522176E+03   -0.44567140E-04    0.68958148E-03
    5   -0.19522176E+03   -0.22378514E-05    0.20764451E-03
    6   -0.19522176E+03   -0.49049163E-07    0.46460611E-04
    7   -0.19522176E+03   -0.14469208E-08    0.38326601E-05
    8   -0.19522176E+03   -0.20278890E-09    0.79447335E-06
    9   -0.19522176E+03   -0.10601298E-10    0.12678417E-06
   10   -0.19522176E+03   -0.19895197E-12    0.13697464E-07
   11   -0.19522176E+03   -0.28421709E-13    0.44445612E-08

Total Energy:                     -193.2112320300 H        -5257.5451 eV
Extrapolated to 0K:               -193.2112320300 H        -5257.5451 eV
Total Mermin free energy:         -193.2112320300 H        -5257.5451 eV
Force related energy:             -193.2112320300 H        -5257.5451 eV

Volume:                              0.107160E+05 au^3   0.158795E+04 A^3
Pressure:                            0.717341E-04 au     0.211049E+10 Pa
>> Charges saved for restart in charges.bin

total energy  -1.9321123E+02 H       energy change -1.0331605E-02 H
gradient norm  6.4784299E-02 H/a0    max. gradient  1.3887034E-02 H/a0
step length    3.2697291E-01 a0      max. step      5.8150393E-02 a0

--------------------------------------------------------------------------------

***  Geometry step: 14

 iSCC Total electronic   Diff electronic      SCC error    
    1   -0.19522176E+03    0.00000000E+00    0.16444354E-01
    2   -0.19520082E+03    0.20941264E-01    0.93440603E-02
    3   -0.19520092E+03   -0.99387139E-04    0.20083092E-02
    4   -0.19520094E+03   -0.25992829E-04    0.47327699E-03
    5   -0.19520094E+03   -0.12179148E-05    0.17975989E-03
    6   -0.19520094E+03   -0.42151811E-07    0.43749814E-04
    7   -0.19520094E+03   -0.10982433E-08    0.48218847E-05
    8   -0.19520094E+03   -0.14878765E-09    0.65517980E-06
    9   -0.19520094E+03   -0.82422957E-11    0.16233982E-06
   10   -0.19520094E+03   -0.39790393E-12    0.30152350E-07
   11   -0.19520094E+03   -0.85265128E-13    0.48883555E-08

Total Energy:                     -193.2180467034 H        -5257.7306 eV
Extrapolated to 0K:               -193.2180467034 H        -5257.7306 eV
Total Mermin free energy:         -193.2180467034 H        -5257.7306 eV
Force related energy:             -193.2180467034 H        -5257.7306 eV

Volume:                              0.107698E+05 au^3   0.159592E+04 A^3
Pressure:                            0.573851E-04 au     0.168833E+10 Pa
>> Charges saved for restart in charges.bin

total energy  -1.9321805E+02 H       energy change -6.8146734E-03 H
gradient norm  5.8467090E-02 H/a0    max. gradient  1.1867874E-02 H/a0
step length    2.7514314E-01 a0      max. step      4.8165050E-02 a0

--------------------------------------------------------------------------------

***  Geometry step: 15

 iSCC Total electronic   Diff electronic      SCC error    
    1   -0.19520094E+03    0.00000000E+00    0.96061826E-02
    2   -0.19517157E+03    0.29376428E-01    0.55766141E-02
    3   -0.19517162E+03   -0.49238488E-04    0.14501722E-02
    4   -0.19517163E+03   -0.10832305E-04    0.33068135E-03
    5   -0.19517163E+03   -0.54808757E-06    0.12849408E-03
    6   -0.19517163E+03   -0.28479775E-07    0.35192859E-04
    7   -0.19517163E+03   -0.62422600E-09    0.37201536E-05
    8   -0.19517163E+03   -0.77989171E-10    0.51187555E-06
    9   -0.19517163E+03   -0.39221959E-11    0.16367302E-06
   10   -0.19517163E+03   -0.22737368E-12    0.22248590E-07
   11   -0.19517163E+03    0.00000000E+00    0.29153431E-08

Total Energy:                     -193.2227496615 H        -5257.8585 eV
Extrapolated to 0K:               -193.2227496615 H        -5257.8585 eV
Total Mermin free energy:         -193.2227496615 H        -5257.8585 eV
Force related energy:             -193.2227496615 H        -5257.8585 eV

Volume:                              0.108215E+05 au^3   0.160358E+04 A^3
Pressure:                            0.406691E-04 au     0.119653E+10 Pa
>> Charges saved for restart in charges.bin

total energy  -1.9322275E+02 H       energy change -4.7029581E-03 H
gradient norm  5.0616615E-02 H/a0    max. gradient  8.7005643E-03 H/a0
step length    2.4404109E-01 a0      max. step      4.7399454E-02 a0

--------------------------------------------------------------------------------

***  Geometry step: 16

 iSCC Total electronic   Diff electronic      SCC error    
    1   -0.19517163E+03    0.00000000E+00    0.70076979E-02
    2   -0.19514608E+03    0.25545299E-01    0.38706201E-02
    3   -0.19514612E+03   -0.38022655E-04    0.11230351E-02
    4   -0.19514613E+03   -0.69490537E-05    0.27818328E-03
    5   -0.19514613E+03   -0.26018549E-06    0.92224317E-04
    6   -0.19514613E+03   -0.22491889E-07    0.25831673E-04
    7   -0.19514613E+03   -0.59466743E-09    0.35627815E-05
    8   -0.19514613E+03   -0.39932502E-10    0.46169086E-06
    9   -0.19514613E+03   -0.23874236E-11    0.15504077E-06
   10   -0.19514613E+03   -0.22737368E-12    0.23847352E-07
   11   -0.19514613E+03   -0.85265128E-13    0.31885490E-08

Total Energy:                     -193.2270435923 H        -5257.9754 eV
Extrapolated to 0K:               -193.2270435923 H        -5257.9754 eV
Total Mermin free energy:         -193.2270435923 H        -5257.9754 eV
Force related energy:             -193.2270435923 H        -5257.9754 eV

Volume:                              0.108697E+05 au^3   0.161073E+04 A^3
Pressure:                            0.250298E-04 au     0.736401E+09 Pa
>> Charges saved for restart in charges.bin

total energy  -1.9322704E+02 H       energy change -4.2939308E-03 H
gradient norm  4.8236752E-02 H/a0    max. gradient  8.7732416E-03 H/a0
step length    2.3487207E-01 a0      max. step      4.5773053E-02 a0

--------------------------------------------------------------------------------

***  Geometry step: 17

 iSCC Total electronic   Diff electronic      SCC error    
    1   -0.19514613E+03    0.00000000E+00    0.97780052E-02
    2   -0.19514186E+03    0.42699726E-02    0.56243735E-02
    3   -0.19514191E+03   -0.46480995E-04    0.14156378E-02
    4   -0.19514191E+03   -0.73443242E-05    0.15715585E-03
    5   -0.19514191E+03   -0.39884301E-06    0.52647572E-04
    6   -0.19514191E+03   -0.22288248E-07    0.17964642E-04
    7   -0.19514191E+03   -0.54066618E-09    0.31671088E-05
    8   -0.19514191E+03   -0.29388048E-10    0.81171187E-06
    9   -0.19514191E+03   -0.20463631E-11    0.17090909E-06
   10   -0.19514191E+03   -0.19895197E-12    0.30498160E-07
   11   -0.19514191E+03   -0.28421709E-13    0.26829055E-08

Total Energy:                     -193.2316256865 H        -5258.1001 eV
Extrapolated to 0K:               -193.2316256865 H        -5258.1001 eV
Total Mermin free energy:         -193.2316256865 H        -5258.1001 eV
Force related energy:             -193.2316256865 H        -5258.1001 eV

Volume:                              0.109086E+05 au^3   0.161649E+04 A^3
Pressure:                            0.187308E-04 au     0.551079E+09 Pa
>> Charges saved for restart in charges.bin

total energy  -1.9323163E+02 H       energy change -4.5820942E-03 H
gradient norm  5.3241221E-02 H/a0    max. gradient  1.1986502E-02 H/a0
step length    2.5259058E-01 a0      max. step      4.6271894E-02 a0

--------------------------------------------------------------------------------

***  Geometry step: 18

 iSCC Total electronic   Diff electronic      SCC error    
    1   -0.19514191E+03    0.00000000E+00    0.14933875E-01
    2   -0.19515359E+03   -0.11677463E-01    0.86885026E-02
    3   -0.19515368E+03   -0.89073338E-04    0.23106877E-02
    4   -0.19515369E+03   -0.12974734E-04    0.21270126E-03
    5   -0.19515369E+03   -0.77815739E-06    0.67858666E-04
    6   -0.19515369E+03   -0.36651812E-07    0.24045279E-04
    7   -0.19515369E+03   -0.82670226E-09    0.53181419E-05
    8   -0.19515369E+03   -0.39733550E-10    0.16884610E-05
    9   -0.19515369E+03   -0.24442670E-11    0.36096377E-06
   10   -0.19515369E+03   -0.22737368E-12    0.38429470E-07
   11   -0.19515369E+03   -0.28421709E-13    0.47766671E-08

Total Energy:                     -193.2368990888 H        -5258.2436 eV
Extrapolated to 0K:               -193.2368990888 H        -5258.2436 eV
Total Mermin free energy:         -193.2368990888 H        -5258.2436 eV
Force related energy:             -193.2368990888 H        -5258.2436 eV

Volume:                              0.109460E+05 au^3   0.162203E+04 A^3
Pressure:                            0.195320E-04 au     0.574652E+09 Pa
>> Charges saved for restart in charges.bin

total energy  -1.9323690E+02 H       energy change -5.2734023E-03 H
gradient norm  5.4198070E-02 H/a0    max. gradient  1.0896975E-02 H/a0
step length    3.0740289E-01 a0      max. step      5.2774086E-02 a0

--------------------------------------------------------------------------------

***  Geometry step: 19

 iSCC Total electronic   Diff electronic      SCC error    
    1   -0.19515369E+03    0.00000000E+00    0.13174655E-01
    2   -0.19517192E+03   -0.18231650E-01    0.76664648E-02
    3   -0.19517205E+03   -0.12910754E-03    0.24015952E-02
    4   -0.19517207E+03   -0.16951590E-04    0.25898640E-03
    5   -0.19517207E+03   -0.83303979E-06    0.68303344E-04
    6   -0.19517207E+03   -0.53634807E-07    0.26135637E-04
    7   -0.19517207E+03   -0.12894361E-08    0.58902440E-05
    8   -0.19517207E+03   -0.51443294E-10    0.14456418E-05
    9   -0.19517207E+03   -0.38653525E-11    0.28640677E-06
   10   -0.19517207E+03   -0.48316906E-12    0.30427326E-07
   11   -0.19517207E+03    0.28421709E-13    0.63786816E-08

Total Energy:                     -193.2417623018 H        -5258.3759 eV
Extrapolated to 0K:               -193.2417623018 H        -5258.3759 eV
Total Mermin free energy:         -193.2417623018 H        -5258.3759 eV
Force related energy:             -193.2417623018 H        -5258.3759 eV

Volume:                              0.109808E+05 au^3   0.162719E+04 A^3
Pressure:                            0.232484E-04 au     0.683992E+09 Pa
>> Charges saved for restart in charges.bin

total energy  -1.9324176E+02 H       energy change -4.8632130E-03 H
gradient norm  4.9987492E-02 H/a0    max. gradient  9.9869045E-03 H/a0
step length    3.2552865E-01 a0      max. step      5.7630115E-02 a0

--------------------------------------------------------------------------------

***  Geometry step: 20

 iSCC Total electronic   Diff electronic      SCC error    
    1   -0.19517207E+03    0.00000000E+00    0.11550416E-01
    2   -0.19518612E+03   -0.14045231E-01    0.51859055E-02
    3   -0.19518625E+03   -0.13384774E-03    0.17728316E-02
    4   -0.19518627E+03   -0.15379847E-04    0.33524836E-03
    5   -0.19518627E+03   -0.66538735E-06    0.93813695E-04
    6   -0.19518627E+03   -0.46191246E-07    0.32765691E-04
    7   -0.19518627E+03   -0.12489068E-08    0.66717269E-05
    8   -0.19518627E+03   -0.56047611E-10    0.14432604E-05
    9   -0.19518627E+03   -0.46895821E-11    0.29784223E-06
   10   -0.19518627E+03   -0.34106051E-12    0.32840221E-07
   11   -0.19518627E+03   -0.85265128E-13    0.52916320E-08

Total Energy:                     -193.2461966519 H        -5258.4966 eV
Extrapolated to 0K:               -193.2461966519 H        -5258.4966 eV
Total Mermin free energy:         -193.2461966519 H        -5258.4966 eV
Force related energy:             -193.2461966519 H        -5258.4966 eV

Volume:                              0.110184E+05 au^3   0.163276E+04 A^3
Pressure:                            0.255431E-04 au     0.751503E+09 Pa
>> Charges saved for restart in charges.bin

total energy  -1.9324620E+02 H       energy change -4.4343501E-03 H
gradient norm  4.2740247E-02 H/a0    max. gradient  1.0426339E-02 H/a0
step length    3.2911323E-01 a0      max. step      5.8846779E-02 a0

--------------------------------------------------------------------------------

***  Geometry step: 21

 iSCC Total electronic   Diff electronic      SCC error    
    1   -0.19518627E+03    0.00000000E+00    0.93462664E-02
    2   -0.19519139E+03   -0.51233386E-02    0.51119354E-02
    3   -0.19519152E+03   -0.12470550E-03    0.18920763E-02
    4   -0.19519153E+03   -0.14823102E-04    0.39467953E-03
    5   -0.19519153E+03   -0.65182206E-06    0.10846182E-03
    6   -0.19519153E+03   -0.41864951E-07    0.35300088E-04
    7   -0.19519153E+03   -0.10774102E-08    0.64106639E-05
    8   -0.19519153E+03   -0.64119376E-10    0.12474435E-05
    9   -0.19519153E+03   -0.53148597E-11    0.23561609E-06
   10   -0.19519153E+03   -0.42632564E-12    0.30108589E-07
   11   -0.19519153E+03   -0.56843419E-13    0.55271014E-08

Total Energy:                     -193.2499104268 H        -5258.5976 eV
Extrapolated to 0K:               -193.2499104268 H        -5258.5976 eV
Total Mermin free energy:         -193.2499104268 H        -5258.5976 eV
Force related energy:             -193.2499104268 H        -5258.5976 eV

Volume:                              0.110596E+05 au^3   0.163886E+04 A^3
Pressure:                            0.241680E-04 au     0.711047E+09 Pa
>> Charges saved for restart in charges.bin

total energy  -1.9324991E+02 H       energy change -3.7137749E-03 H
gradient norm  3.7696985E-02 H/a0    max. gradient  9.6376185E-03 H/a0
step length    3.1732172E-01 a0      max. step      5.9355230E-02 a0

--------------------------------------------------------------------------------

***  Geometry step: 22

 iSCC Total electronic   Diff electronic      SCC error    
    1   -0.19519153E+03    0.00000000E+00    0.97923206E-02
    2   -0.19518655E+03    0.49813087E-02    0.53521533E-02
    3   -0.19518661E+03   -0.55851401E-04    0.11452325E-02
    4   -0.19518661E+03   -0.89267563E-05    0.22764931E-03
    5   -0.19518661E+03   -0.42916596E-06    0.74020127E-04
    6   -0.19518661E+03   -0.23118048E-07    0.23493226E-04
    7   -0.19518661E+03   -0.58571459E-09    0.49999062E-05
    8   -0.19518661E+03   -0.32144953E-10    0.98009493E-06
    9   -0.19518661E+03   -0.25863756E-11    0.16839815E-06
   10   -0.19518661E+03   -0.22737368E-12    0.21255337E-07
   11   -0.19518661E+03   -0.28421709E-13    0.28324836E-08

Total Energy:                     -193.2521575031 H        -5258.6588 eV
Extrapolated to 0K:               -193.2521575031 H        -5258.6588 eV
Total Mermin free energy:         -193.2521575031 H        -5258.6588 eV
Force related energy:             -193.2521575031 H        -5258.6588 eV

Volume:                              0.110961E+05 au^3   0.164428E+04 A^3
Pressure:                            0.200295E-04 au     0.589288E+09 Pa
>> Charges saved for restart in charges.bin

total energy  -1.9325216E+02 H       energy change -2.2470763E-03 H
gradient norm  3.4096159E-02 H/a0    max. gradient  7.5537298E-03 H/a0
step length    2.2886907E-01 a0      max. step      4.4657402E-02 a0

--------------------------------------------------------------------------------

***  Geometry step: 23

 iSCC Total electronic   Diff electronic      SCC error    
    1   -0.19518661E+03    0.00000000E+00    0.75512272E-02
    2   -0.19517699E+03    0.96281359E-02    0.41345793E-02
    3   -0.19517701E+03   -0.24852127E-04    0.77412897E-03
    4   -0.19517702E+03   -0.52867637E-05    0.88111416E-04
    5   -0.19517702E+03   -0.23001712E-06    0.32374204E-04
    6   -0.19517702E+03   -0.67722681E-08    0.10748606E-04
    7   -0.19517702E+03   -0.25059421E-09    0.26636391E-05
    8   -0.19517702E+03   -0.88959951E-11    0.54461133E-06
    9   -0.19517702E+03   -0.79580786E-12    0.69186877E-07
   10   -0.19517702E+03   -0.14210855E-12    0.11606559E-07
   11   -0.19517702E+03    0.00000000E+00    0.29948524E-08

Total Energy:                     -193.2534619610 H        -5258.6943 eV
Extrapolated to 0K:               -193.2534619610 H        -5258.6943 eV
Total Mermin free energy:         -193.2534619610 H        -5258.6943 eV
Force related energy:             -193.2534619610 H        -5258.6943 eV

Volume:                              0.111228E+05 au^3   0.164822E+04 A^3
Pressure:                            0.148819E-04 au     0.437842E+09 Pa
>> Charges saved for restart in charges.bin

total energy  -1.9325346E+02 H       energy change -1.3044579E-03 H
gradient norm  2.6735550E-02 H/a0    max. gradient  7.3606300E-03 H/a0
step length    1.3366023E-01 a0      max. step      2.5550203E-02 a0

--------------------------------------------------------------------------------

***  Geometry step: 24

 iSCC Total electronic   Diff electronic      SCC error    
    1   -0.19517702E+03    0.00000000E+00    0.48577327E-02
    2   -0.19516839E+03    0.86284289E-02    0.28357269E-02
    3   -0.19516841E+03   -0.22980644E-04    0.74639408E-03
    4   -0.19516842E+03   -0.39748214E-05    0.10611559E-03
    5   -0.19516842E+03   -0.13699466E-06    0.26237943E-04
    6   -0.19516842E+03   -0.72272144E-08    0.91385502E-05
    7   -0.19516842E+03   -0.11883117E-09    0.25462255E-05
    8   -0.19516842E+03   -0.40927262E-11    0.45165849E-06
    9   -0.19516842E+03   -0.54001248E-12    0.53162167E-07
   10   -0.19516842E+03   -0.56843419E-13    0.84262926E-08

Total Energy:                     -193.2544011795 H        -5258.7198 eV
Extrapolated to 0K:               -193.2544011795 H        -5258.7198 eV
Total Mermin free energy:         -193.2544011795 H        -5258.7198 eV
Force related energy:             -193.2544011795 H        -5258.7198 eV

Volume:                              0.111428E+05 au^3   0.165119E+04 A^3
Pressure:                            0.968509E-05 au     0.284945E+09 Pa
>> Charges saved for restart in charges.bin

total energy  -1.9325440E+02 H       energy change -9.3921849E-04 H
gradient norm  2.2484451E-02 H/a0    max. gradient  6.4219473E-03 H/a0
step length    8.9598317E-02 a0      max. step      1.9431644E-02 a0

--------------------------------------------------------------------------------

***  Geometry step: 25

 iSCC Total electronic   Diff electronic      SCC error    
    1   -0.19516842E+03    0.00000000E+00    0.34587767E-02
    2   -0.19516694E+03    0.14783251E-02    0.19128823E-02
    3   -0.19516695E+03   -0.17091257E-04    0.64523353E-03
    4   -0.19516696E+03   -0.22581675E-05    0.84651258E-04
    5   -0.19516696E+03   -0.73462047E-07    0.28128147E-04
    6   -0.19516696E+03   -0.47404853E-08    0.96863887E-05
    7   -0.19516696E+03   -0.80262907E-10    0.14975515E-05
    8   -0.19516696E+03   -0.48032689E-11    0.28347909E-06
    9   -0.19516696E+03   -0.48316906E-12    0.50018877E-07
   10   -0.19516696E+03   -0.28421709E-13    0.10379697E-07
   11   -0.19516696E+03    0.00000000E+00    0.24676159E-08

Total Energy:                     -193.2551460736 H        -5258.7401 eV
Extrapolated to 0K:               -193.2551460736 H        -5258.7401 eV
Total Mermin free energy:         -193.2551460736 H        -5258.7401 eV
Force related energy:             -193.2551460736 H        -5258.7401 eV

Volume:                              0.111572E+05 au^3   0.165333E+04 A^3
Pressure:                            0.783991E-05 au     0.230658E+09 Pa
>> Charges saved for restart in charges.bin

total energy  -1.9325515E+02 H       energy change -7.4489415E-04 H
gradient norm  2.3697917E-02 H/a0    max. gradient  6.3825061E-03 H/a0
step length    7.5232632E-02 a0      max. step      2.1737796E-02 a0

--------------------------------------------------------------------------------

***  Geometry step: 26

 iSCC Total electronic   Diff electronic      SCC error    
    1   -0.19516696E+03    0.00000000E+00    0.55022157E-02
    2   -0.19517068E+03   -0.37185337E-02    0.31371122E-02
    3   -0.19517070E+03   -0.29493810E-04    0.96830759E-03
    4   -0.19517071E+03   -0.37996269E-05    0.12726018E-03
    5   -0.19517071E+03   -0.14926820E-06    0.40506811E-04
    6   -0.19517071E+03   -0.71360375E-08    0.11753462E-04
    7   -0.19517071E+03   -0.12326495E-09    0.16360900E-05
    8   -0.19517071E+03   -0.12647661E-10    0.38627553E-06
    9   -0.19517071E+03   -0.85265128E-12    0.10071202E-06
   10   -0.19517071E+03    0.00000000E+00    0.23579672E-07
   11   -0.19517071E+03   -0.85265128E-13    0.37934247E-08

Total Energy:                     -193.2561527301 H        -5258.7675 eV
Extrapolated to 0K:               -193.2561527301 H        -5258.7675 eV
Total Mermin free energy:         -193.2561527301 H        -5258.7675 eV
Force related energy:             -193.2561527301 H        -5258.7675 eV

Volume:                              0.111795E+05 au^3   0.165663E+04 A^3
Pressure:                            0.757210E-05 au     0.222779E+09 Pa
>> Charges saved for restart in charges.bin

total energy  -1.9325615E+02 H       energy change -1.0066564E-03 H
gradient norm  2.4133353E-02 H/a0    max. gradient  5.2785168E-03 H/a0
step length    1.2317876E-01 a0      max. step      3.5336815E-02 a0

--------------------------------------------------------------------------------

***  Geometry step: 27

 iSCC Total electronic   Diff electronic      SCC error    
    1   -0.19517071E+03    0.00000000E+00    0.51314897E-02
    2   -0.19517737E+03   -0.66575563E-02    0.26067686E-02
    3   -0.19517739E+03   -0.22697480E-04    0.90196843E-03
    4   -0.19517739E+03   -0.35625887E-05    0.15457400E-03
    5   -0.19517739E+03   -0.17634568E-06    0.48508855E-04
    6   -0.19517739E+03   -0.59604304E-08    0.10720343E-04
    7   -0.19517739E+03   -0.13309887E-09    0.15047374E-05
    8   -0.19517739E+03   -0.87538865E-11    0.36783154E-06
    9   -0.19517739E+03   -0.12505552E-11    0.89354824E-07
   10   -0.19517739E+03    0.85265128E-13    0.16973906E-07
   11   -0.19517739E+03   -0.56843419E-13    0.42337032E-08

Total Energy:                     -193.2570399431 H        -5258.7916 eV
Extrapolated to 0K:               -193.2570399431 H        -5258.7916 eV
Total Mermin free energy:         -193.2570399431 H        -5258.7916 eV
Force related energy:             -193.2570399431 H        -5258.7916 eV

Volume:                              0.112054E+05 au^3   0.166047E+04 A^3
Pressure:                            0.843602E-05 au     0.248196E+09 Pa
>> Charges saved for restart in charges.bin

total energy  -1.9325704E+02 H       energy change -8.8721299E-04 H
gradient norm  2.1517043E-02 H/a0    max. gradient  6.0049314E-03 H/a0
step length    1.4441973E-01 a0      max. step      3.6269048E-02 a0

--------------------------------------------------------------------------------

***  Geometry step: 28

 iSCC Total electronic   Diff electronic      SCC error    
    1   -0.19517739E+03    0.00000000E+00    0.46756563E-02
    2   -0.19518322E+03   -0.58310791E-02    0.27200020E-02
    3   -0.19518324E+03   -0.16417825E-04    0.81037439E-03
    4   -0.19518324E+03   -0.30893470E-05    0.14023397E-03
    5   -0.19518324E+03   -0.14596901E-06    0.43706280E-04
    6   -0.19518324E+03   -0.44433079E-08    0.10636213E-04
    7   -0.19518324E+03   -0.10589929E-09    0.15530932E-05
    8   -0.19518324E+03   -0.62527761E-11    0.21898846E-06
    9   -0.19518324E+03   -0.11368684E-11    0.47350812E-07
   10   -0.19518324E+03   -0.85265128E-13    0.10948925E-07
   11   -0.19518324E+03   -0.28421709E-13    0.23435036E-08

Total Energy:                     -193.2577266311 H        -5258.8103 eV
Extrapolated to 0K:               -193.2577266311 H        -5258.8103 eV
Total Mermin free energy:         -193.2577266311 H        -5258.8103 eV
Force related energy:             -193.2577266311 H        -5258.8103 eV

Volume:                              0.112294E+05 au^3   0.166402E+04 A^3
Pressure:                            0.909562E-05 au     0.267602E+09 Pa
>> Charges saved for restart in charges.bin

total energy  -1.9325773E+02 H       energy change -6.8668807E-04 H
gradient norm  1.7577659E-02 H/a0    max. gradient  3.4077176E-03 H/a0
step length    1.3616856E-01 a0      max. step      3.1899331E-02 a0

--------------------------------------------------------------------------------

***  Geometry step: 29

 iSCC Total electronic   Diff electronic      SCC error    
    1   -0.19518324E+03    0.00000000E+00    0.44888436E-02
    2   -0.19518582E+03   -0.25795068E-02    0.25825562E-02
    3   -0.19518583E+03   -0.93862905E-05    0.54119342E-03
    4   -0.19518583E+03   -0.18180187E-05    0.90562602E-04
    5   -0.19518583E+03   -0.86726487E-07    0.33430327E-04
    6   -0.19518583E+03   -0.18352182E-08    0.90415213E-05
    7   -0.19518583E+03   -0.43002046E-10    0.10612802E-05
    8   -0.19518583E+03   -0.40927262E-11    0.15017343E-06
    9   -0.19518583E+03   -0.31263880E-12    0.43953779E-07
   10   -0.19518583E+03   -0.14210855E-12    0.69974329E-08

Total Energy:                     -193.2581983265 H        -5258.8231 eV
Extrapolated to 0K:               -193.2581983265 H        -5258.8231 eV
Total Mermin free energy:         -193.2581983265 H        -5258.8231 eV
Force related energy:             -193.2581983265 H        -5258.8231 eV

Volume:                              0.112469E+05 au^3   0.166662E+04 A^3
Pressure:                            0.914749E-05 au     0.269128E+09 Pa
>> Charges saved for restart in charges.bin

total energy  -1.9325820E+02 H       energy change -4.7169534E-04 H
gradient norm  1.5900333E-02 H/a0    max. gradient  4.7171887E-03 H/a0
step length    1.0099278E-01 a0      max. step      2.2020431E-02 a0

--------------------------------------------------------------------------------

***  Geometry step: 30

 iSCC Total electronic   Diff electronic      SCC error    
    1   -0.19518583E+03    0.00000000E+00    0.39287100E-02
    2   -0.19518490E+03    0.92989924E-03    0.21774380E-02
    3   -0.19518491E+03   -0.64714669E-05    0.38212840E-03
    4   -0.19518491E+03   -0.12842126E-05    0.50786729E-04
    5   -0.19518491E+03   -0.60502458E-07    0.20024164E-04
    6   -0.19518491E+03   -0.12021815E-08    0.65134495E-05
    7   -0.19518491E+03   -0.24698465E-10    0.10529891E-05
    8   -0.19518491E+03   -0.15347723E-11    0.11966206E-06
    9   -0.19518491E+03   -0.22737368E-12    0.34049531E-07
   10   -0.19518491E+03   -0.56843419E-13    0.58899179E-08

Total Energy:                     -193.2585815313 H        -5258.8336 eV
Extrapolated to 0K:               -193.2585815313 H        -5258.8336 eV
Total Mermin free energy:         -193.2585815313 H        -5258.8336 eV
Force related energy:             -193.2585815313 H        -5258.8336 eV

Volume:                              0.112604E+05 au^3   0.166862E+04 A^3
Pressure:                            0.829588E-05 au     0.244073E+09 Pa
>> Charges saved for restart in charges.bin

total energy  -1.9325858E+02 H       energy change -3.8320482E-04 H
gradient norm  1.4670050E-02 H/a0    max. gradient  4.7614710E-03 H/a0
step length    7.9901991E-02 a0      max. step      1.6364342E-02 a0

--------------------------------------------------------------------------------

***  Geometry step: 31

 iSCC Total electronic   Diff electronic      SCC error    
    1   -0.19518491E+03    0.00000000E+00    0.39290216E-02
    2   -0.19518078E+03    0.41288467E-02    0.22579638E-02
    3   -0.19518079E+03   -0.49516500E-05    0.37840005E-03
    4   -0.19518079E+03   -0.10036478E-05    0.41187998E-04
    5   -0.19518079E+03   -0.52213238E-07    0.15251440E-04
    6   -0.19518079E+03   -0.15366197E-08    0.48706598E-05
    7   -0.19518079E+03   -0.26915359E-10    0.12323990E-05
    8   -0.19518079E+03   -0.93791641E-12    0.15843927E-06
    9   -0.19518079E+03   -0.85265128E-13    0.30812724E-07
   10   -0.19518079E+03    0.85265128E-13    0.57034999E-08

Total Energy:                     -193.2589436283 H        -5258.8434 eV
Extrapolated to 0K:               -193.2589436283 H        -5258.8434 eV
Total Mermin free energy:         -193.2589436283 H        -5258.8434 eV
Force related energy:             -193.2589436283 H        -5258.8434 eV

Volume:                              0.112712E+05 au^3   0.167022E+04 A^3
Pressure:                            0.638886E-05 au     0.187967E+09 Pa
>> Charges saved for restart in charges.bin

total energy  -1.9325894E+02 H       energy change -3.6209702E-04 H
gradient norm  1.4746824E-02 H/a0    max. gradient  4.3941327E-03 H/a0
step length    7.3157002E-02 a0      max. step      1.3949351E-02 a0

--------------------------------------------------------------------------------

***  Geometry step: 32

 iSCC Total electronic   Diff electronic      SCC error    
    1   -0.19518079E+03    0.00000000E+00    0.39845322E-02
    2   -0.19517600E+03    0.47848882E-02    0.22757936E-02
    3   -0.19517601E+03   -0.47484472E-05    0.42573055E-03
    4   -0.19517601E+03   -0.88982068E-06    0.47200886E-04
    5   -0.19517601E+03   -0.46038878E-07    0.17537151E-04
    6   -0.19517601E+03   -0.15922694E-08    0.44374743E-05
    7   -0.19517601E+03   -0.36635583E-10    0.93928862E-06
    8   -0.19517601E+03   -0.17053026E-11    0.15928036E-06
    9   -0.19517601E+03   -0.36948222E-12    0.31459285E-07
   10   -0.19517601E+03    0.00000000E+00    0.57632836E-08

Total Energy:                     -193.2593264946 H        -5258.8538 eV
Extrapolated to 0K:               -193.2593264946 H        -5258.8538 eV
Total Mermin free energy:         -193.2593264946 H        -5258.8538 eV
Force related energy:             -193.2593264946 H        -5258.8538 eV

Volume:                              0.112800E+05 au^3   0.167153E+04 A^3
Pressure:                            0.421421E-05 au     0.123986E+09 Pa
>> Charges saved for restart in charges.bin

total energy  -1.9325933E+02 H       energy change -3.8286627E-04 H
gradient norm  1.5746901E-02 H/a0    max. gradient  2.8731817E-03 H/a0
step length    8.2369506E-02 a0      max. step      1.7856686E-02 a0

--------------------------------------------------------------------------------

***  Geometry step: 33

 iSCC Total electronic   Diff electronic      SCC error    
    1   -0.19517601E+03    0.00000000E+00    0.29670494E-02
    2   -0.19517245E+03    0.35608717E-02    0.17300927E-02
    3   -0.19517246E+03   -0.60131998E-05    0.45252058E-03
    4   -0.19517246E+03   -0.10275324E-05    0.71294156E-04
    5   -0.19517246E+03   -0.42857067E-07    0.21384732E-04
    6   -0.19517246E+03   -0.21203164E-08    0.53099140E-05
    7   -0.19517246E+03   -0.50704330E-10    0.86467308E-06
    8   -0.19517246E+03   -0.31832315E-11    0.18253384E-06
    9   -0.19517246E+03   -0.22737368E-12    0.38541690E-07
   10   -0.19517246E+03    0.28421709E-13    0.80395459E-08

Total Energy:                     -193.2597941152 H        -5258.8666 eV
Extrapolated to 0K:               -193.2597941152 H        -5258.8666 eV
Total Mermin free energy:         -193.2597941152 H        -5258.8666 eV
Force related energy:             -193.2597941152 H        -5258.8666 eV

Volume:                              0.112894E+05 au^3   0.167291E+04 A^3
Pressure:                            0.227662E-05 au     0.669805E+08 Pa
>> Charges saved for restart in charges.bin

total energy  -1.9325979E+02 H       energy change -4.6762063E-04 H
gradient norm  1.7597486E-02 H/a0    max. gradient  3.0913705E-03 H/a0
step length    1.0596387E-01 a0      max. step      2.4294770E-02 a0

--------------------------------------------------------------------------------

***  Geometry step: 34

 iSCC Total electronic   Diff electronic      SCC error    
    1   -0.19517246E+03    0.00000000E+00    0.31677590E-02
    2   -0.19517249E+03   -0.33359474E-04    0.18273737E-02
    3   -0.19517250E+03   -0.10751122E-04    0.53155853E-03
    4   -0.19517250E+03   -0.17477740E-05    0.89237176E-04
    5   -0.19517250E+03   -0.47575611E-07    0.23460330E-04
    6   -0.19517250E+03   -0.27367832E-08    0.60729464E-05
    7   -0.19517250E+03   -0.65256245E-10    0.12873143E-05
    8   -0.19517250E+03   -0.25295321E-11    0.16999990E-06
    9   -0.19517250E+03   -0.28421709E-12    0.37472166E-07
   10   -0.19517250E+03   -0.85265128E-13    0.72349082E-08

Total Energy:                     -193.2604010782 H        -5258.8831 eV
Extrapolated to 0K:               -193.2604010782 H        -5258.8831 eV
Total Mermin free energy:         -193.2604010782 H        -5258.8831 eV
Force related energy:             -193.2604010782 H        -5258.8831 eV

Volume:                              0.113004E+05 au^3   0.167455E+04 A^3
Pressure:                            0.138221E-05 au     0.406661E+08 Pa
>> Charges saved for restart in charges.bin

total energy  -1.9326040E+02 H       energy change -6.0696297E-04 H
gradient norm  1.8490012E-02 H/a0    max. gradient  3.0111355E-03 H/a0
step length    1.4966887E-01 a0      max. step      3.4580897E-02 a0

--------------------------------------------------------------------------------

***  Geometry step: 35

 iSCC Total electronic   Diff electronic      SCC error    
    1   -0.19517250E+03    0.00000000E+00    0.40277704E-02
    2   -0.19517771E+03   -0.52118143E-02    0.22732004E-02
    3   -0.19517773E+03   -0.12438740E-04    0.65877375E-03
    4   -0.19517773E+03   -0.19913938E-05    0.64755179E-04
    5   -0.19517773E+03   -0.52283752E-07    0.18434628E-04
    6   -0.19517773E+03   -0.25637803E-08    0.58817569E-05
    7   -0.19517773E+03   -0.37118753E-10    0.15152205E-05
    8   -0.19517773E+03   -0.14210855E-11    0.22323570E-06
    9   -0.19517773E+03   -0.22737368E-12    0.33341845E-07
   10   -0.19517773E+03   -0.56843419E-13    0.54456102E-08

Total Energy:                     -193.2609947576 H        -5258.8992 eV
Extrapolated to 0K:               -193.2609947576 H        -5258.8992 eV
Total Mermin free energy:         -193.2609947576 H        -5258.8992 eV
Force related energy:             -193.2609947576 H        -5258.8992 eV

Volume:                              0.113110E+05 au^3   0.167612E+04 A^3
Pressure:                            0.244349E-05 au     0.718900E+08 Pa
>> Charges saved for restart in charges.bin

total energy  -1.9326099E+02 H       energy change -5.9367941E-04 H
gradient norm  1.7609074E-02 H/a0    max. gradient  4.4952069E-03 H/a0
step length    1.6652799E-01 a0      max. step      3.7371185E-02 a0

--------------------------------------------------------------------------------

***  Geometry step: 36

 iSCC Total electronic   Diff electronic      SCC error    
    1   -0.19517773E+03    0.00000000E+00    0.38423327E-02
    2   -0.19518491E+03   -0.71865622E-02    0.21664356E-02
    3   -0.19518493E+03   -0.10670481E-04    0.55387551E-03
    4   -0.19518493E+03   -0.17448257E-05    0.51387215E-04
    5   -0.19518493E+03   -0.57859580E-07    0.87235590E-05
    6   -0.19518493E+03   -0.24670612E-08    0.34583735E-05
    7   -0.19518493E+03   -0.37687187E-10    0.96114370E-06
    8   -0.19518493E+03   -0.13358203E-11    0.25150735E-06
    9   -0.19518493E+03   -0.85265128E-13    0.49761895E-07
   10   -0.19518493E+03   -0.11368684E-12    0.63806258E-08

Total Energy:                     -193.2614786572 H        -5258.9124 eV
Extrapolated to 0K:               -193.2614786572 H        -5258.9124 eV
Total Mermin free energy:         -193.2614786572 H        -5258.9124 eV
Force related energy:             -193.2614786572 H        -5258.9124 eV

Volume:                              0.113211E+05 au^3   0.167761E+04 A^3
Pressure:                            0.445869E-05 au     0.131179E+09 Pa
>> Charges saved for restart in charges.bin

total energy  -1.9326148E+02 H       energy change -4.8389959E-04 H
gradient norm  1.5524705E-02 H/a0    max. gradient  5.5615515E-03 H/a0
step length    1.5119853E-01 a0      max. step      3.2000457E-02 a0

--------------------------------------------------------------------------------

***  Geometry step: 37

 iSCC Total electronic   Diff electronic      SCC error    
    1   -0.19518493E+03    0.00000000E+00    0.38883693E-02
    2   -0.19519072E+03   -0.57902842E-02    0.22698423E-02
    3   -0.19519073E+03   -0.86390058E-05    0.60413016E-03
    4   -0.19519073E+03   -0.14334687E-05    0.47480702E-04
    5   -0.19519073E+03   -0.52390362E-07    0.15540996E-04
    6   -0.19519073E+03   -0.21732944E-08    0.61619460E-05
    7   -0.19519073E+03   -0.33708147E-10    0.13765065E-05
    8   -0.19519073E+03   -0.15063506E-11    0.30443184E-06
    9   -0.19519073E+03   -0.14210855E-12    0.49809101E-07
   10   -0.19519073E+03    0.00000000E+00    0.37746366E-08

Total Energy:                     -193.2618803559 H        -5258.9233 eV
Extrapolated to 0K:               -193.2618803559 H        -5258.9233 eV
Total Mermin free energy:         -193.2618803559 H        -5258.9233 eV
Force related energy:             -193.2618803559 H        -5258.9233 eV

Volume:                              0.113308E+05 au^3   0.167906E+04 A^3
Pressure:                            0.611606E-05 au     0.179941E+09 Pa
>> Charges saved for restart in charges.bin

total energy  -1.9326188E+02 H       energy change -4.0169871E-04 H
gradient norm  1.4523347E-02 H/a0    max. gradient  5.0407529E-03 H/a0
step length    1.3196433E-01 a0      max. step      2.6633848E-02 a0

--------------------------------------------------------------------------------

***  Geometry step: 38

 iSCC Total electronic   Diff electronic      SCC error    
    1   -0.19519073E+03    0.00000000E+00    0.33628354E-02
    2   -0.19519335E+03   -0.26258474E-02    0.18952865E-02
    3   -0.19519336E+03   -0.88369636E-05    0.54729506E-03
    4   -0.19519336E+03   -0.15769284E-05    0.70622311E-04
    5   -0.19519336E+03   -0.51478736E-07    0.14585162E-04
    6   -0.19519336E+03   -0.25147529E-08    0.56983831E-05
    7   -0.19519336E+03   -0.48459015E-10    0.14732527E-05
    8   -0.19519336E+03   -0.17053026E-11    0.35455953E-06
    9   -0.19519336E+03   -0.22737368E-12    0.57931460E-07
   10   -0.19519336E+03   -0.28421709E-13    0.53877516E-08

Total Energy:                     -193.2622707313 H        -5258.9340 eV
Extrapolated to 0K:               -193.2622707313 H        -5258.9340 eV
Total Mermin free energy:         -193.2622707313 H        -5258.9340 eV
Force related energy:             -193.2622707313 H        -5258.9340 eV

Volume:                              0.113397E+05 au^3   0.168037E+04 A^3
Pressure:                            0.634212E-05 au     0.186592E+09 Pa
>> Charges saved for restart in charges.bin

total energy  -1.9326227E+02 H       energy change -3.9037542E-04 H
gradient norm  1.5176096E-02 H/a0    max. gradient  4.1083252E-03 H/a0
step length    1.1977489E-01 a0      max. step      2.4086569E-02 a0

--------------------------------------------------------------------------------

***  Geometry step: 39

 iSCC Total electronic   Diff electronic      SCC error    
    1   -0.19519336E+03    0.00000000E+00    0.37800396E-02
    2   -0.19519380E+03   -0.43681301E-03    0.20955519E-02
    3   -0.19519381E+03   -0.10599200E-04    0.47320746E-03
    4   -0.19519381E+03   -0.18461568E-05    0.96282192E-04
    5   -0.19519381E+03   -0.74689410E-07    0.16400100E-04
    6   -0.19519381E+03   -0.38188546E-08    0.60608623E-05
    7   -0.19519381E+03   -0.54654947E-10    0.15782910E-05
    8   -0.19519381E+03   -0.20747848E-11    0.30849071E-06
    9   -0.19519381E+03   -0.34106051E-12    0.55156938E-07
   10   -0.19519381E+03    0.85265128E-13    0.88198537E-08

Total Energy:                     -193.2627128827 H        -5258.9460 eV
Extrapolated to 0K:               -193.2627128827 H        -5258.9460 eV
Total Mermin free energy:         -193.2627128827 H        -5258.9460 eV
Force related energy:             -193.2627128827 H        -5258.9460 eV

Volume:                              0.113475E+05 au^3   0.168152E+04 A^3
Pressure:                            0.583972E-05 au     0.171811E+09 Pa
>> Charges saved for restart in charges.bin

total energy  -1.9326271E+02 H       energy change -4.4215139E-04 H
gradient norm  1.6345830E-02 H/a0    max. gradient  3.7889566E-03 H/a0
step length    1.2978176E-01 a0      max. step      2.5918609E-02 a0

--------------------------------------------------------------------------------

***  Geometry step: 40

 iSCC Total electronic   Diff electronic      SCC error    
    1   -0.19519381E+03    0.00000000E+00    0.37909166E-02
    2   -0.19519158E+03    0.22321890E-02    0.20143021E-02
    3   -0.19519160E+03   -0.14883720E-04    0.53779817E-03
    4   -0.19519160E+03   -0.21696378E-05    0.74205284E-04
    5   -0.19519160E+03   -0.11723520E-06    0.28622779E-04
    6   -0.19519160E+03   -0.44528576E-08    0.89008199E-05
    7   -0.19519160E+03   -0.63977268E-10    0.21771054E-05
    8   -0.19519160E+03   -0.27853275E-11    0.30283667E-06
    9   -0.19519160E+03   -0.65369932E-12    0.51752515E-07
   10   -0.19519160E+03    0.56843419E-13    0.74017685E-08

Total Energy:                     -193.2632107048 H        -5258.9595 eV
Extrapolated to 0K:               -193.2632107048 H        -5258.9595 eV
Total Mermin free energy:         -193.2632107048 H        -5258.9595 eV
Force related energy:             -193.2632107048 H        -5258.9595 eV

Volume:                              0.113548E+05 au^3   0.168261E+04 A^3
Pressure:                            0.452795E-05 au     0.133217E+09 Pa
>> Charges saved for restart in charges.bin

total energy  -1.9326321E+02 H       energy change -4.9782216E-04 H
gradient norm  1.6441165E-02 H/a0    max. gradient  5.3819891E-03 H/a0
step length    1.4772907E-01 a0      max. step      3.2337763E-02 a0

--------------------------------------------------------------------------------

***  Geometry step: 41

 iSCC Total electronic   Diff electronic      SCC error    
    1   -0.19519160E+03    0.00000000E+00    0.40822976E-02
    2   -0.19518847E+03    0.31262839E-02    0.23160998E-02
    3   -0.19518849E+03   -0.16992014E-04    0.69468999E-03
    4   -0.19518849E+03   -0.20619190E-05    0.94767400E-04
    5   -0.19518849E+03   -0.11131999E-06    0.35563989E-04
    6   -0.19518849E+03   -0.35979326E-08    0.91458364E-05
    7   -0.19518849E+03   -0.64659389E-10    0.17751096E-05
    8   -0.19518849E+03   -0.36095571E-11    0.23586457E-06
    9   -0.19518849E+03   -0.59685590E-12    0.56842206E-07
   10   -0.19518849E+03   -0.85265128E-13    0.71805042E-08

Total Energy:                     -193.2636743458 H        -5258.9722 eV
Extrapolated to 0K:               -193.2636743458 H        -5258.9722 eV
Total Mermin free energy:         -193.2636743458 H        -5258.9722 eV
Force related energy:             -193.2636743458 H        -5258.9722 eV

Volume:                              0.113622E+05 au^3   0.168370E+04 A^3
Pressure:                            0.279603E-05 au     0.822620E+08 Pa
>> Charges saved for restart in charges.bin

total energy  -1.9326367E+02 H       energy change -4.6364094E-04 H
gradient norm  1.5054550E-02 H/a0    max. gradient  4.6989040E-03 H/a0
step length    1.5349494E-01 a0      max. step      3.5633609E-02 a0

--------------------------------------------------------------------------------

***  Geometry step: 42

 iSCC Total electronic   Diff electronic      SCC error    
    1   -0.19518849E+03    0.00000000E+00    0.30780782E-02
    2   -0.19518785E+03    0.64039612E-03    0.15487581E-02
    3   -0.19518786E+03   -0.10704786E-04    0.44440150E-03
    4   -0.19518786E+03   -0.13233161E-05    0.78981804E-04
    5   -0.19518786E+03   -0.40425135E-07    0.23856811E-04
    6   -0.19518786E+03   -0.24780320E-08    0.75400262E-05
    7   -0.19518786E+03   -0.44991566E-10    0.13131565E-05
    8   -0.19518786E+03   -0.23021585E-11    0.16520910E-06
    9   -0.19518786E+03   -0.19895197E-12    0.59666303E-07
   10   -0.19518786E+03   -0.56843419E-13    0.10412673E-07
   11   -0.19518786E+03   -0.28421709E-13    0.92446673E-09

Total Energy:                     -193.2640309749 H        -5258.9819 eV
Extrapolated to 0K:               -193.2640309749 H        -5258.9819 eV
Total Mermin free energy:         -193.2640309749 H        -5258.9819 eV
Force related energy:             -193.2640309749 H        -5258.9819 eV

Volume:                              0.113689E+05 au^3   0.168470E+04 A^3
Pressure:                            0.210225E-05 au     0.618503E+08 Pa
>> Charges saved for restart in charges.bin

total energy  -1.9326403E+02 H       energy change -3.5662910E-04 H
gradient norm  1.3595706E-02 H/a0    max. gradient  2.3184318E-03 H/a0
step length    1.2039781E-01 a0      max. step      2.7216468E-02 a0

--------------------------------------------------------------------------------

***  Geometry step: 43

 iSCC Total electronic   Diff electronic      SCC error    
    1   -0.19518786E+03    0.00000000E+00    0.34584027E-02
    2   -0.19519018E+03   -0.23218178E-02    0.18510510E-02
    3   -0.19519019E+03   -0.91750448E-05    0.49900917E-03
    4   -0.19519020E+03   -0.13986175E-05    0.67951342E-04
    5   -0.19519020E+03   -0.37555708E-07    0.15249409E-04
    6   -0.19519020E+03   -0.22796200E-08    0.57438184E-05
    7   -0.19519020E+03   -0.57241323E-10    0.13431274E-05
    8   -0.19519020E+03   -0.18474111E-11    0.24779286E-06
    9   -0.19519020E+03   -0.17053026E-12    0.40241078E-07
   10   -0.19519020E+03   -0.56843419E-13    0.86143443E-08

Total Energy:                     -193.2643653582 H        -5258.9910 eV
Extrapolated to 0K:               -193.2643653582 H        -5258.9910 eV
Total Mermin free energy:         -193.2643653582 H        -5258.9910 eV
Force related energy:             -193.2643653582 H        -5258.9910 eV

Volume:                              0.113762E+05 au^3   0.168577E+04 A^3
Pressure:                            0.266168E-05 au     0.783093E+08 Pa
>> Charges saved for restart in charges.bin

total energy  -1.9326437E+02 H       energy change -3.3438330E-04 H
gradient norm  1.2919054E-02 H/a0    max. gradient  2.4005965E-03 H/a0
step length    1.1884590E-01 a0      max. step      2.4561409E-02 a0

--------------------------------------------------------------------------------

***  Geometry step: 44

 iSCC Total electronic   Diff electronic      SCC error    
    1   -0.19519020E+03    0.00000000E+00    0.34060178E-02
    2   -0.19519374E+03   -0.35464836E-02    0.19560134E-02
    3   -0.19519375E+03   -0.73506471E-05    0.47147862E-03
    4   -0.19519375E+03   -0.12770978E-05    0.59222322E-04
    5   -0.19519375E+03   -0.47372737E-07    0.10937717E-04
    6   -0.19519375E+03   -0.22010056E-08    0.25217261E-05
    7   -0.19519375E+03   -0.57440275E-10    0.79908274E-06
    8   -0.19519375E+03   -0.11937118E-11    0.27456629E-06
    9   -0.19519375E+03   -0.56843419E-13    0.55408261E-07
   10   -0.19519375E+03    0.00000000E+00    0.90563472E-08

Total Energy:                     -193.2646582515 H        -5258.9989 eV
Extrapolated to 0K:               -193.2646582515 H        -5258.9989 eV
Total Mermin free energy:         -193.2646582515 H        -5258.9989 eV
Force related energy:             -193.2646582515 H        -5258.9989 eV

Volume:                              0.113846E+05 au^3   0.168702E+04 A^3
Pressure:                            0.353680E-05 au     0.104056E+09 Pa
>> Charges saved for restart in charges.bin

total energy  -1.9326466E+02 H       energy change -2.9289332E-04 H
gradient norm  1.2739541E-02 H/a0    max. gradient  3.0661865E-03 H/a0
step length    1.2222993E-01 a0      max. step      2.2594708E-02 a0

--------------------------------------------------------------------------------

***  Geometry step: 45

 iSCC Total electronic   Diff electronic      SCC error    
    1   -0.19519375E+03    0.00000000E+00    0.32474681E-02
    2   -0.19519734E+03   -0.35920926E-02    0.19408204E-02
    3   -0.19519735E+03   -0.68724084E-05    0.47390137E-03
    4   -0.19519735E+03   -0.12095593E-05    0.58052045E-04
    5   -0.19519735E+03   -0.57583492E-07    0.10563487E-04
    6   -0.19519735E+03   -0.25948168E-08    0.38646835E-05
    7   -0.19519735E+03   -0.64801498E-10    0.99979846E-06
    8   -0.19519735E+03   -0.15631940E-11    0.31753242E-06
    9   -0.19519735E+03   -0.11368684E-12    0.58225873E-07
   10   -0.19519735E+03    0.56843419E-13    0.65616388E-08

Total Energy:                     -193.2649436338 H        -5259.0067 eV
Extrapolated to 0K:               -193.2649436338 H        -5259.0067 eV
Total Mermin free energy:         -193.2649436338 H        -5259.0067 eV
Force related energy:             -193.2649436338 H        -5259.0067 eV

Volume:                              0.113933E+05 au^3   0.168832E+04 A^3
Pressure:                            0.442041E-05 au     0.130053E+09 Pa
>> Charges saved for restart in charges.bin

total energy  -1.9326494E+02 H       energy change -2.8538232E-04 H
gradient norm  1.2280992E-02 H/a0    max. gradient  3.2848495E-03 H/a0
step length    1.3128846E-01 a0      max. step      2.4231123E-02 a0

--------------------------------------------------------------------------------

***  Geometry step: 46

 iSCC Total electronic   Diff electronic      SCC error    
    1   -0.19519735E+03    0.00000000E+00    0.31130566E-02
    2   -0.19519910E+03   -0.17484584E-02    0.18957741E-02
    3   -0.19519911E+03   -0.64970534E-05    0.49110893E-03
    4   -0.19519911E+03   -0.10692489E-05    0.62513755E-04
    5   -0.19519911E+03   -0.57614926E-07    0.20218462E-04
    6   -0.19519911E+03   -0.26427358E-08    0.69857178E-05
    7   -0.19519911E+03   -0.49197979E-10    0.10860093E-05
    8   -0.19519911E+03   -0.18189894E-11    0.22769845E-06
    9   -0.19519911E+03   -0.11368684E-12    0.45816145E-07
   10   -0.19519911E+03   -0.85265128E-13    0.60778556E-08

Total Energy:                     -193.2652117757 H        -5259.0140 eV
Extrapolated to 0K:               -193.2652117757 H        -5259.0140 eV
Total Mermin free energy:         -193.2652117757 H        -5259.0140 eV
Force related energy:             -193.2652117757 H        -5259.0140 eV

Volume:                              0.114013E+05 au^3   0.168950E+04 A^3
Pressure:                            0.472309E-05 au     0.138958E+09 Pa
>> Charges saved for restart in charges.bin

total energy  -1.9326521E+02 H       energy change -2.6814188E-04 H
gradient norm  1.1678587E-02 H/a0    max. gradient  3.1051326E-03 H/a0
step length    1.2686021E-01 a0      max. step      2.5138113E-02 a0

--------------------------------------------------------------------------------

***  Geometry step: 47

 iSCC Total electronic   Diff electronic      SCC error    
    1   -0.19519911E+03    0.00000000E+00    0.34273807E-02
    2   -0.19519863E+03    0.47831010E-03    0.17088315E-02
    3   -0.19519864E+03   -0.73345108E-05    0.46385688E-03
    4   -0.19519864E+03   -0.11310276E-05    0.79486403E-04
    5   -0.19519864E+03   -0.59959831E-07    0.26138690E-04
    6   -0.19519864E+03   -0.33052459E-08    0.82968959E-05
    7   -0.19519864E+03   -0.54711791E-10    0.10149558E-05
    8   -0.19519864E+03   -0.26432190E-11    0.12187613E-06
    9   -0.19519864E+03   -0.19895197E-12    0.43963552E-07
   10   -0.19519864E+03    0.28421709E-13    0.58388756E-08

Total Energy:                     -193.2654656397 H        -5259.0209 eV
Extrapolated to 0K:               -193.2654656397 H        -5259.0209 eV
Total Mermin free energy:         -193.2654656397 H        -5259.0209 eV
Force related energy:             -193.2654656397 H        -5259.0209 eV

Volume:                              0.114078E+05 au^3   0.169046E+04 A^3
Pressure:                            0.423440E-05 au     0.124580E+09 Pa
>> Charges saved for restart in charges.bin

total energy  -1.9326547E+02 H       energy change -2.5386394E-04 H
gradient norm  1.1175060E-02 H/a0    max. gradient  2.4762881E-03 H/a0
step length    1.2022961E-01 a0      max. step      2.7151336E-02 a0

--------------------------------------------------------------------------------

***  Geometry step: 48

 iSCC Total electronic   Diff electronic      SCC error    
    1   -0.19519864E+03    0.00000000E+00    0.32535355E-02
    2   -0.19519671E+03    0.19275495E-02    0.19018917E-02
    3   -0.19519672E+03   -0.67583972E-05    0.46512046E-03
    4   -0.19519672E+03   -0.10927123E-05    0.88864434E-04
    5   -0.19519672E+03   -0.52955784E-07    0.24880535E-04
    6   -0.19519672E+03   -0.33588492E-08    0.75309572E-05
    7   -0.19519672E+03   -0.58435035E-10    0.10682032E-05
    8   -0.19519672E+03   -0.25295321E-11    0.13215069E-06
    9   -0.19519672E+03   -0.17053026E-12    0.37274610E-07
   10   -0.19519672E+03    0.00000000E+00    0.62732379E-08

Total Energy:                     -193.2656846902 H        -5259.0269 eV
Extrapolated to 0K:               -193.2656846902 H        -5259.0269 eV
Total Mermin free energy:         -193.2656846902 H        -5259.0269 eV
Force related energy:             -193.2656846902 H        -5259.0269 eV

Volume:                              0.114116E+05 au^3   0.169102E+04 A^3
Pressure:                            0.318919E-05 au     0.938293E+08 Pa
>> Charges saved for restart in charges.bin

total energy  -1.9326568E+02 H       energy change -2.1905058E-04 H
gradient norm  1.0338189E-02 H/a0    max. gradient  2.3148064E-03 H/a0
step length    9.4900757E-02 a0      max. step      2.4202874E-02 a0

--------------------------------------------------------------------------------

***  Geometry step: 49

 iSCC Total electronic   Diff electronic      SCC error    
    1   -0.19519672E+03    0.00000000E+00    0.29505742E-02
    2   -0.19519519E+03    0.15227553E-02    0.16604770E-02
    3   -0.19519520E+03   -0.53737656E-05    0.41535786E-03
    4   -0.19519520E+03   -0.90112087E-06    0.62418346E-04
    5   -0.19519520E+03   -0.35628744E-07    0.19475936E-04
    6   -0.19519520E+03   -0.27342821E-08    0.60132365E-05
    7   -0.19519520E+03   -0.52608584E-10    0.99044192E-06
    8   -0.19519520E+03   -0.19895197E-11    0.15300396E-06
    9   -0.19519520E+03   -0.14210855E-12    0.36355204E-07
   10   -0.19519520E+03   -0.85265128E-13    0.56574736E-08

Total Energy:                     -193.2658588568 H        -5259.0316 eV
Extrapolated to 0K:               -193.2658588568 H        -5259.0316 eV
Total Mermin free energy:         -193.2658588568 H        -5259.0316 eV
Force related energy:             -193.2658588568 H        -5259.0316 eV

Volume:                              0.114129E+05 au^3   0.169121E+04 A^3
Pressure:                            0.247579E-05 au     0.728402E+08 Pa
>> Charges saved for restart in charges.bin

total energy  -1.9326586E+02 H       energy change -1.7416656E-04 H
gradient norm  9.6841803E-03 H/a0    max. gradient  2.4849101E-03 H/a0
step length    6.9045017E-02 a0      max. step      1.8371998E-02 a0

--------------------------------------------------------------------------------

***  Geometry step: 50

 iSCC Total electronic   Diff electronic      SCC error    
    1   -0.19519520E+03    0.00000000E+00    0.21838563E-02
    2   -0.19519459E+03    0.61464952E-03    0.11108021E-02
    3   -0.19519459E+03   -0.33774168E-05    0.30374152E-03
    4   -0.19519459E+03   -0.59720210E-06    0.39114847E-04
    5   -0.19519459E+03   -0.16508039E-07    0.11142093E-04
    6   -0.19519459E+03   -0.12375949E-08    0.36672275E-05
    7   -0.19519459E+03   -0.28592240E-10    0.65666658E-06
    8   -0.19519459E+03   -0.11368684E-11    0.11431156E-06
    9   -0.19519459E+03   -0.28421709E-13    0.35928821E-07
   10   -0.19519459E+03   -0.28421709E-13    0.32373197E-08

Total Energy:                     -193.2660062122 H        -5259.0356 eV
Extrapolated to 0K:               -193.2660062122 H        -5259.0356 eV
Total Mermin free energy:         -193.2660062122 H        -5259.0356 eV
Force related energy:             -193.2660062122 H        -5259.0356 eV

Volume:                              0.114144E+05 au^3   0.169144E+04 A^3
Pressure:                            0.204224E-05 au     0.600847E+08 Pa
>> Charges saved for restart in charges.bin

total energy  -1.9326601E+02 H       energy change -1.4735541E-04 H
gradient norm  9.4526407E-03 H/a0    max. gradient  1.9058454E-03 H/a0
step length    5.3186537E-02 a0      max. step      1.3445337E-02 a0

[...]
Pressure:                            0.154613E-06 au     0.454886E+07 Pa
>> Charges saved for restart in charges.bin

total energy  -1.9327597E+02 H       energy change -1.7124139E-06 H
gradient norm  9.4707557E-04 H/a0    max. gradient  2.0972617E-04 H/a0
step length    1.9164455E-02 a0      max. step      5.3034138E-03 a0

--------------------------------------------------------------------------------

***  Geometry step: 165

 iSCC Total electronic   Diff electronic      SCC error    
    1   -0.19518435E+03    0.00000000E+00    0.19890669E-03
    2   -0.19518432E+03    0.24875156E-04    0.10320388E-03
    3   -0.19518432E+03   -0.46535320E-07    0.30112946E-04
    4   -0.19518432E+03   -0.69509554E-08    0.24769664E-05
    5   -0.19518432E+03   -0.22458835E-09    0.63166485E-06
    6   -0.19518432E+03   -0.80149221E-11    0.17589357E-06
    7   -0.19518432E+03    0.28421709E-13    0.37726045E-07
    8   -0.19518432E+03   -0.28421709E-13    0.78503177E-08

Total Energy:                     -193.2759695256 H        -5259.3067 eV
Extrapolated to 0K:               -193.2759695256 H        -5259.3067 eV
Total Mermin free energy:         -193.2759695256 H        -5259.3067 eV
Force related energy:             -193.2759695256 H        -5259.3067 eV

Volume:                              0.111908E+05 au^3   0.165831E+04 A^3
Pressure:                            0.197273E-06 au     0.580398E+07 Pa
>> Charges saved for restart in charges.bin

total energy  -1.9327597E+02 H       energy change -2.0388537E-06 H
gradient norm  1.1016784E-03 H/a0    max. gradient  3.6060790E-04 H/a0
step length    2.1525397E-02 a0      max. step      5.7941041E-03 a0

--------------------------------------------------------------------------------

***  Geometry step: 166

 iSCC Total electronic   Diff electronic      SCC error    
    1   -0.19518432E+03    0.00000000E+00    0.21456247E-03
    2   -0.19518447E+03   -0.14575528E-03    0.86215095E-04
    3   -0.19518447E+03   -0.42437847E-07    0.26972003E-04
    4   -0.19518447E+03   -0.60526588E-08    0.49010617E-05
    5   -0.19518447E+03   -0.10979306E-09    0.12170469E-05
    6   -0.19518447E+03   -0.54853899E-11    0.21434266E-06
    7   -0.19518447E+03   -0.11368684E-12    0.23236844E-07
    8   -0.19518447E+03    0.00000000E+00    0.46811786E-08

Total Energy:                     -193.2759714139 H        -5259.3068 eV
Extrapolated to 0K:               -193.2759714139 H        -5259.3068 eV
Total Mermin free energy:         -193.2759714139 H        -5259.3068 eV
Force related energy:             -193.2759714139 H        -5259.3068 eV

Volume:                              0.111908E+05 au^3   0.165830E+04 A^3
Pressure:                            0.224307E-06 au     0.659933E+07 Pa
>> Charges saved for restart in charges.bin

total energy  -1.9327597E+02 H       energy change -1.8882332E-06 H
gradient norm  1.1568163E-03 H/a0    max. gradient  5.0830765E-04 H/a0
step length    6.3192877E-03 a0      max. step      1.3904761E-03 a0

--------------------------------------------------------------------------------

***  Geometry step: 167

 iSCC Total electronic   Diff electronic      SCC error    
    1   -0.19518447E+03    0.00000000E+00    0.28793971E-03
    2   -0.19518448E+03   -0.93258056E-05    0.11327696E-03
    3   -0.19518448E+03   -0.69747358E-07    0.34153204E-04
    4   -0.19518448E+03   -0.97677457E-08    0.55963900E-05
    5   -0.19518448E+03   -0.14580337E-09    0.15693701E-05
    6   -0.19518448E+03   -0.75601747E-11    0.36662805E-06
    7   -0.19518448E+03   -0.17053026E-12    0.49904785E-07
    8   -0.19518448E+03    0.00000000E+00    0.76488949E-08

Total Energy:                     -193.2759737334 H        -5259.3068 eV
Extrapolated to 0K:               -193.2759737334 H        -5259.3068 eV
Total Mermin free energy:         -193.2759737334 H        -5259.3068 eV
Force related energy:             -193.2759737334 H        -5259.3068 eV

Volume:                              0.111910E+05 au^3   0.165834E+04 A^3
Pressure:                            0.204803E-06 au     0.602551E+07 Pa
>> Charges saved for restart in charges.bin

total energy  -1.9327597E+02 H       energy change -2.3195331E-06 H
gradient norm  1.1485216E-03 H/a0    max. gradient  4.8384603E-04 H/a0
step length    9.3164718E-03 a0      max. step      2.0468473E-03 a0

--------------------------------------------------------------------------------

***  Geometry step: 168

 iSCC Total electronic   Diff electronic      SCC error    
    1   -0.19518448E+03    0.00000000E+00    0.16890303E-03
    2   -0.19518430E+03    0.17862890E-03    0.99394316E-04
    3   -0.19518430E+03   -0.37496420E-07    0.33512891E-04
    4   -0.19518430E+03   -0.56421072E-08    0.33526557E-05
    5   -0.19518430E+03   -0.10615508E-09    0.40954676E-06
    6   -0.19518430E+03   -0.55422333E-11    0.14159876E-06
    7   -0.19518430E+03   -0.85265128E-13    0.37086911E-07
    8   -0.19518430E+03   -0.28421709E-13    0.65178298E-08

Total Energy:                     -193.2759755488 H        -5259.3069 eV
Extrapolated to 0K:               -193.2759755488 H        -5259.3069 eV
Total Mermin free energy:         -193.2759755488 H        -5259.3069 eV
Force related energy:             -193.2759755488 H        -5259.3069 eV

Volume:                              0.111915E+05 au^3   0.165841E+04 A^3
Pressure:                            0.113588E-06 au     0.334188E+07 Pa
>> Charges saved for restart in charges.bin

total energy  -1.9327598E+02 H       energy change -1.8154473E-06 H
gradient norm  1.0163354E-03 H/a0    max. gradient  3.3314646E-04 H/a0
step length    8.3427989E-03 a0      max. step      1.8863963E-03 a0

--------------------------------------------------------------------------------

***  Geometry step: 169

 iSCC Total electronic   Diff electronic      SCC error    
    1   -0.19518430E+03    0.00000000E+00    0.20661903E-03
    2   -0.19518409E+03    0.20540422E-03    0.11695997E-03
    3   -0.19518409E+03   -0.59727284E-07    0.40348049E-04
    4   -0.19518409E+03   -0.87695469E-08    0.46558506E-05
    5   -0.19518409E+03   -0.21486812E-09    0.14365458E-05
    6   -0.19518409E+03   -0.12732926E-10    0.46529656E-06
    7   -0.19518409E+03   -0.42632564E-12    0.90966971E-07
    8   -0.19518409E+03    0.28421709E-13    0.85307521E-08

Total Energy:                     -193.2759773694 H        -5259.3069 eV
Extrapolated to 0K:               -193.2759773694 H        -5259.3069 eV
Total Mermin free energy:         -193.2759773694 H        -5259.3069 eV
Force related energy:             -193.2759773694 H        -5259.3069 eV

Volume:                              0.111921E+05 au^3   0.165850E+04 A^3
Pressure:                            0.127976E-07 au     0.376517E+06 Pa
>> Charges saved for restart in charges.bin

total energy  -1.9327598E+02 H       energy change -1.8205703E-06 H
gradient norm  7.9484998E-04 H/a0    max. gradient  1.7940601E-04 H/a0
step length    1.2367779E-02 a0      max. step      2.6783502E-03 a0

--------------------------------------------------------------------------------

***  Geometry step: 170

 iSCC Total electronic   Diff electronic      SCC error    
    1   -0.19518409E+03    0.00000000E+00    0.14579849E-03
    2   -0.19518407E+03    0.27809834E-04    0.64971395E-04
    3   -0.19518407E+03   -0.38992312E-07    0.20620988E-04
    4   -0.19518407E+03   -0.52205564E-08    0.28028879E-05
    5   -0.19518407E+03   -0.12971668E-09    0.85348564E-06
    6   -0.19518407E+03   -0.71906925E-11    0.26250202E-06
    7   -0.19518407E+03   -0.19895197E-12    0.58464956E-07
    8   -0.19518407E+03   -0.85265128E-13    0.53241704E-08

Total Energy:                     -193.2759785010 H        -5259.3070 eV
Extrapolated to 0K:               -193.2759785010 H        -5259.3070 eV
Total Mermin free energy:         -193.2759785010 H        -5259.3070 eV
Force related energy:             -193.2759785010 H        -5259.3070 eV

Volume:                              0.111924E+05 au^3   0.165854E+04 A^3
Pressure:                            0.251530E-08 au     0.740026E+05 Pa
>> Charges saved for restart in charges.bin

total energy  -1.9327598E+02 H       energy change -1.1316046E-06 H
gradient norm  6.8445675E-04 H/a0    max. gradient  1.2789711E-04 H/a0
step length    1.2335403E-02 a0      max. step      3.1209761E-03 a0

--------------------------------------------------------------------------------

***  Geometry step: 171

 iSCC Total electronic   Diff electronic      SCC error    
    1   -0.19518407E+03    0.00000000E+00    0.87816281E-04
    2   -0.19518394E+03    0.12128653E-03    0.41837171E-04
    3   -0.19518394E+03   -0.10706600E-07    0.12325464E-04
    4   -0.19518394E+03   -0.16494539E-08    0.22946802E-05
    5   -0.19518394E+03   -0.38767212E-10    0.78862329E-06
    6   -0.19518394E+03   -0.19610980E-11    0.23065727E-06
    7   -0.19518394E+03   -0.28421709E-13    0.31431181E-07
    8   -0.19518394E+03    0.28421709E-13    0.27059635E-08

Total Energy:                     -193.2759791139 H        -5259.3070 eV
Extrapolated to 0K:               -193.2759791139 H        -5259.3070 eV
Total Mermin free energy:         -193.2759791139 H        -5259.3070 eV
Force related energy:             -193.2759791139 H        -5259.3070 eV

Volume:                              0.111925E+05 au^3   0.165856E+04 A^3
Pressure:                           -0.503803E-07 au    -0.148224E+07 Pa
>> Charges saved for restart in charges.bin

total energy  -1.9327598E+02 H       energy change -6.1292496E-07 H
gradient norm  6.4260727E-04 H/a0    max. gradient  1.5535910E-04 H/a0
step length    1.4457634E-03 a0      max. step      2.9752511E-04 a0

--------------------------------------------------------------------------------

***  Geometry step: 172

 iSCC Total electronic   Diff electronic      SCC error    
    1   -0.19518394E+03    0.00000000E+00    0.13007868E-03
    2   -0.19518382E+03    0.12023492E-03    0.68570620E-04
    3   -0.19518382E+03   -0.22193319E-07    0.17916176E-04
    4   -0.19518382E+03   -0.34357015E-08    0.36022761E-05
    5   -0.19518382E+03   -0.81996632E-10    0.11703273E-05
    6   -0.19518382E+03   -0.39506176E-11    0.31626237E-06
    7   -0.19518382E+03   -0.17053026E-12    0.45042106E-07
    8   -0.19518382E+03    0.85265128E-13    0.39386294E-08

Total Energy:                     -193.2759800328 H        -5259.3070 eV
Extrapolated to 0K:               -193.2759800328 H        -5259.3070 eV
Total Mermin free energy:         -193.2759800328 H        -5259.3070 eV
Force related energy:             -193.2759800328 H        -5259.3070 eV

Volume:                              0.111926E+05 au^3   0.165857E+04 A^3
Pressure:                           -0.962051E-07 au    -0.283045E+07 Pa
>> Charges saved for restart in charges.bin

total energy  -1.9327598E+02 H       energy change -9.1884840E-07 H
gradient norm  7.8820239E-04 H/a0    max. gradient  2.2079132E-04 H/a0
step length    2.9110564E-03 a0      max. step      6.8428457E-04 a0

--------------------------------------------------------------------------------

***  Geometry step: 173

 iSCC Total electronic   Diff electronic      SCC error    
    1   -0.19518382E+03    0.00000000E+00    0.15070259E-03
    2   -0.19518382E+03    0.48365950E-05    0.63703914E-04
    3   -0.19518382E+03   -0.29742523E-07    0.21607131E-04
    4   -0.19518382E+03   -0.39349857E-08    0.25585212E-05
    5   -0.19518382E+03   -0.85691454E-10    0.39926995E-06
    6   -0.19518382E+03   -0.53717031E-11    0.13654191E-06
    7   -0.19518382E+03   -0.14210855E-12    0.42587124E-07
    8   -0.19518382E+03   -0.11368684E-12    0.65349135E-08

Total Energy:                     -193.2759814003 H        -5259.3070 eV
Extrapolated to 0K:               -193.2759814003 H        -5259.3070 eV
Total Mermin free energy:         -193.2759814003 H        -5259.3070 eV
Force related energy:             -193.2759814003 H        -5259.3070 eV

Volume:                              0.111926E+05 au^3   0.165857E+04 A^3
Pressure:                           -0.103880E-06 au    -0.305625E+07 Pa
>> Charges saved for restart in charges.bin

total energy  -1.9327598E+02 H       energy change -1.3675137E-06 H
gradient norm  1.0026913E-03 H/a0    max. gradient  2.0606478E-04 H/a0
step length    1.3454240E-02 a0      max. step      3.7126165E-03 a0

--------------------------------------------------------------------------------

***  Geometry step: 174

 iSCC Total electronic   Diff electronic      SCC error    
    1   -0.19518382E+03    0.00000000E+00    0.22359172E-03
    2   -0.19518384E+03   -0.19798848E-04    0.80470217E-04
    3   -0.19518384E+03   -0.39636632E-07    0.26991865E-04
    4   -0.19518384E+03   -0.51882409E-08    0.34898687E-05
    5   -0.19518384E+03   -0.11490897E-09    0.50128621E-06
    6   -0.19518384E+03   -0.83275609E-11    0.18506079E-06
    7   -0.19518384E+03   -0.85265128E-13    0.52289713E-07
    8   -0.19518384E+03   -0.14210855E-12    0.73976660E-08

Total Energy:                     -193.2759831289 H        -5259.3071 eV
Extrapolated to 0K:               -193.2759831289 H        -5259.3071 eV
Total Mermin free energy:         -193.2759831289 H        -5259.3071 eV
Force related energy:             -193.2759831289 H        -5259.3071 eV

Volume:                              0.111925E+05 au^3   0.165856E+04 A^3
Pressure:                           -0.100349E-06 au    -0.295238E+07 Pa
>> Charges saved for restart in charges.bin

total energy  -1.9327598E+02 H       energy change -1.7285755E-06 H
gradient norm  1.0940026E-03 H/a0    max. gradient  2.2170702E-04 H/a0
step length    1.5527546E-02 a0      max. step      4.1698089E-03 a0

--------------------------------------------------------------------------------

***  Geometry step: 175

 iSCC Total electronic   Diff electronic      SCC error    
    1   -0.19518384E+03    0.00000000E+00    0.30258760E-03
    2   -0.19518391E+03   -0.69791957E-04    0.12439595E-03
    3   -0.19518391E+03   -0.79283666E-07    0.44601188E-04
    4   -0.19518391E+03   -0.10226870E-07    0.58082082E-05
    5   -0.19518391E+03   -0.24411406E-09    0.51023018E-06
    6   -0.19518391E+03   -0.17251978E-10    0.10908123E-06
    7   -0.19518391E+03   -0.25579538E-12    0.31328598E-07
    8   -0.19518391E+03    0.00000000E+00    0.71017427E-08

Total Energy:                     -193.2759851370 H        -5259.3071 eV
Extrapolated to 0K:               -193.2759851370 H        -5259.3071 eV
Total Mermin free energy:         -193.2759851370 H        -5259.3071 eV
Force related energy:             -193.2759851370 H        -5259.3071 eV

Volume:                              0.111924E+05 au^3   0.165854E+04 A^3
Pressure:                           -0.793801E-07 au    -0.233544E+07 Pa
>> Charges saved for restart in charges.bin

total energy  -1.9327599E+02 H       energy change -2.0080898E-06 H
gradient norm  9.5056796E-04 H/a0    max. gradient  1.7348168E-04 H/a0
step length    1.7097530E-02 a0      max. step      4.3934303E-03 a0

--------------------------------------------------------------------------------

***  Geometry step: 176

 iSCC Total electronic   Diff electronic      SCC error    
    1   -0.19518391E+03    0.00000000E+00    0.21146906E-03
    2   -0.19518401E+03   -0.10585148E-03    0.95853773E-04
    3   -0.19518402E+03   -0.42078142E-07    0.32577223E-04
    4   -0.19518402E+03   -0.61248500E-08    0.27605785E-05
    5   -0.19518402E+03   -0.15239721E-09    0.31918022E-06
    6   -0.19518402E+03   -0.86117780E-11    0.10234794E-06
    7   -0.19518402E+03   -0.19895197E-12    0.30897618E-07
    8   -0.19518402E+03    0.56843419E-13    0.60991892E-08

Total Energy:                     -193.2759863621 H        -5259.3072 eV
Extrapolated to 0K:               -193.2759863621 H        -5259.3072 eV
Total Mermin free energy:         -193.2759863621 H        -5259.3072 eV
Force related energy:             -193.2759863621 H        -5259.3072 eV

Volume:                              0.111923E+05 au^3   0.165852E+04 A^3
Pressure:                           -0.293839E-07 au    -0.864503E+06 Pa
>> Charges saved for restart in charges.bin

total energy  -1.9327599E+02 H       energy change -1.2251287E-06 H
gradient norm  6.6170062E-04 H/a0    max. gradient  1.3013910E-04 H/a0
step length    5.6668988E-03 a0      max. step      1.3058487E-03 a0

--------------------------------------------------------------------------------

***  Geometry step: 177

 iSCC Total electronic   Diff electronic      SCC error    
    1   -0.19518402E+03    0.00000000E+00    0.16943646E-03
    2   -0.19518410E+03   -0.88758130E-04    0.96280643E-04
    3   -0.19518410E+03   -0.24478084E-07    0.26287575E-04
    4   -0.19518410E+03   -0.39671306E-08    0.27706974E-05
    5   -0.19518410E+03   -0.12087753E-09    0.73776456E-06
    6   -0.19518410E+03   -0.52864380E-11    0.22820692E-06
    7   -0.19518410E+03   -0.85265128E-13    0.47109813E-07
    8   -0.19518410E+03   -0.28421709E-13    0.58818848E-08

Total Energy:                     -193.2759870568 H        -5259.3072 eV
Extrapolated to 0K:               -193.2759870568 H        -5259.3072 eV
Total Mermin free energy:         -193.2759870568 H        -5259.3072 eV
Force related energy:             -193.2759870568 H        -5259.3072 eV

Volume:                              0.111922E+05 au^3   0.165852E+04 A^3
Pressure:                           -0.378685E-08 au    -0.111413E+06 Pa
>> Charges saved for restart in charges.bin

total energy  -1.9327599E+02 H       energy change -6.9475297E-07 H
gradient norm  5.2134110E-04 H/a0    max. gradient  1.1359567E-04 H/a0
step length    2.9272670E-03 a0      max. step      5.8064018E-04 a0

--------------------------------------------------------------------------------

***  Geometry step: 178

 iSCC Total electronic   Diff electronic      SCC error    
    1   -0.19518410E+03    0.00000000E+00    0.94137647E-04
    2   -0.19518413E+03   -0.27281722E-04    0.54239686E-04
    3   -0.19518413E+03   -0.67532824E-08    0.14322225E-04
    4   -0.19518413E+03   -0.11986572E-08    0.12951171E-05
    5   -0.19518413E+03   -0.30667024E-10    0.21784849E-06
    6   -0.19518413E+03   -0.14210855E-11    0.82896042E-07
    7   -0.19518413E+03   -0.14210855E-12    0.22292811E-07
    8   -0.19518413E+03   -0.28421709E-13    0.44034256E-08

Total Energy:                     -193.2759874378 H        -5259.3072 eV
Extrapolated to 0K:               -193.2759874378 H        -5259.3072 eV
Total Mermin free energy:         -193.2759874378 H        -5259.3072 eV
Force related energy:             -193.2759874378 H        -5259.3072 eV

Volume:                              0.111922E+05 au^3   0.165851E+04 A^3
Pressure:                            0.242461E-08 au     0.713345E+05 Pa
>> Charges saved for restart in charges.bin

total energy  -1.9327599E+02 H       energy change -3.8096348E-07 H
gradient norm  4.9146362E-04 H/a0    max. gradient  9.9311811E-05 H/a0
step length    1.2231679E-03 a0      max. step      2.5189559E-04 a0

Geometry converged

--------------------------------------------------------------------------------
DFTB+ running times                          cpu [s]             wall clock [s]
--------------------------------------------------------------------------------
Pre-SCC initialisation                 +       6.14 (  0.2%)       2.87 (  0.8%)
SCC                                    +    2381.93 ( 92.3%)     309.54 ( 90.4%)
Post-SCC processing                    +     193.53 (  7.5%)      29.80 (  8.7%)
--------------------------------------------------------------------------------
Missing                                +       0.06 (  0.0%)       0.01 (  0.0%)
Total                                  =    2581.66 (100.0%)     342.23 (100.0%)
--------------------------------------------------------------------------------
