   72
Geometry Step: 0
   Si      2.56407553      5.97964120      5.91760459      3.13262964
   Si      7.78907553      1.53435880      5.91760459      3.13262964
   Ge      1.51640887      3.67434600      7.70763040      3.16854845
   Ge      6.51966213      3.67434600      0.91484460      3.17002692
   Ge      6.51966213     11.35365400      0.91484460      3.16916482
   Ge      1.51640887     11.35365400      7.70763040      3.16924247
   Ge      6.74140887     11.18834600      7.70763040      3.16924247
   Ge      1.29466213     11.18834600      0.91484460      3.16916482
   Ge      1.29466213      3.83965400      0.91484460      3.17002692
   Ge      6.74140887      3.83965400      7.70763040      3.16854845
   Ge      2.40431475      5.97964120      2.86007496      3.17648751
   Ge      5.63175625      5.97964120      5.76240004      3.17630323
   Ge      5.63175625      9.04835880      5.76240004      3.17923171
   Ge      2.40431475      9.04835880      2.86007496      3.17914992
   Ge      7.62931475     13.49364120      2.86007496      3.17914992
   Ge      0.40675625     13.49364120      5.76240004      3.17923171
   Ge      0.40675625      1.53435880      5.76240004      3.17630323
   Ge      7.62931475      1.53435880      2.86007496      3.17648751
   Ge      5.47199547      5.97964120      2.70487041      3.18207929
   Ge      5.47199547      9.04835880      2.70487041      3.18153741
   Ge      2.56407553      9.04835880      5.91760459      3.17963162
   Ge      7.78907553     13.49364120      5.91760459      3.17963162
   Ge      0.24699547     13.49364120      2.70487041      3.18153741
   Ge      0.24699547      1.53435880      2.70487041      3.18207929
    O      5.22500000      3.40534480      0.00000000      6.40243006
    O      5.22500000     11.62265520      0.00000000      6.40192275
    O      0.00000000     10.91934480      0.00000000      6.40192275
    O      0.00000000      4.10865520      0.00000000      6.40243006
    O      1.37088378      2.46609480      6.65223946      6.39470134
    O      6.66518722      2.46609480      1.97023554      6.39421038
    O      6.66518722     12.56190520      1.97023554      6.39355553
    O      1.37088378     12.56190520      6.65223946      6.39354377
    O      6.59588378      9.98009480      6.65223946      6.39354377
    O      1.44018722      9.98009480      1.97023554      6.39355553
    O      1.44018722      5.04790520      1.97023554      6.39421038
    O      6.59588378      5.04790520      6.65223946      6.39470134
    O      1.68921648      5.05992760      6.90746472      6.41172100
    O      6.34685452      5.05992760      1.71501028      6.39666044
    O      6.34685452      9.96807240      1.71501028      6.39661699
    O      1.68921648      9.96807240      6.90746472      6.39713795
    O      6.91421648     12.57392760      6.90746472      6.39713795
    O      1.12185452     12.57392760      1.71501028      6.39661699
    O      1.12185452      2.45407240      1.71501028      6.39666044
    O      6.91421648      2.45407240      6.90746472      6.41172100
    O      2.61250000      3.75700000      0.00000000      6.40096332
    O      7.83750000      3.75700000      0.00000000      6.40096332
    O      7.83750000     11.27100000      0.00000000      6.40026625
    O      2.61250000     11.27100000      0.00000000      6.40026625
    O      3.91513367      5.85340600      2.31599678      6.43702755
    O      4.12093733      5.85340600      6.30647822      6.44676174
    O      4.12093733      9.17459400      6.30647822      6.43733660
    O      3.91513367      9.17459400      2.31599678      6.43684462
    O      9.14013367     13.36740600      2.31599678      6.43684462
    O     -1.10406267     13.36740600      6.30647822      6.43733660
    O     -1.10406267      1.66059400      6.30647822      6.44676174
    O      9.14013367      1.66059400      2.31599678      6.43702755
    O      2.34641400      5.50175080      4.39573775      6.43459695
    O      5.68965700      5.50175080      4.22673724      6.42529692
    O      5.68965700      9.52624920      4.22673724      6.42453969
    O      2.34641400      9.52624920      4.39573775      6.42482218
    O      7.57141400     13.01575080      4.39573775      6.42482218
    O      0.46465700     13.01575080      4.22673724      6.42453969
    O      0.46465700      2.01224920      4.22673724      6.42529692
    O      7.57141400      2.01224920      4.39573775      6.43459695
    O      1.92565329      7.51400000      2.75574301      6.41924959
    O      6.11041771      7.51400000      5.86673199      6.41906846
    O      7.15065329      0.00000000      2.75574301      6.41924959
    O      0.88541771      0.00000000      5.86673199      6.41906846
    O      2.09724095      7.51400000      6.06591116      6.42865975
    O      5.93883005      7.51400000      2.55656384      6.41803319
    O      7.32224095      0.00000000      6.06591116      6.42865975
    O      0.71383005      0.00000000      2.55656384      6.41803319
   72
Geometry Step: 1
   Si      2.56274118      5.97881043      5.91894402      3.13288681
   Si      7.78774118      1.53518957      5.91894402      3.13669063
   Ge      1.51681878      3.67377202      7.70767090      3.19696117
   Ge      6.51936176      3.67374770      0.91465948      3.17040382
   Ge      6.51934425     11.35422015      0.91476074      3.16498976
   Ge      1.51674060     11.35418713      7.70767833      3.18714342
   Ge      6.74174060     11.18781287      7.70767833      3.20056278
   Ge      1.29434425     11.18777985      0.91476074      3.17471417
   Ge      1.29436176      3.84025230      0.91465948      3.17761843
   Ge      6.74181878      3.84022798      7.70767090      3.20691989
   Ge      2.40314636      5.97966663      2.85842308      3.19023464
   Ge      5.63348228      5.97942204      5.76331574      3.17685190
   Ge      5.63293977      9.04856520      5.76355603      3.17412632
   Ge      2.40312454      9.04859165      2.85894533      3.18676596
   Ge      7.62812454     13.49340835      2.85894533      3.20244455
   Ge      0.40793977     13.49343480      5.76355603      3.19414827
   Ge      0.40848228      1.53457796      5.76331574      3.19209916
   Ge      7.62814636      1.53433337      2.85842308      3.19744423
   Ge      5.47333935      5.97895063      2.70378424      3.18648492
   Ge      5.47333038      9.04899388      2.70381832      3.18688976
   Ge      2.56299050      9.04937800      5.91860066      3.18419436
   Ge      7.78799050     13.49262200      5.91860066      3.22066307
   Ge      0.24833038     13.49300612      2.70381832      3.23040748
   Ge      0.24833935      1.53504937      2.70378424      3.22651330
    O      5.22517142      3.38902382      0.00012487      6.41035790
    O      5.22500436     11.63893035      0.00000571      6.40985489
    O      0.00000436     10.90306965      0.00000571      6.43214741
    O      0.00017142      4.12497618      0.00012487      6.43220131
    O      1.39403034      2.45723242      6.64721041      6.37110274
    O      6.64206051      2.45736264      1.97512517      6.38737891
    O      6.64209403     12.57065339      1.97516414      6.38033626
    O      1.39397134     12.57066167      6.64730981      6.36781558
    O      6.61897134      9.97133833      6.64730981      6.36595936
    O      1.41709403      9.97134661      1.97516414      6.38823580
    O      1.41706051      5.05663736      1.97512517      6.38657260
    O      6.61903034      5.05676758      6.64721041      6.36353829
    O      1.69019920      5.09706889      6.88825348      6.39655771
    O      6.36646341      5.07495478      1.71065730      6.39258637
    O      6.36648471      9.95308732      1.71061322      6.39268844
    O      1.66955606      9.95318660      6.91193131      6.37775263
    O      6.89455606     12.58881340      6.91193131      6.34508748
    O      1.14148471     12.58891268      1.71061322      6.36760156
    O      1.14146341      2.43904522      1.71065730      6.37583459
    O      6.91519920      2.41693111      6.88825348      6.37193704
    O      2.61236024      3.75694983      0.00012423      6.40804275
    O      7.83736024      3.75705017      0.00012423      6.39613627
    O      7.83749384     11.27099928      0.00000328      6.39628524
    O      2.61249384     11.27100072      0.00000328      6.40770843
    O      3.91361738      5.84541648      2.28856591      6.42848516
    O      4.08465129      5.84840317      6.32494651      6.44898077
    O      4.12272835      9.18263213      6.33387410      6.43448242
    O      3.91348895      9.18260291      2.28861361      6.43130056
    O      9.13848895     13.35939709      2.28861361      6.43056102
    O     -1.10227165     13.35936787      6.33387410      6.42958323
    O     -1.14034871      1.66559683      6.32494651      6.47692713
    O      9.13861738      1.66858352      2.28856591      6.45154198
    O      2.34247909      5.48462615      4.43319712      6.43603271
    O      5.69890084      5.47359275      4.22607550      6.41830123
    O      5.69888498      9.55439244      4.22621190      6.42425178
    O      2.33718492      9.55445366      4.39610739      6.42362220
    O      7.56218492     12.98754634      4.39610739      6.38353954
    O      0.47388498     12.98760756      4.22621190      6.38660897
    O      0.47390084      2.04040725      4.22607550      6.40516220
    O      7.56747909      2.02937385      4.43319712      6.42646644
    O      1.89711548      7.51414232      2.74866454      6.41329390
    O      6.13897922      7.51415381      5.87377912      6.41179873
    O      7.12211548     -0.00014232      2.74866454      6.43087946
    O      0.91397922     -0.00015381      5.87377912      6.42891792
    O      2.08034404      7.47723510      6.07221372      6.42692223
    O      5.96651224      7.51401507      2.54667079      6.41621272
    O      7.30534404      0.03676490      6.07221372      6.41643674
    O      0.74151224     -0.00001507      2.54667079      6.39781260
   72
Geometry Step: 2
   Si      2.56125711      5.97783585      5.91855566      3.14010827
   Si      7.81487139      1.53667815      5.92259408      3.13807523
   Ge      1.51575520      3.68156175      7.75147078      3.19791003
   Ge      6.51638338      3.67280777      0.91923267      3.17385790
   Ge      6.51617621     11.35353022      0.91862568      3.17207096
   Ge      1.51458694     11.35918454      7.76016455      3.18737415
   Ge      6.75462997     11.17826399      7.77284035      3.20393050
   Ge      1.29061253     11.18608333      0.91507160      3.18365399
   Ge      1.29041147      3.83988318      0.91527214      3.18526219
   Ge      6.75631466      3.83374616      7.76488067      3.21253305
   Ge      2.40221614      5.97434402      2.87184506      3.20005663
   Ge      5.61650703      5.97952494      5.76669677      3.19642395
   Ge      5.63022229      9.04549713      5.76087693      3.18937177
   Ge      2.40320744      9.04713085      2.85804086      3.19439197
   Ge      7.61567274     13.54589354      2.85228992      3.21481847
   Ge      0.41996605     13.54664678      5.76726534      3.21491712
   Ge      0.38816357      1.53248483      5.76837291      3.21161979
   Ge      7.63186462      1.53667240      2.87077485      3.20734332
   Ge      5.47235890      5.97891470      2.70333146      3.19526196
   Ge      5.47208069      9.04737267      2.70376690      3.19529518
   Ge      2.55920624      9.03276867      5.91720645      3.20079929
   Ge      7.82984269     13.54301708      5.93475144      3.24307538
   Ge      0.20825169     13.53822669      2.68457983      3.24249352
   Ge      0.19198858      1.53978916      2.69054096      3.23267484
    O      5.18529255      3.37108002     -0.02866149      6.40014459
    O      5.18513539     11.65707007     -0.02879047      6.40233553
    O     -0.05755787     10.88810379     -0.04207451      6.42618613
    O     -0.05748742      4.14041727     -0.04204251      6.42535371
    O      1.43317128      2.44778107      6.64358162      6.36897165
    O      6.60389105      2.44540299      1.98224419      6.37224321
    O      6.60470095     12.58500743      1.98364073      6.37129694
    O      1.43243929     12.58252775      6.64208076      6.36960927
    O      6.65849413      9.96228300      6.64457219      6.36896317
    O      1.38027081      9.95824029      1.98333760      6.37743140
    O      1.38068390      5.07100749      1.98424356      6.37707644
    O      6.65799652      5.06696050      6.64374892      6.36554276
    O      1.68333499      5.13076190      6.87651949      6.39844434
    O      6.39857717      5.09765045      1.70263635      6.38416864
    O      6.39898712      9.93159476      1.70203076      6.38279117
    O      1.63650240      9.93408222      6.92320691      6.38082363
    O      6.86337346     12.61015738      6.92251644      6.35791380
    O      1.17152633     12.61512798      1.70501747      6.36846358
    O      1.17223317      2.41548545      1.70363011      6.37016578
    O      6.90919828      2.38451716      6.87775026      6.37830013
    O      2.65712888      3.75420833     -0.03080994      6.40697439
    O      7.88451964      3.76038544     -0.03234786      6.39848187
    O      7.88446500     11.26797666     -0.03220074      6.39903326
    O      2.65707364     11.27407370     -0.03093922      6.40830792
    O      3.91185273      5.83353497      2.24664577      6.42322972
    O      4.05590935      5.84169049      6.34973333      6.44337053
    O      4.12570881      9.19526858      6.37670251      6.42868037
    O      3.91176894      9.19488900      2.24654536      6.42565507
    O      9.19460757     13.35247377      2.26177102      6.42528672
    O     -1.15934367     13.35220801      6.36129927      6.42246863
    O     -1.19971721      1.67066715      6.34249621      6.46666971
    O      9.19527393      1.67624088      2.26166389      6.43147609
    O      2.33644076      5.46130942      4.46573206      6.43056289
    O      5.71304747      5.43025301      4.22718847      6.41414428
    O      5.71309419      9.59814334      4.22738138      6.41540554
    O      2.32334169      9.59807334      4.39820877      6.41418557
    O      7.54842712     12.94528233      4.40248216      6.38227957
    O      0.48751211     12.94543036      4.22290678      6.38660369
    O      0.48713262      2.08450753      4.22257827      6.39722460
    O      7.56208495      2.05351894      4.47036463      6.41510390
    O      1.85291663      7.51498068      2.73833669      6.40668110
    O      6.18339229      7.51479379      5.88485403      6.40498552
    O      7.09267050     -0.05325259      2.74236055      6.41224712
    O      0.94327439     -0.05313754      5.88070114      6.41193325
    O      2.05701165      7.44721724      6.08098683      6.42166374
    O      6.00937752      7.51474226      2.53199634      6.40871305
    O      7.29508392      0.02616713      6.07777908      6.42090303
    O      0.76690609     -0.05276105      2.53654464      6.39818351
   72
Geometry Step: 3
   Si      2.56147025      5.97920688      5.91837923      3.13765660
   Si      7.86260759      1.51995869      5.94231207      3.13840047
   Ge      1.50250006      3.70231320      7.77299750      3.20321152
   Ge      6.52019025      3.67312583      0.87563705      3.19140897
   Ge      6.52094022     11.35901137      0.87693749      3.18684023
   Ge      1.49851171     11.36162501      7.79349764      3.19234121
   Ge      6.78389636     11.17107586      7.83871784      3.20723106
   Ge      1.27909473     11.18465674      0.86710704      3.19562800
   Ge      1.27967724      3.84619484      0.86678139      3.20148767
   Ge      6.78477163      3.82441416      7.81737293      3.21799724
   Ge      2.40758796      5.97027638      2.90383863      3.21676242
   Ge      5.58925374      5.97914908      5.77828426      3.21716416
   Ge      5.62868428      9.04608120      5.76188078      3.21366565
   Ge      2.40973878      9.04432175      2.86419282      3.21699098
   Ge      7.63572670     13.59788287      2.84650539      3.23969229
   Ge      0.40331755     13.59790026      5.77747517      3.23638057
   Ge      0.35515265      1.50295939      5.78527826      3.23263770
   Ge      7.65792490      1.51398197      2.88525075      3.22728133
   Ge      5.46668428      5.98463104      2.71280173      3.22184671
   Ge      5.46680798      9.04513505      2.71230128      3.21869858
   Ge      2.55266629      9.00660698      5.91816016      3.21524636
   Ge      7.86524409     13.59600550      5.95453821      3.26073390
   Ge      0.16711309     13.58009995      2.67135515      3.25899278
   Ge      0.13593917      1.51046483      2.67483091      3.24807724
    O      5.17103985      3.35113885     -0.03786034      6.39031070
    O      5.17379414     11.67790068     -0.03544418      6.39160619
    O     -0.10652336     10.87926790     -0.08022910      6.40279589
    O     -0.10682098      4.14916049     -0.08065618      6.40543500
    O      1.48127344      2.44569910      6.64697430      6.36558177
    O      6.55623598      2.41807866      2.00009210      6.37189056
    O      6.56184349     12.61244411      2.00263215      6.37097635
    O      1.47439492     12.58982303      6.63943015      6.36635976
    O      6.71043122      9.96599341      6.65312934      6.36698356
    O      1.32590440      9.94142742      1.99237881      6.37224149
    O      1.32775152      5.08806381      1.99331954      6.37473781
    O      6.70834872      5.06130653      6.65443891      6.36796699
    O      1.65627331      5.13321666      6.89278251      6.39273878
    O      6.44757191      5.12611942      1.68671160      6.38132348
    O      6.44617220      9.89975657      1.68909654      6.38036150
    O      1.59292011      9.92320538      6.94423446      6.37866326
    O      6.83533376     12.63123452      6.92953518      6.37006189
    O      1.20151555     12.65920162      1.70906288      6.37269280
    O      1.20968907      2.37489668      1.70154498      6.37510542
    O      6.88928599      2.37864187      6.88982171      6.38767923
    O      2.68452961      3.75305840     -0.05094890      6.40089525
    O      7.91429160      3.76220420     -0.05272808      6.40246263
    O      7.91200003     11.26622589     -0.05063447      6.40066613
    O      2.68224944     11.27563817     -0.04923869      6.40110720
    O      3.90298558      5.81780569      2.18994550      6.41364301
    O      4.04928195      5.83227349      6.38429321      6.42934729
    O      4.12281518      9.21232246      6.43491904      6.41871403
    O      3.90822854      9.21136099      2.18815990      6.41289238
    O      9.22771948     13.34830709      2.24502906      6.40753762
    O     -1.19393702     13.34799817      6.37834921      6.40826779
    O     -1.25589067      1.67437868      6.35478598      6.44269510
    O      9.23210731      1.68215965      2.24129064      6.40916136
    O      2.32679944      5.42736687      4.47147220      6.41579203
    O      5.73167372      5.37245483      4.22783113      6.40252599
    O      5.73134086      9.65765729      4.22286713      6.39748361
    O      2.30608470      9.65580251      4.40096189      6.40024307
    O      7.53499346     12.90459885      4.41110132      6.37991754
    O      0.50013443     12.90375673      4.21139910      6.38238480
    O      0.50433685      2.13562740      4.21078310      6.39497014
    O      7.55374467      2.08572002      4.47841928      6.40898648
    O      1.79419692      7.50810378      2.72488356      6.39903552
    O      6.24307250      7.50737571      5.89867021      6.39364922
    O      7.06852528     -0.08220377      2.73671725      6.39298041
    O      0.96774188     -0.08327031      5.88650900      6.38598824
    O      2.02354853      7.43850491      6.09236771      6.40899065
    O      6.06781570      7.51247096      2.51273052      6.39587254
    O      7.28945436     -0.00085494      6.08194421      6.41825906
    O      0.78249309     -0.07849876      2.52988630      6.39364489
   72
Geometry Step: 4
   Si      2.55404654      5.97144352      5.92385874      3.14598781
   Si      7.89074706      1.50649414      5.96157246      3.14468143
   Ge      1.48458788      3.70753207      7.81723041      3.20585415
   Ge      6.53388508      3.66434112      0.85889278      3.20396478
   Ge      6.53597016     11.36571676      0.86599689      3.19793731
   Ge      1.47822534     11.37121712      7.83910439      3.19646974
   Ge      6.80376058     11.17846336      7.90204855      3.20904908
   Ge      1.25915263     11.19434755      0.83759500      3.20617985
   Ge      1.26120496      3.84130068      0.83382151      3.21328198
   Ge      6.80332343      3.81586673      7.87766071      3.21718314
   Ge      2.40860107      5.96677645      2.91008743      3.23752685
   Ge      5.59423422      5.96709916      5.78941392      3.24222494
   Ge      5.63581256      9.05106147      5.76796349      3.24361972
   Ge      2.40927977      9.03813560      2.86741648      3.24430301
   Ge      7.65202312     13.63203990      2.84853761      3.25964942
   Ge      0.39338491     13.62384942      5.78046968      3.26158835
   Ge      0.33463144      1.49507485      5.79443868      3.25598150
   Ge      7.67758827      1.49527154      2.88893616      3.24482757
   Ge      5.46193027      5.98230289      2.71437443      3.24835461
   Ge      5.46487258      9.04021251      2.71299687      3.24496813
   Ge      2.54435667      9.00558140      5.92003548      3.23998558
   Ge      7.87009165     13.64203125      5.96371769      3.28413145
   Ge      0.14749872     13.62353302      2.66907689      3.27994603
   Ge      0.12296679      1.48421074      2.67077247      3.27137844
    O      5.13440914      3.32843768     -0.06330166      6.38358647
    O      5.14102170     11.70276711     -0.05645814      6.38622377
    O     -0.15098911     10.87137547     -0.11550138      6.39330235
    O     -0.15379979      4.15614614     -0.11844100      6.39560219
    O      1.51482797      2.42953899      6.63882666      6.36664485
    O      6.51280432      2.39905233      2.01137977      6.36557778
    O      6.52295512     12.63362650      2.01641411      6.36549055
    O      1.50523233     12.60949175      6.62672228      6.36826494
    O      6.75929367      9.96805414      6.66040263      6.36728439
    O      1.26520675      9.93613774      1.99098729      6.36623976
    O      1.27400822      5.09967949      1.99806806      6.36818714
    O      6.74854429      5.06225883      6.65952032      6.36829101
    O      1.62650853      5.14564900      6.90589958      6.39405113
    O      6.49839788      5.15421307      1.67019827      6.37262156
    O      6.49930019      9.87751343      1.66806986      6.37225375
    O      1.55269541      9.90010779      6.95755073      6.38022787
    O      6.81365705     12.64674179      6.93775960      6.37230531
    O      1.23381324     12.68417877      1.70168002      6.36755493
    O      1.24454860      2.34774823      1.69405078      6.36554376
    O      6.87188291      2.37201740      6.90165615      6.39101917
    O      2.72312690      3.75174173     -0.08125128      6.38845041
    O      7.96386158      3.76451473     -0.08783100      6.39090627
    O      7.95947686     11.26336540     -0.08363116      6.39035096
    O      2.71722194     11.27763898     -0.07574424      6.38887591
    O      3.89214077      5.80097547      2.12613420      6.39909680
    O      4.03786829      5.81978094      6.43299231      6.42478482
    O      4.11829004      9.23094531      6.49924567      6.40900671
    O      3.90508227      9.23005055      2.11827737      6.39728703
    O      9.24158410     13.34348783      2.22483710      6.40215569
    O     -1.20763636     13.34340231      6.39812697      6.40912997
    O     -1.29242047      1.67805433      6.36887825      6.43615102
    O      9.23170226      1.69086147      2.21148545      6.40365388
    O      2.31490816      5.37947595      4.48811803      6.40567159
    O      5.75200864      5.30890620      4.24145396      6.38892034
    O      5.75178087      9.72648139      4.23089043      6.38122974
    O      2.28897362      9.71917158      4.41459718      6.38371290
    O      7.52595553     12.87781278      4.42162304      6.36828684
    O      0.50987377     12.87457778      4.21080358      6.36961990
    O      0.51850284      2.17602251      4.21222242      6.38004906
    O      7.54658662      2.11765616      4.49013103      6.40132888
    O      1.73132123      7.50318819      2.71118374      6.38164044
    O      6.30654859      7.50123687      5.91191863      6.38210757
    O      7.04566820     -0.10484047      2.73127108      6.37963627
    O      0.99250298     -0.10906671      5.89271321      6.37621495
    O      1.97740233      7.42771841      6.10677267      6.40321115
    O      6.13390157      7.51582560      2.49212298      6.37707039
    O      7.28879008     -0.03731643      6.08462933      6.40372306
    O      0.79275584     -0.10830903      2.52571013      6.36837993
   72
Geometry Step: 5
   Si      2.54308965      5.96237977      5.93608563      3.14982817
   Si      7.90882548      1.49741494      5.97927505      3.14748747
   Ge      1.47488761      3.70240282      7.82660703      3.22085662
   Ge      6.54441129      3.65117170      0.84549675      3.22105265
   Ge      6.54805644     11.37998815      0.85627229      3.21476326
   Ge      1.46783004     11.37978223      7.83933128      3.21307953
   Ge      6.83629766     11.18727120      7.93727631      3.22133230
   Ge      1.24420477     11.20531504      0.81291198      3.22094870
   Ge      1.24782049      3.83515711      0.80887426      3.22696404
   Ge      6.83459458      3.81320113      7.91719549      3.22729618
   Ge      2.40203859      5.96026197      2.90862009      3.26279673
   Ge      5.60423253      5.95736283      5.80510072      3.26282019
   Ge      5.64334374      9.05493215      5.78386689      3.26801298
   Ge      2.40016821      9.04350948      2.86848771      3.27253112
   Ge      7.65394194     13.65144623      2.85620043      3.27794806
   Ge      0.39197801     13.64121341      5.78010261      3.27691610
   Ge      0.32361438      1.49418852      5.80025101      3.26881713
   Ge      7.67518607      1.48632492      2.89503696      3.26360333
   Ge      5.46242001      5.97687518      2.71821673      3.28040335
   Ge      5.46934753      9.04718267      2.71475201      3.27935617
   Ge      2.53922983      9.00821896      5.92570710      3.26049760
   Ge      7.88420904     13.67103142      5.97602084      3.29224997
   Ge      0.12391704     13.64902263      2.66461406      3.29330386
   Ge      0.09910979      1.47731465      2.66557395      3.28661852
    O      5.11915789      3.30323925     -0.07256561      6.37487440
    O      5.12985176     11.73042218     -0.06096361      6.37926939
    O     -0.19138030     10.86344803     -0.14823213      6.37891953
    O     -0.19770873      4.16251723     -0.15453969      6.38080039
    O      1.54177088      2.41764824      6.63601003      6.35196971
    O      6.47590452      2.38188086      2.02121389      6.35489410
    O      6.48992200     12.65484337      2.02822750      6.35685205
    O      1.53328603     12.62449257      6.62061715      6.35346837
    O      6.80679978      9.97437611      6.67370860      6.35943080
    O      1.21069566      9.93119916      1.98902793      6.36073415
    O      1.22113046      5.10297203      1.99581041      6.36169464
    O      6.78966004      5.05557505      6.67366902      6.36001598
    O      1.59195798      5.15745527      6.92254456      6.38132210
    O      6.54921491      5.17869625      1.65125563      6.36470658
    O      6.54971070      9.85248351      1.64956711      6.36329072
    O      1.50829590      9.88577470      6.97927782      6.36599204
    O      6.79822241     12.66127135      6.94825664      6.37102475
    O      1.25933056     12.70915249      1.69453933      6.36503757
    O      1.27419857      2.32680327      1.68334841      6.36020361
    O      6.86000664      2.36165812      6.91256956      6.39029243
    O      2.73019880      3.75229204     -0.08800803      6.39014235
    O      7.99580035      3.76580551     -0.10913371      6.40118321
    O      7.98825621     11.26199885     -0.10220090      6.40212802
    O      2.71956789     11.27707660     -0.07709115      6.39144495
    O      3.88628744      5.78441676      2.05963944      6.38294505
    O      4.03584388      5.80726367      6.48614342      6.41829215
    O      4.12090188      9.24793369      6.56201127      6.39395582
    O      3.89927473      9.24845609      2.04655106      6.38066319
    O      9.27843938     13.34104902      2.20554515      6.39142546
    O     -1.24503528     13.34251725      6.41522980      6.40351006
    O     -1.32935109      1.68072915      6.38304999      6.42744802
    O      9.26715643      1.69873192      2.18098578      6.39127888
    O      2.30262699      5.32449437      4.49624273      6.39902166
    O      5.76985200      5.24576243      4.24434201      6.37573281
    O      5.76966357      9.79495176      4.23090600      6.36611879
    O      2.27321571      9.78280873      4.41658170      6.36834514
    O      7.52082264     12.86214574      4.43126092      6.36037738
    O      0.51572635     12.85534147      4.20645521      6.36175204
    O      0.52723659      2.20795940      4.21239080      6.37061762
    O      7.54244531      2.14464800      4.50517535      6.39405933
    O      1.66785029      7.49928505      2.69903704      6.36625119
    O      6.36661875      7.49839280      5.92266539      6.36748241