********************************************************************************
*                       GENERAL UTILITY LATTICE PROGRAM                        *
*                                 Julian Gale                                  *
*                       Curtin Institute for Computation                       *
*                    School of Molecular and Life Sciences                     *
*                    Curtin University, Western Australia                      *
********************************************************************************
* Version = 6.1.2 * Last modified =   3rd November 2022                        *
********************************************************************************
*  optimise     - perform optimisation run                                     *
*  conp         - constant pressure calculation                                *
*  property     - calculate properties for final geometry                      *
********************************************************************************

  Job Started  at 07:47.24 31st October    2025                               

  Number of CPUs =     1


  Total number of configurations input =      1

********************************************************************************
*  Input for Configuration =   1 : POSCAR_N0012.vasp                           *
********************************************************************************

  Formula = Ge12Si12O48                                                 

  Number of irreducible atoms/shells =     120


  Total number atoms/shells =     120

  Dimensionality = 3               :  Bulk   



  Cartesian lattice vectors (Angstroms) :

       17.182800    0.000000    0.000000
        0.000000    7.513760    0.000000
        0.000000    0.000000   10.447700

  Cell parameters (Angstroms/Degrees):

  a =      17.1828    alpha =  90.0000
  b =       7.5138    beta  =  90.0000
  c =      10.4477    gamma =  90.0000

  Initial cell volume =        1348.875752 Angs**3

  Temperature of configuration =   0.00     K 

  Pressure of configuration =         0.000 GPa 

  Fractional coordinates of asymmetric unit :

--------------------------------------------------------------------------------
   No.  Atomic       x           y          z         Charge      Occupancy
        Label      (Frac)      (Frac)     (Frac)        (e)         (Frac)  
--------------------------------------------------------------------------------
      1 Ge    c    0.052090    0.000000    0.372270     4.00000    1.000000    
      2 Ge    c    0.447910 *  0.000000 *  0.372270 *   4.00000    1.000000    
      3 Ge    c    0.947910 *  0.000000 *  0.627730 *   4.00000    1.000000    
      4 Ge    c    0.552090 *  0.000000 *  0.627730 *   4.00000    1.000000    
      5 Ge    c    0.443270 *  0.000000 *  0.877870 *   4.00000    1.000000    
      6 Ge    c    0.160190 *  0.293910 *  0.273440 *   4.00000    1.000000    
      7 Ge    c    0.839810 *  0.293910 *  0.726560 *   4.00000    1.000000    
      8 Ge    c    0.839810 *  0.706090 *  0.726560 *   4.00000    1.000000    
      9 Ge    c    0.339810 *  0.293910 *  0.273440 *   4.00000    1.000000    
     10 Ge    c    0.839340 *  0.705910 *  0.017440 *   4.00000    1.000000    
     11 Ge    c    0.160660 *  0.705910 *  0.982560 *   4.00000    1.000000    
     12 Ge    c    0.660660 *  0.705910 *  0.017440 *   4.00000    1.000000    
     13 Si    c    0.556730 *  0.000000 *  0.122130 *   4.00000    1.000000    
     14 Si    c    0.943270 *  0.000000 *  0.122130 *   4.00000    1.000000    
     15 Si    c    0.056730 *  0.000000 *  0.877870 *   4.00000    1.000000    
     16 Si    c    0.339810 *  0.706090 *  0.273440 *   4.00000    1.000000    
     17 Si    c    0.660190 *  0.706090 *  0.726560 *   4.00000    1.000000    
     18 Si    c    0.660190 *  0.293910 *  0.726560 *   4.00000    1.000000    
     19 Si    c    0.160190 *  0.706090 *  0.273440 *   4.00000    1.000000    
     20 Si    c    0.660660 *  0.294090 *  0.017440 *   4.00000    1.000000    
     21 Si    c    0.339340 *  0.294090 *  0.982560 *   4.00000    1.000000    
     22 Si    c    0.339340 *  0.705910 *  0.982560 *   4.00000    1.000000    
     23 Si    c    0.160660 *  0.294090 *  0.982560 *   4.00000    1.000000    
     24 Si    c    0.839340 *  0.294090 *  0.017440 *   4.00000    1.000000    
     25 O1    c    0.106570 *  0.174340 *  0.366200 *   1.73396    1.000000    
     26 O3    c    0.393430 *  0.825660 *  0.366200 *   1.33043    1.000000    
     27 O1    c    0.893430 *  0.174340 *  0.633800 *   1.73396    1.000000    
     28 O3    c    0.606570 *  0.825660 *  0.633800 *   1.33043    1.000000    
     29 O1    c    0.893430 *  0.825660 *  0.633800 *   1.73396    1.000000    
     30 O3    c    0.606570 *  0.174340 *  0.633800 *   1.33043    1.000000    
     31 O3    c    0.106570 *  0.825660 *  0.366200 *   1.33043    1.000000    
     32 O1    c    0.393430 *  0.174340 *  0.366200 *   1.73396    1.000000    
     33 O1    c    0.000000 *  0.000000 *  0.500000 *   1.73396    1.000000    
     34 O1    c    0.500000 *  0.000000 *  0.500000 *   1.73396    1.000000    
     35 O3    c    0.994520 *  0.000000 *  0.250840 *   1.33043    1.000000    
     36 O3    c    0.505480 *  0.000000 *  0.250840 *   1.33043    1.000000    
     37 O3    c    0.005480 *  0.000000 *  0.749160 *   1.33043    1.000000    
     38 O1    c    0.494520 *  0.000000 *  0.749160 *   1.73396    1.000000    
     39 O2    c    0.610230 *  0.175520 *  0.115390 *   0.87073    1.000000    
     40 O3    c    0.889770 *  0.824480 *  0.115390 *   1.33043    1.000000    
     41 O3    c    0.389770 *  0.175520 *  0.884610 *   1.33043    1.000000    
     42 O3    c    0.110230 *  0.824480 *  0.884610 *   1.33043    1.000000    
     43 O3    c    0.389770 *  0.824480 *  0.884610 *   1.33043    1.000000    
     44 O2    c    0.110230 *  0.175520 *  0.884610 *   0.87073    1.000000    
     45 O3    c    0.610230 *  0.824480 *  0.115390 *   1.33043    1.000000    
     46 O2    c    0.889770 *  0.175520 *  0.115390 *   0.87073    1.000000    
     47 O3    c    0.500000 *  0.000000 *  0.000000 *   1.33043    1.000000    
     48 O2    c    0.000000 *  0.000000 *  0.000000 *   0.87073    1.000000    
     49 O3    c    0.151750 *  0.500000 *  0.313330 *   1.33043    1.000000    
     50 O3    c    0.348250 *  0.500000 *  0.313330 *   1.33043    1.000000    
     51 O1    c    0.848250 *  0.500000 *  0.686670 *   1.73396    1.000000    
     52 O2    c    0.651750 *  0.500000 *  0.686670 *   0.87073    1.000000    
     53 O1    c    0.250000 *  0.234950 *  0.285720 *   1.73396    1.000000    
     54 O2    c    0.250000 *  0.765050 *  0.285720 *   0.87073    1.000000    
     55 O3    c    0.750000 *  0.234950 *  0.714280 *   1.33043    1.000000    
     56 O3    c    0.750000 *  0.765050 *  0.714280 *   1.33043    1.000000    
     57 O3    c    0.131410 *  0.268650 *  0.127790 *   1.33043    1.000000    
     58 O2    c    0.368590 *  0.731350 *  0.127790 *   0.87073    1.000000    
     59 O3    c    0.868590 *  0.268650 *  0.872210 *   1.33043    1.000000    
     60 O3    c    0.631410 *  0.731350 *  0.872210 *   1.33043    1.000000    
     61 O1    c    0.868590 *  0.731350 *  0.872210 *   1.73396    1.000000    
     62 O2    c    0.631410 *  0.268650 *  0.872210 *   0.87073    1.000000    
     63 O3    c    0.131410 *  0.731350 *  0.127790 *   1.33043    1.000000    
     64 O3    c    0.368590 *  0.268650 *  0.127790 *   1.33043    1.000000    
     65 O3    c    0.653920 *  0.500000 *  0.058200 *   1.33043    1.000000    
     66 O3    c    0.846080 *  0.500000 *  0.058200 *   1.33043    1.000000    
     67 O2    c    0.346080 *  0.500000 *  0.941800 *   0.87073    1.000000    
     68 O3    c    0.153920 *  0.500000 *  0.941800 *   1.33043    1.000000    
     69 O2    c    0.750000 *  0.231060 *  0.027050 *   0.87073    1.000000    
     70 O1    c    0.750000 *  0.768940 *  0.027050 *   1.73396    1.000000    
     71 O2    c    0.250000 *  0.231060 *  0.972950 *   0.87073    1.000000    
     72 O3    c    0.250000 *  0.768940 *  0.972950 *   1.33043    1.000000    
     73 O1    s    0.106570 *  0.174340 *  0.366200 *  -3.73396    1.000000    
     74 O3    s    0.393430 *  0.825660 *  0.366200 *  -3.33043    1.000000    
     75 O1    s    0.893430 *  0.174340 *  0.633800 *  -3.73396    1.000000    
     76 O3    s    0.606570 *  0.825660 *  0.633800 *  -3.33043    1.000000    
     77 O1    s    0.893430 *  0.825660 *  0.633800 *  -3.73396    1.000000    
     78 O3    s    0.606570 *  0.174340 *  0.633800 *  -3.33043    1.000000    
     79 O3    s    0.106570 *  0.825660 *  0.366200 *  -3.33043    1.000000    
     80 O1    s    0.393430 *  0.174340 *  0.366200 *  -3.73396    1.000000    
     81 O1    s    0.000000 *  0.000000 *  0.500000 *  -3.73396    1.000000    
     82 O1    s    0.500000 *  0.000000 *  0.500000 *  -3.73396    1.000000    
     83 O3    s    0.994520 *  0.000000 *  0.250840 *  -3.33043    1.000000    
     84 O3    s    0.505480 *  0.000000 *  0.250840 *  -3.33043    1.000000    
     85 O3    s    0.005480 *  0.000000 *  0.749160 *  -3.33043    1.000000    
     86 O1    s    0.494520 *  0.000000 *  0.749160 *  -3.73396    1.000000    
     87 O2    s    0.610230 *  0.175520 *  0.115390 *  -2.87073    1.000000    
     88 O3    s    0.889770 *  0.824480 *  0.115390 *  -3.33043    1.000000    
     89 O3    s    0.389770 *  0.175520 *  0.884610 *  -3.33043    1.000000    
     90 O3    s    0.110230 *  0.824480 *  0.884610 *  -3.33043    1.000000    
     91 O3    s    0.389770 *  0.824480 *  0.884610 *  -3.33043    1.000000    
     92 O2    s    0.110230 *  0.175520 *  0.884610 *  -2.87073    1.000000    
     93 O3    s    0.610230 *  0.824480 *  0.115390 *  -3.33043    1.000000    
     94 O2    s    0.889770 *  0.175520 *  0.115390 *  -2.87073    1.000000    
     95 O3    s    0.500000 *  0.000000 *  0.000000 *  -3.33043    1.000000    
     96 O2    s    0.000000 *  0.000000 *  0.000000 *  -2.87073    1.000000    
     97 O3    s    0.151750 *  0.500000 *  0.313330 *  -3.33043    1.000000    
     98 O3    s    0.348250 *  0.500000 *  0.313330 *  -3.33043    1.000000    
     99 O1    s    0.848250 *  0.500000 *  0.686670 *  -3.73396    1.000000    
    100 O2    s    0.651750 *  0.500000 *  0.686670 *  -2.87073    1.000000    
    101 O1    s    0.250000 *  0.234950 *  0.285720 *  -3.73396    1.000000    
    102 O2    s    0.250000 *  0.765050 *  0.285720 *  -2.87073    1.000000    
    103 O3    s    0.750000 *  0.234950 *  0.714280 *  -3.33043    1.000000    
    104 O3    s    0.750000 *  0.765050 *  0.714280 *  -3.33043    1.000000    
    105 O3    s    0.131410 *  0.268650 *  0.127790 *  -3.33043    1.000000    
    106 O2    s    0.368590 *  0.731350 *  0.127790 *  -2.87073    1.000000    
    107 O3    s    0.868590 *  0.268650 *  0.872210 *  -3.33043    1.000000    
    108 O3    s    0.631410 *  0.731350 *  0.872210 *  -3.33043    1.000000    
    109 O1    s    0.868590 *  0.731350 *  0.872210 *  -3.73396    1.000000    
    110 O2    s    0.631410 *  0.268650 *  0.872210 *  -2.87073    1.000000    
    111 O3    s    0.131410 *  0.731350 *  0.127790 *  -3.33043    1.000000    
    112 O3    s    0.368590 *  0.268650 *  0.127790 *  -3.33043    1.000000    
    113 O3    s    0.653920 *  0.500000 *  0.058200 *  -3.33043    1.000000    
    114 O3    s    0.846080 *  0.500000 *  0.058200 *  -3.33043    1.000000    
    115 O2    s    0.346080 *  0.500000 *  0.941800 *  -2.87073    1.000000    
    116 O3    s    0.153920 *  0.500000 *  0.941800 *  -3.33043    1.000000    
    117 O2    s    0.750000 *  0.231060 *  0.027050 *  -2.87073    1.000000    
    118 O1    s    0.750000 *  0.768940 *  0.027050 *  -3.73396    1.000000    
    119 O2    s    0.250000 *  0.231060 *  0.972950 *  -2.87073    1.000000    
    120 O3    s    0.250000 *  0.768940 *  0.972950 *  -3.33043    1.000000    
--------------------------------------------------------------------------------



********************************************************************************
*  General input information                                                   *
********************************************************************************

  Species output for all configurations : 

--------------------------------------------------------------------------------
  Species    Type    Atomic    Atomic    Charge       Radii (Angs)     Library
                     Number     Mass       (e)     Cova   Ionic  VDW   Symbol
--------------------------------------------------------------------------------
    Ge       Core       32      72.61   4.000000   1.170  0.000  1.750 Ge       
    Si       Core       14      28.09   4.000000   1.200  0.000  2.100 Si       
    O1       Core        8      16.00   1.733957   0.730  0.000  1.360 O1       
    O2       Core        8      16.00   0.870733   0.730  0.000  1.360 O2       
    O3       Core        8      16.00   1.330431   0.730  0.000  1.360 O3       
    O1       Shell       8       0.00  -3.733957   0.730  0.000  0.000 O1       
    O2       Shell       8       0.00  -2.870733   0.730  0.000  0.000 O2       
    O3       Shell       8       0.00  -3.330431   0.730  0.000  0.000 O3       
--------------------------------------------------------------------------------


  Lattice summation method               =    Ewald          (3-D)
                                         =    Parry          (2-D)
                                         =    Saunders et al (1-D)
  Accuracy factor for lattice sums       =   12.000


  Analytic derivatives to be used

  Time limit = Infinity

  Maximum range for interatomic potentials =    100000.000000 Angstroms

  General interatomic potentials :

--------------------------------------------------------------------------------
Atom  Types   Potential      Parameter       Value         Units   Cutoffs(Ang)
  1     2                                                            Min /  Max 
--------------------------------------------------------------------------------
Si   c O1   s Buckingham    Buckingham A     1315.2478    eV        0.000 16.000
                            Buckingham rho  0.31775900    Ang       
                            Buckingham C     10.141118    eV*Ang^6  
--------------------------------------------------------------------------------
Si   c O2   s Buckingham    Buckingham A     1315.2478    eV        0.000 16.000
                            Buckingham rho  0.31775900    Ang       
                            Buckingham C     10.141118    eV*Ang^6  
--------------------------------------------------------------------------------
Si   c O3   s Buckingham    Buckingham A     1315.2478    eV        0.000 16.000
                            Buckingham rho  0.31775900    Ang       
                            Buckingham C     10.141118    eV*Ang^6  
--------------------------------------------------------------------------------
Ge   c O1   s Buckingham    Buckingham A     1497.3996    eV        0.000 16.000
                            Buckingham rho  0.32564600    Ang       
                            Buckingham C     16.808599    eV*Ang^6  
--------------------------------------------------------------------------------
Ge   c O2   s Buckingham    Buckingham A     1497.3996    eV        0.000 16.000
                            Buckingham rho  0.32564600    Ang       
                            Buckingham C     16.808599    eV*Ang^6  
--------------------------------------------------------------------------------
Ge   c O3   s Buckingham    Buckingham A     1497.3996    eV        0.000 16.000
                            Buckingham rho  0.32564600    Ang       
                            Buckingham C     16.808599    eV*Ang^6  
--------------------------------------------------------------------------------
O1   s O1   s Buckingham    Buckingham A     22764.000    eV        0.000 16.000
                            Buckingham rho  0.14900000    Ang       
                            Buckingham C     10.937044    eV*Ang^6  
--------------------------------------------------------------------------------
O1   s O2   s Buckingham    Buckingham A     22764.000    eV        0.000 16.000
                            Buckingham rho  0.14900000    Ang       
                            Buckingham C     10.937044    eV*Ang^6  
--------------------------------------------------------------------------------
O1   s O3   s Buckingham    Buckingham A     22764.000    eV        0.000 16.000
                            Buckingham rho  0.14900000    Ang       
                            Buckingham C     10.937044    eV*Ang^6  
--------------------------------------------------------------------------------
O2   s O2   s Buckingham    Buckingham A     22764.000    eV        0.000 16.000
                            Buckingham rho  0.14900000    Ang       
                            Buckingham C     10.937044    eV*Ang^6  
--------------------------------------------------------------------------------
O2   s O3   s Buckingham    Buckingham A     22764.000    eV        0.000 16.000
                            Buckingham rho  0.14900000    Ang       
                            Buckingham C     10.937044    eV*Ang^6  
--------------------------------------------------------------------------------
O3   s O3   s Buckingham    Buckingham A     22764.000    eV        0.000 16.000
                            Buckingham rho  0.14900000    Ang       
                            Buckingham C     10.937044    eV*Ang^6  
--------------------------------------------------------------------------------
O1   c O1   s Spring (c-s)  Spring k 2       180.31577    eV*Ang^-2 0.000  0.800
                            Spring k 4       0.0000000    eV*Ang^-4 
--------------------------------------------------------------------------------
O2   c O2   s Spring (c-s)  Spring k 2       75.969800    eV*Ang^-2 0.000  0.800
                            Spring k 4       0.0000000    eV*Ang^-4 
--------------------------------------------------------------------------------
O3   c O3   s Spring (c-s)  Spring k 2       128.14270    eV*Ang^-2 0.000  0.800
                            Spring k 4       0.0000000    eV*Ang^-4 
--------------------------------------------------------------------------------

  General Three-body potentials :

--------------------------------------------------------------------------------
  Atoms       Potential      Parameter       Value         Units   Cutoffs(Ang)
  1 / 2 / 3                                                          Min /  Max 
--------------------------------------------------------------------------------
Si    core    Harmonic      Three-body cnst  1.2614000    eV*rad^-2 0.000  1.900
O1    shel                  Three-body angl  109.47000    degrees   0.000  1.900
O1    shel                  Three-body k4    0.0000000    eV*rad^-4 0.000  3.500
                            Three-body k3    0.0000000    eV*rad^-3 
--------------------------------------------------------------------------------
Si    core    Harmonic      Three-body cnst  1.2614000    eV*rad^-2 0.000  1.900
O1    shel                  Three-body angl  109.47000    degrees   0.000  1.900
õ(1   shel                  Three-body k4    0.0000000    eV*rad^-4 0.000  3.500
                            Three-body k3    0.0000000    eV*rad^-3 
--------------------------------------------------------------------------------
Si    core    Harmonic      Three-body cnst  1.2614000    eV*rad^-2 0.000  1.900
õ(1   shel                  Three-body angl  109.47000    degrees   0.000  1.900
õ(1   shel                  Three-body k4    0.0000000    eV*rad^-4 0.000  3.500
                            Three-body k3    0.0000000    eV*rad^-3 
--------------------------------------------------------------------------------
Si    core    Harmonic      Three-body cnst  1.2614000    eV*rad^-2 0.000  1.900
O1    shel                  Three-body angl  109.47000    degrees   0.000  1.900
O2    shel                  Three-body k4    0.0000000    eV*rad^-4 0.000  3.500
                            Three-body k3    0.0000000    eV*rad^-3 
--------------------------------------------------------------------------------
Si    core    Harmonic      Three-body cnst  1.2614000    eV*rad^-2 0.000  1.900
O1    shel                  Three-body angl  109.47000    degrees   0.000  1.900
õ(2   shel                  Three-body k4    0.0000000    eV*rad^-4 0.000  3.500
                            Three-body k3    0.0000000    eV*rad^-3 
--------------------------------------------------------------------------------
Si    core    Harmonic      Three-body cnst  1.2614000    eV*rad^-2 0.000  1.900
O2    shel                  Three-body angl  109.47000    degrees   0.000  1.900
õ(1   shel                  Three-body k4    0.0000000    eV*rad^-4 0.000  3.500
                            Three-body k3    0.0000000    eV*rad^-3 
--------------------------------------------------------------------------------
Si    core    Harmonic      Three-body cnst  1.2614000    eV*rad^-2 0.000  1.900
õ(1   shel                  Three-body angl  109.47000    degrees   0.000  1.900
õ(2   shel                  Three-body k4    0.0000000    eV*rad^-4 0.000  3.500
                            Three-body k3    0.0000000    eV*rad^-3 
--------------------------------------------------------------------------------
Si    core    Harmonic      Three-body cnst  1.2614000    eV*rad^-2 0.000  1.900
O2    shel                  Three-body angl  109.47000    degrees   0.000  1.900
O2    shel                  Three-body k4    0.0000000    eV*rad^-4 0.000  3.500
                            Three-body k3    0.0000000    eV*rad^-3 
--------------------------------------------------------------------------------
Si    core    Harmonic      Three-body cnst  1.2614000    eV*rad^-2 0.000  1.900
O2    shel                  Three-body angl  109.47000    degrees   0.000  1.900
õ(2   shel                  Three-body k4    0.0000000    eV*rad^-4 0.000  3.500
                            Three-body k3    0.0000000    eV*rad^-3 
--------------------------------------------------------------------------------
Si    core    Harmonic      Three-body cnst  1.2614000    eV*rad^-2 0.000  1.900
õ(2   shel                  Three-body angl  109.47000    degrees   0.000  1.900
õ(2   shel                  Three-body k4    0.0000000    eV*rad^-4 0.000  3.500
                            Three-body k3    0.0000000    eV*rad^-3 
--------------------------------------------------------------------------------

********************************************************************************
*  Output for configuration   1 : POSCAR_N0012.vasp                            *
********************************************************************************


  Components of energy : 

--------------------------------------------------------------------------------
  Interatomic potentials     =         832.41891260 eV    
  Three-body potentials      =           0.00260095 eV    
  Monopole - monopole (real) =       -2676.00317478 eV    
  Monopole - monopole (recip)=       -1115.35404472 eV    
  Monopole - monopole (total)=       -3791.35721950 eV    
--------------------------------------------------------------------------------
  Total lattice energy       =       -2958.93570596 eV    
--------------------------------------------------------------------------------
  Total lattice energy       =         -285492.0642 kJ/(mole unit cells)
--------------------------------------------------------------------------------


  Number of variables =      363

  Maximum number of calculations  =          1000
  Maximum Hessian update interval =            10
  Maximum step size               =   0.100000000
  Maximum parameter tolerance     =   0.000010000
  Maximum function  tolerance     =   0.000010000
  Maximum gradient  tolerance     =   0.001000000
  Maximum gradient  component     =   0.010000000

  Symmetry not applied to optimisation

  Cell parameters to be optimised using strains

  Newton-Raphson optimiser to be used

  BFGS hessian update to be used

  Lower half triangular hessian to be used

  Minimiser to switch to RFO
  When gradient norm is less than     0.050000

  Dumpfile to be written after every cycle

  Start of bulk optimisation :

  Cycle:      0 Energy:     -2958.935706  Gnorm:      5.157575  CPU:    0.104
  ** Hessian calculated **
  Cycle:      1 Energy:     -2994.941864  Gnorm:      1.224975  CPU:    0.225
  ** Hessian calculated **
  Cycle:      2 Energy:     -2998.477316  Gnorm:      0.700084  CPU:    0.416
  Cycle:      3 Energy:     -2999.744915  Gnorm:      0.490797  CPU:    0.513
  Cycle:      4 Energy:     -3001.268268  Gnorm:      0.408514  CPU:    0.627
  Cycle:      5 Energy:     -3002.854248  Gnorm:      0.313796  CPU:    0.742
  Cycle:      6 Energy:     -3003.632588  Gnorm:      0.247602  CPU:    0.837
  Cycle:      7 Energy:     -3003.999015  Gnorm:      0.167429  CPU:    0.926
  Cycle:      8 Energy:     -3004.153161  Gnorm:      0.115869  CPU:    1.007
  Cycle:      9 Energy:     -3004.231489  Gnorm:      0.086473  CPU:    1.106
  Cycle:     10 Energy:     -3004.284725  Gnorm:      0.078126  CPU:    1.205
  Cycle:     11 Energy:     -3004.346748  Gnorm:      0.081657  CPU:    1.310
  ** Hessian calculated **
  Cycle:     12 Energy:     -3004.375273  Gnorm:      0.080886  CPU:    1.493
  Cycle:     13 Energy:     -3004.423877  Gnorm:      0.079406  CPU:    1.611
  Cycle:     14 Energy:     -3004.504177  Gnorm:      0.076399  CPU:    1.728
  Cycle:     15 Energy:     -3004.610062  Gnorm:      0.071213  CPU:    1.830
  Cycle:     16 Energy:     -3004.688433  Gnorm:      0.067733  CPU:    1.933
  ** Hessian calculated **
  Cycle:     17 Energy:     -3004.701498  Gnorm:      0.056027  CPU:    2.116
  Cycle:     18 Energy:     -3004.718365  Gnorm:      0.049539  CPU:    2.219
  ** Hessian has required structure
  Cycle:     19 Energy:     -3004.734825  Gnorm:      0.092243  CPU:    2.359
  ** Hessian has required structure
  Cycle:     20 Energy:     -3004.758701  Gnorm:      0.100030  CPU:    2.514
  ** Hessian has required structure
  Cycle:     21 Energy:     -3004.773040  Gnorm:      0.103616  CPU:    2.636
  ** Hessian has required structure
  Cycle:     22 Energy:     -3004.779500  Gnorm:      0.098615  CPU:    2.760
  ** Hessian has required structure
  Cycle:     23 Energy:     -3004.792521  Gnorm:      0.142822  CPU:    2.902
  ** Hessian has required structure
  Cycle:     24 Energy:     -3004.802293  Gnorm:      0.105896  CPU:    3.027
  ** Hessian has required structure
  Cycle:     25 Energy:     -3004.808917  Gnorm:      0.094827  CPU:    3.151
  ** Hessian has required structure
  Cycle:     26 Energy:     -3004.814812  Gnorm:      0.084186  CPU:    3.275
  ** Hessian has wrong structure
  ** Imaginary eigenvectors =   4
  ** Hessian has wrong structure
  ** Imaginary eigenvectors =   4
  Cycle:     27 Energy:     -3004.887189  Gnorm:      0.101600  CPU:    3.778
  ** Hessian has wrong structure
  ** Imaginary eigenvectors =   2
  ** Hessian has wrong structure
  ** Imaginary eigenvectors =   1
  Cycle:     28 Energy:     -3004.937171  Gnorm:      0.103755  CPU:    4.198
  ** Hessian has wrong structure
  ** Imaginary eigenvectors =   1
  ** Hessian has required structure
  Cycle:     29 Energy:     -3005.263324  Gnorm:      0.087546  CPU:    4.672
  ** Hessian has required structure
  Cycle:     30 Energy:     -3005.421115  Gnorm:      0.044672  CPU:    4.810
  ** Hessian has required structure
  Cycle:     31 Energy:     -3005.474558  Gnorm:      0.035205  CPU:    4.947
  ** Hessian has required structure
  Cycle:     32 Energy:     -3005.502269  Gnorm:      0.033766  CPU:    5.085
  ** Hessian has required structure
  Cycle:     33 Energy:     -3005.513232  Gnorm:      0.024916  CPU:    5.223
  ** Hessian has required structure
  Cycle:     34 Energy:     -3005.521069  Gnorm:      0.014228  CPU:    5.361
  ** Hessian has required structure
  Cycle:     35 Energy:     -3005.525567  Gnorm:      0.015552  CPU:    5.498
  ** Hessian has required structure
  Cycle:     36 Energy:     -3005.528505  Gnorm:      0.013166  CPU:    5.637
  ** Hessian has required structure
  Cycle:     37 Energy:     -3005.530557  Gnorm:      0.015267  CPU:    5.792
  ** Hessian has required structure
  Cycle:     38 Energy:     -3005.532136  Gnorm:      0.011320  CPU:    5.935
  ** Hessian has required structure
  Cycle:     39 Energy:     -3005.534689  Gnorm:      0.007562  CPU:    6.168
  ** Hessian has required structure
  Cycle:     40 Energy:     -3005.535968  Gnorm:      0.005336  CPU:    6.340
  ** Hessian has required structure
  Cycle:     41 Energy:     -3005.537014  Gnorm:      0.004479  CPU:    6.519
  ** Hessian has required structure
  Cycle:     42 Energy:     -3005.538462  Gnorm:      0.009052  CPU:    6.697
  ** Hessian has required structure
  Cycle:     43 Energy:     -3005.539458  Gnorm:      0.019065  CPU:    6.856
  ** Hessian has required structure
  Cycle:     44 Energy:     -3005.540621  Gnorm:      0.018043  CPU:    7.035
  ** Hessian has required structure
  Cycle:     45 Energy:     -3005.542535  Gnorm:      0.019636  CPU:    7.214
  ** Hessian has required structure
  Cycle:     46 Energy:     -3005.546075  Gnorm:      0.023779  CPU:    7.409
  ** Hessian has required structure
  Cycle:     47 Energy:     -3005.552452  Gnorm:      0.027671  CPU:    7.565
  ** Hessian has required structure
  Cycle:     48 Energy:     -3005.564633  Gnorm:      0.037658  CPU:    7.719
  ** Hessian has wrong structure
  ** Imaginary eigenvectors =   2
  Cycle:     49 Energy:     -3005.616789  Gnorm:      0.059362  CPU:    8.029
  ** Hessian has required structure
  Cycle:     50 Energy:     -3005.696989  Gnorm:      0.035640  CPU:    8.259
  ** Hessian has required structure
  Cycle:     51 Energy:     -3005.737261  Gnorm:      0.027934  CPU:    8.411
  ** Hessian has required structure
  Cycle:     52 Energy:     -3005.769819  Gnorm:      0.015679  CPU:    8.565
  ** Hessian has required structure
  Cycle:     53 Energy:     -3005.781596  Gnorm:      0.029275  CPU:    8.703
  ** Hessian has required structure
  Cycle:     54 Energy:     -3005.793840  Gnorm:      0.019937  CPU:    8.842
  ** Hessian has required structure
  Cycle:     55 Energy:     -3005.804155  Gnorm:      0.020721  CPU:    9.003
  ** Hessian has required structure
  Cycle:     56 Energy:     -3005.815567  Gnorm:      0.017431  CPU:    9.159
  ** Hessian has required structure
  Cycle:     57 Energy:     -3005.823335  Gnorm:      0.013821  CPU:    9.306
  ** Hessian has required structure
  Cycle:     58 Energy:     -3005.830982  Gnorm:      0.011633  CPU:    9.445
  ** Hessian has required structure
  Cycle:     59 Energy:     -3005.834242  Gnorm:      0.013508  CPU:    9.585
  ** Hessian has required structure
  Cycle:     60 Energy:     -3005.839069  Gnorm:      0.007801  CPU:    9.801
  ** Hessian has required structure
  Cycle:     61 Energy:     -3005.840545  Gnorm:      0.004559  CPU:    9.939
  ** Hessian has required structure
  Cycle:     62 Energy:     -3005.841118  Gnorm:      0.002171  CPU:   10.095
  ** Hessian has required structure
  Cycle:     63 Energy:     -3005.841245  Gnorm:      0.001342  CPU:   10.237
  ** Hessian has required structure
  Cycle:     64 Energy:     -3005.841304  Gnorm:      0.000624  CPU:   10.392
  ** Hessian has required structure
  Cycle:     65 Energy:     -3005.841319  Gnorm:      0.000353  CPU:   10.550
  ** Hessian has required structure
  Cycle:     66 Energy:     -3005.841323  Gnorm:      0.000182  CPU:   10.690
  ** Hessian has required structure
  Cycle:     67 Energy:     -3005.841323  Gnorm:      0.000180  CPU:   10.830
  ** Hessian has required structure
  Cycle:     68 Energy:     -3005.841323  Gnorm:      0.000179  CPU:   10.954
  ** Hessian has required structure
  Cycle:     69 Energy:     -3005.841323  Gnorm:      0.000178  CPU:   11.077
  ** Hessian has required structure
  Cycle:     70 Energy:     -3005.841323  Gnorm:      0.000177  CPU:   11.293
  ** Hessian has required structure
  Cycle:     71 Energy:     -3005.841323  Gnorm:      0.000176  CPU:   11.416
  ** Hessian has required structure
  Cycle:     72 Energy:     -3005.841323  Gnorm:      0.000176  CPU:   11.539
  ** Hessian has required structure
  Cycle:     73 Energy:     -3005.841323  Gnorm:      0.000175  CPU:   11.662
  ** Hessian has required structure
  Cycle:     74 Energy:     -3005.841323  Gnorm:      0.000175  CPU:   11.784
  ** Hessian has required structure
  Cycle:     75 Energy:     -3005.841323  Gnorm:      0.000175  CPU:   11.907
  ** Hessian has required structure
  Cycle:     76 Energy:     -3005.841324  Gnorm:      0.000164  CPU:   12.030
  ** Hessian has required structure
  Cycle:     77 Energy:     -3005.841324  Gnorm:      0.000164  CPU:   12.220
  ** Hessian has required structure
  Cycle:     78 Energy:     -3005.841324  Gnorm:      0.000164  CPU:   12.346
  ** Hessian has required structure
  Cycle:     79 Energy:     -3005.841324  Gnorm:      0.000164  CPU:   12.525
  ** Hessian has required structure
  Cycle:     80 Energy:     -3005.841324  Gnorm:      0.000163  CPU:   12.743
  ** Hessian has required structure
  Cycle:     81 Energy:     -3005.841324  Gnorm:      0.000163  CPU:   12.867
  ** Hessian has required structure
  Cycle:     82 Energy:     -3005.841324  Gnorm:      0.000163  CPU:   12.991
  ** Hessian has required structure
  Cycle:     83 Energy:     -3005.841324  Gnorm:      0.000163  CPU:   13.210
  ** Hessian has required structure
  Cycle:     84 Energy:     -3005.841323  Gnorm:      0.000163  CPU:   13.587
  ** Hessian calculated **
  Cycle:     85 Energy:     -3005.841323  Gnorm:      0.000179  CPU:   13.746
  ** Hessian has required structure
  ** Hessian has required structure
  Cycle:     86 Energy:     -3005.841323  Gnorm:      0.000179  CPU:   14.047
  ** Hessian calculated **


  **** Optimisation achieved ****


  Final energy =   -3005.84132326 eV      
  Final Gnorm  =       0.00017944

  Components of energy : 

--------------------------------------------------------------------------------
  Interatomic potentials     =         801.51600585 eV    
  Three-body potentials      =           0.02794233 eV    
  Monopole - monopole (real) =       -1871.06778422 eV    
  Monopole - monopole (recip)=       -1936.31748722 eV    
  Monopole - monopole (total)=       -3807.38527143 eV    
--------------------------------------------------------------------------------
  Total lattice energy       =       -3005.84132326 eV    
--------------------------------------------------------------------------------
  Total lattice energy       =         -290017.7392 kJ/(mole unit cells)
--------------------------------------------------------------------------------

  Final fractional coordinates of atoms :

--------------------------------------------------------------------------------
   No.  Atomic        x           y          z          Radius
        Label       (Frac)      (Frac)     (Frac)       (Angs) 
--------------------------------------------------------------------------------
     1  Ge    c     0.052090    0.000000    0.372270    0.000000
     2  Ge    c     0.456444    0.026084    0.351913    0.000000
     3  Ge    c     0.946930    0.041293    0.628049    0.000000
     4  Ge    c     0.547215    0.991161    0.627215    0.000000
     5  Ge    c     0.435007    0.003117    0.864669    0.000000
     6  Ge    c     0.170420    0.300083    0.314936    0.000000
     7  Ge    c     0.845904    0.344493    0.715903    0.000000
     8  Ge    c     0.821013    0.758784    0.746765    0.000000
     9  Ge    c     0.352955    0.342573    0.302657    0.000000
    10  Ge    c     0.832967    0.700617    0.061290    0.000000
    11  Ge    c     0.146859    0.663864    0.975760    0.000000
    12  Ge    c     0.654722    0.644390    0.058142    0.000000
    13  Si    c     0.556477    0.960764    0.096921    0.000000
    14  Si    c     0.945807    0.000985    0.115953    0.000000
    15  Si    c     0.052780    0.972215    0.877967    0.000000
    16  Si    c     0.334754    0.740230    0.267872    0.000000
    17  Si    c     0.648564    0.684853    0.740650    0.000000
    18  Si    c     0.664590    0.290959    0.712773    0.000000
    19  Si    c     0.153965    0.697726    0.280774    0.000000
    20  Si    c     0.666707    0.255638    0.018279    0.000000
    21  Si    c     0.338925    0.304236    0.993812    0.000000
    22  Si    c     0.328022    0.701930    0.966956    0.000000
    23  Si    c     0.163245    0.260212    0.004629    0.000000
    24  Si    c     0.846198    0.301058    0.020684    0.000000
    25  O1    c     0.113558    0.170840    0.409406    0.000000
    26  O3    c     0.374089    0.893038    0.349140    0.000000
    27  O1    c     0.913013    0.248777    0.623314    0.000000
    28  O3    c     0.578906    0.796597    0.690042    0.000000
    29  O1    c     0.867599    0.918003    0.663129    0.000000
    30  O3    c     0.615207    0.157919    0.625497    0.000000
    31  O3    c     0.108689    0.818892    0.375202    0.000000
    32  O1    c     0.422810    0.228762    0.382589    0.000000
    33  O1    c     0.979291    0.981147    0.478394    0.000000
    34  O1    c     0.521971    0.962051    0.465220    0.000000
    35  O3    c     0.013807    0.036985    0.217481    0.000000
    36  O3    c     0.496497    0.021748    0.199157    0.000000
    37  O3    c     0.025087    0.019324    0.733545    0.000000
    38  O1    c     0.465728    0.036830    0.708516    0.000000
    39  O2    c     0.632157    0.089292    0.093716    0.000000
    40  O3    c     0.895383    0.831969    0.153970    0.000000
    41  O3    c     0.391968    0.192454    0.905347    0.000000
    42  O3    c     0.086370    0.779803    0.875527    0.000000
    43  O3    c     0.373787    0.823561    0.868426    0.000000
    44  O2    c     0.118831    0.108543    0.925347    0.000000
    45  O3    c     0.586751    0.769988    0.129460    0.000000
    46  O2    c     0.892112    0.169042    0.113189    0.000000
    47  O3    c     0.517543    0.964019    0.953736    0.000000
    48  O2    c     0.979742    0.971487    0.971631    0.000000
    49  O3    c     0.129940    0.501329    0.310950    0.000000
    50  O3    c     0.376308    0.561109    0.300743    0.000000
    51  O1    c     0.862299    0.561892    0.718397    0.000000
    52  O2    c     0.630768    0.483843    0.701709    0.000000
    53  O1    c     0.264003    0.307908    0.368137    0.000000
    54  O2    c     0.246096    0.712627    0.304575    0.000000
    55  O3    c     0.751564    0.297385    0.667450    0.000000
    56  O3    c     0.728198    0.751213    0.680424    0.000000
    57  O3    c     0.167038    0.216813    0.156973    0.000000
    58  O2    c     0.340214    0.783599    0.112528    0.000000
    59  O3    c     0.857997    0.254201    0.871044    0.000000
    60  O3    c     0.665274    0.696339    0.895562    0.000000
    61  O1    c     0.824893    0.797982    0.910929    0.000000
    62  O2    c     0.657281    0.223995    0.862795    0.000000
    63  O3    c     0.135167    0.745687    0.130835    0.000000
    64  O3    c     0.350898    0.258399    0.145013    0.000000
    65  O3    c     0.625367    0.427599    0.064698    0.000000
    66  O3    c     0.872961    0.497751    0.048210    0.000000
    67  O2    c     0.360319    0.507573    0.970356    0.000000
    68  O3    c     0.124183    0.444286    0.976599    0.000000
    69  O2    c     0.756065    0.286408    0.055399    0.000000
    70  O1    c     0.743936    0.679909    0.128482    0.000000
    71  O2    c     0.249885    0.270878    0.951509    0.000000
    72  O3    c     0.239463    0.695584    0.924740    0.000000
    73  O1    s     0.113374    0.168163    0.399364    0.000000
    74  O3    s     0.376219    0.887126    0.340779    0.000000
    75  O1    s     0.910382    0.240879    0.630679    0.000000
    76  O3    s     0.583646    0.800566    0.690325    0.000000
    77  O1    s     0.870126    0.914894    0.667216    0.000000
    78  O3    s     0.614835    0.158236    0.634706    0.000000
    79  O3    s     0.108885    0.820692    0.365170    0.000000
    80  O1    s     0.420057    0.222347    0.374358    0.000000
    81  O1    s     0.982754    0.987306    0.481269    0.000000
    82  O1    s     0.518540    0.969441    0.468215    0.000000
    83  O3    s     0.009667    0.030239    0.219142    0.000000
    84  O3    s     0.499668    0.015541    0.200657    0.000000
    85  O3    s     0.021711    0.016263    0.740030    0.000000
    86  O1    s     0.469625    0.030752    0.714060    0.000000
    87  O2    s     0.628397    0.094400    0.085894    0.000000
    88  O3    s     0.895413    0.837942    0.143300    0.000000
    89  O3    s     0.389952    0.188329    0.911364    0.000000
    90  O3    s     0.088096    0.788489    0.883905    0.000000
    91  O3    s     0.374005    0.825486    0.878232    0.000000
    92  O2    s     0.116604    0.110575    0.929071    0.000000
    93  O3    s     0.589254    0.778127    0.120765    0.000000
    94  O2    s     0.892686    0.166012    0.103417    0.000000
    95  O3    s     0.514642    0.966899    0.960520    0.000000
    96  O2    s     0.983956    0.974522    0.976435    0.000000
    97  O3    s     0.135651    0.504818    0.308233    0.000000
    98  O3    s     0.370490    0.560729    0.297801    0.000000
    99  O1    s     0.857953    0.558937    0.720266    0.000000
   100  O2    s     0.636044    0.484304    0.706808    0.000000
   101  O1    s     0.263476    0.309887    0.359231    0.000000
   102  O2    s     0.246123    0.714001    0.298175    0.000000
   103  O3    s     0.750229    0.300404    0.675684    0.000000
   104  O3    s     0.727521    0.745468    0.691187    0.000000
   105  O3    s     0.166903    0.227505    0.153840    0.000000
   106  O2    s     0.338496    0.771216    0.113455    0.000000
   107  O3    s     0.855929    0.265664    0.874151    0.000000
   108  O3    s     0.662858    0.690922    0.893798    0.000000
   109  O1    s     0.825204    0.787604    0.909666    0.000000
   110  O2    s     0.658998    0.234071    0.863868    0.000000
   111  O3    s     0.137874    0.734651    0.133040    0.000000
   112  O3    s     0.349894    0.269304    0.142084    0.000000
   113  O3    s     0.631536    0.427714    0.059806    0.000000
   114  O3    s     0.867256    0.494182    0.046542    0.000000
   115  O2    s     0.354769    0.507088    0.972402    0.000000
   116  O3    s     0.129631    0.444269    0.979126    0.000000
   117  O2    s     0.755749    0.284792    0.047764    0.000000
   118  O1    s     0.743923    0.678807    0.118319    0.000000
   119  O2    s     0.250133    0.273279    0.961370    0.000000
   120  O3    s     0.240784    0.693583    0.933181    0.000000
--------------------------------------------------------------------------------

  Final Cartesian lattice vectors (Angstroms) :

       17.444393   -0.226005   -0.193780
       -0.097930    7.715791    0.016103
       -0.116443    0.017179   10.225433


  Final cell parameters and derivatives :

--------------------------------------------------------------------------------
       a           17.446934 Angstrom     dE/de1(xx)     0.009155 eV/strain
       b            7.716429 Angstrom     dE/de2(yy)     0.008861 eV/strain
       c           10.226110 Angstrom     dE/de3(zz)     0.009060 eV/strain
       alpha       89.775914 Degrees      dE/de4(yz)     0.001595 eV/strain
       beta        91.290009 Degrees      dE/de5(xz)     0.000330 eV/strain
       gamma       91.470669 Degrees      dE/de6(xy)     0.000024 eV/strain
--------------------------------------------------------------------------------

  Primitive cell volume =          1375.910991 Angs**3

  Density of cell =      2.385286 g/cm**3

  Non-primitive cell volume =          1375.910991 Angs**3


  Final internal derivatives :

--------------------------------------------------------------------------------
   No.  Atomic          a             b             c           Radius
        Label          (eV)          (eV)          (eV)        (eV/Angs)
--------------------------------------------------------------------------------
      1 Ge    c       0.000000      0.000000      0.000000      0.000000
      2 Ge    c       0.000342      0.000264     -0.000551      0.000000
      3 Ge    c      -0.001832      0.000623      0.003074      0.000000
      4 Ge    c      -0.000462     -0.000109      0.001973      0.000000
      5 Ge    c      -0.000762     -0.000617      0.000126      0.000000
      6 Ge    c      -0.002649      0.001613      0.000316      0.000000
      7 Ge    c       0.010331      0.001052     -0.006158      0.000000
      8 Ge    c      -0.016419      0.005386      0.004091      0.000000
      9 Ge    c       0.001225      0.000332      0.000908      0.000000
     10 Ge    c      -0.003159     -0.001038     -0.002605      0.000000
     11 Ge    c       0.000575      0.000049      0.004000      0.000000
     12 Ge    c       0.000931     -0.001594      0.000227      0.000000
     13 Si    c       0.000486     -0.001029     -0.000503      0.000000
     14 Si    c      -0.000650     -0.001913     -0.004051      0.000000
     15 Si    c      -0.001465      0.000905     -0.001586      0.000000
     16 Si    c      -0.002914     -0.000920     -0.001988      0.000000
     17 Si    c       0.005448     -0.000185      0.000874      0.000000
     18 Si    c      -0.013194      0.001205     -0.003552      0.000000
     19 Si    c       0.001748     -0.003414     -0.004508      0.000000
     20 Si    c      -0.001530     -0.002034      0.001862      0.000000
     21 Si    c      -0.000042     -0.000222     -0.000540      0.000000
     22 Si    c      -0.001754      0.000562      0.000563      0.000000
     23 Si    c      -0.001906     -0.000717      0.000074      0.000000
     24 Si    c      -0.000233     -0.001112     -0.000176      0.000000
     25 O1    c       0.000537      0.000600      0.001907      0.000000
     26 O3    c      -0.000687      0.000172      0.001229      0.000000
     27 O1    c      -0.000481     -0.000317      0.000086      0.000000
     28 O3    c      -0.009280      0.000632      0.000747      0.000000
     29 O1    c       0.001880      0.002051     -0.001004      0.000000
     30 O3    c       0.003297      0.001116     -0.001979      0.000000
     31 O3    c      -0.000640      0.000483      0.002736      0.000000
     32 O1    c      -0.000188      0.000381      0.000326      0.000000
     33 O1    c       0.000095     -0.001317     -0.001705      0.000000
     34 O1    c      -0.000781     -0.001519     -0.006372      0.000000
     35 O3    c       0.005160      0.001434      0.001242      0.000000
     36 O3    c      -0.002829      0.000329      0.000708      0.000000
     37 O3    c       0.001656     -0.000374      0.001290      0.000000
     38 O1    c      -0.000177     -0.000408     -0.001419      0.000000
     39 O2    c       0.000738     -0.001318      0.000521      0.000000
     40 O3    c      -0.003198     -0.001265     -0.000451      0.000000
     41 O3    c      -0.000671      0.000447     -0.000071      0.000000
     42 O3    c       0.000323     -0.001412     -0.000823      0.000000
     43 O3    c      -0.001021     -0.001071     -0.000301      0.000000
     44 O2    c       0.001822      0.000536      0.000569      0.000000
     45 O3    c      -0.001733      0.000640      0.000164      0.000000
     46 O2    c       0.000272     -0.001713      0.005637      0.000000
     47 O3    c      -0.000498     -0.000399     -0.000121      0.000000
     48 O2    c      -0.004163      0.000005      0.000617      0.000000
     49 O3    c       0.006327      0.005202     -0.003523      0.000000
     50 O3    c      -0.001376      0.000720     -0.000687      0.000000
     51 O1    c       0.013129     -0.012607     -0.006418      0.000000
     52 O2    c      -0.003489     -0.002277     -0.000946      0.000000
     53 O1    c       0.002312      0.000103      0.000772      0.000000
     54 O2    c      -0.001535      0.000259     -0.000939      0.000000
     55 O3    c       0.007814     -0.004000     -0.007200      0.000000
     56 O3    c       0.011134     -0.001281      0.002959      0.000000
     57 O3    c      -0.000671      0.000109     -0.001824      0.000000
     58 O2    c      -0.002098     -0.001259      0.001227      0.000000
     59 O3    c       0.016488     -0.005192     -0.003219      0.000000
     60 O3    c       0.006887     -0.000384      0.001464      0.000000
     61 O1    c       0.000153     -0.001565      0.008225      0.000000
     62 O2    c      -0.009990     -0.002784      0.000510      0.000000
     63 O3    c       0.009176     -0.002834      0.001673      0.000000
     64 O3    c       0.000768      0.000024     -0.000257      0.000000
     65 O3    c      -0.004964      0.009247      0.002619      0.000000
     66 O3    c       0.000127      0.013512      0.007045      0.000000
     67 O2    c      -0.000147     -0.000054      0.000110      0.000000
     68 O3    c       0.002361      0.001275      0.001157      0.000000
     69 O2    c      -0.009934      0.001833      0.006129      0.000000
     70 O1    c       0.006666     -0.001425     -0.000886      0.000000
     71 O2    c       0.000904     -0.000019      0.000196      0.000000
     72 O3    c      -0.000399     -0.000087      0.001724      0.000000
     73 O1    s       0.000264      0.000521     -0.001566      0.000000
     74 O3    s      -0.001307     -0.000462     -0.001436      0.000000
     75 O1    s       0.002386      0.001709     -0.002452      0.000000
     76 O3    s       0.003597      0.002206      0.000094      0.000000
     77 O1    s      -0.001756     -0.000470     -0.001856      0.000000
     78 O3    s      -0.006051     -0.000530     -0.000572      0.000000
     79 O3    s       0.002554     -0.002067     -0.002746      0.000000
     80 O1    s      -0.000088      0.000047     -0.000375      0.000000
     81 O1    s      -0.000870      0.000237     -0.000027      0.000000
     82 O1    s      -0.000185      0.000740      0.002814      0.000000
     83 O3    s       0.000474     -0.000282      0.000372      0.000000
     84 O3    s       0.001108      0.000448      0.000488      0.000000
     85 O3    s       0.000609      0.000626     -0.000526      0.000000
     86 O1    s       0.000841      0.001221      0.002039      0.000000
     87 O2    s      -0.002672     -0.000864      0.003086      0.000000
     88 O3    s      -0.000995     -0.001713      0.001340      0.000000
     89 O3    s       0.000391      0.000255      0.000204      0.000000
     90 O3    s       0.001801     -0.000625      0.001161      0.000000
     91 O3    s      -0.000333      0.000410      0.001345      0.000000
     92 O2    s       0.000229      0.000937      0.000413      0.000000
     93 O3    s       0.001194     -0.000344      0.000329      0.000000
     94 O2    s       0.004297     -0.001102      0.005969      0.000000
     95 O3    s       0.000817      0.000500     -0.001543      0.000000
     96 O2    s       0.004733     -0.000710     -0.000525      0.000000
     97 O3    s       0.001719     -0.000164     -0.002225      0.000000
     98 O3    s      -0.003540      0.000204     -0.001164      0.000000
     99 O1    s      -0.003277      0.007467      0.002081      0.000000
    100 O2    s       0.001054      0.000867     -0.001984      0.000000
    101 O1    s      -0.001544      0.000045     -0.002164      0.000000
    102 O2    s      -0.001995     -0.002305     -0.002039      0.000000
    103 O3    s      -0.001827      0.001712      0.002550      0.000000
    104 O3    s      -0.008367      0.001591     -0.005001      0.000000
    105 O3    s       0.001166      0.002077      0.000492      0.000000
    106 O2    s      -0.001702     -0.000923      0.000332      0.000000
    107 O3    s      -0.006225      0.001392     -0.006498      0.000000
    108 O3    s      -0.001468     -0.000041      0.002552      0.000000
    109 O1    s       0.001448      0.002254     -0.000055      0.000000
    110 O2    s       0.004648     -0.001299     -0.002067      0.000000
    111 O3    s       0.001558     -0.001379      0.001872      0.000000
    112 O3    s      -0.002065      0.000765     -0.000006      0.000000
    113 O3    s      -0.005137     -0.003092     -0.000134      0.000000
    114 O3    s       0.013195     -0.000061     -0.001613      0.000000
    115 O2    s      -0.003003     -0.000033      0.000992      0.000000
    116 O3    s       0.002369     -0.000235      0.000490      0.000000
    117 O2    s      -0.005085     -0.003976     -0.002165      0.000000
    118 O1    s      -0.003197      0.002394      0.000470      0.000000
    119 O2    s      -0.000541      0.001400      0.001472      0.000000
    120 O3    s      -0.000196     -0.001014      0.001652      0.000000
--------------------------------------------------------------------------------
  Maximum abs         0.016488      0.013512      0.008225      0.000000
--------------------------------------------------------------------------------


  Born effective charge tensors : 

-------------------------------------------------------------------------------
  Atom             x           y             z
-------------------------------------------------------------------------------
    1 Ge    x       4.2253     -0.0402      0.0378
            y       0.0433      3.8720      0.1227
            z      -0.8748     -0.0681      4.3700
-------------------------------------------------------------------------------
    2 Ge    x       4.1804     -0.3503      0.0135
            y       0.0989      3.9132      0.1283
            z       0.8044     -0.2543      4.4306
-------------------------------------------------------------------------------
    3 Ge    x       4.2756     -0.3729     -0.4173
            y       0.0629      3.8416     -0.0459
            z      -0.3578      0.2777      4.6146
-------------------------------------------------------------------------------
    4 Ge    x       4.1031     -0.1017      0.4142
            y       0.1905      3.8946     -0.2106
            z       0.1503      0.1895      4.6663
-------------------------------------------------------------------------------
    5 Ge    x       4.2704     -0.0640     -0.5011
            y       0.0666      3.9691      0.0953
            z      -0.4444     -0.1556      3.8754
-------------------------------------------------------------------------------
    6 Ge    x       3.9904      0.4501     -0.1082
            y       0.2206      4.1062     -0.3194
            z      -0.1821     -0.0588      3.4925
-------------------------------------------------------------------------------
    7 Ge    x       4.0002     -0.2401     -0.1567
            y      -0.3406      4.2016      0.3035
            z      -0.2609      0.0062      3.4609
-------------------------------------------------------------------------------
    8 Ge    x       3.8895      0.4320     -0.0043
            y       0.1453      4.2638     -0.1599
            z      -0.1960     -0.1025      3.5519
-------------------------------------------------------------------------------
    9 Ge    x       3.9812     -0.3700      0.0521
            y      -0.3757      4.1938     -0.3150
            z       0.1745     -0.0509      3.4505
-------------------------------------------------------------------------------
   10 Ge    x       4.0744      0.4688      0.0691
            y       0.2147      4.1964      0.2185
            z       0.1708     -0.0730      3.2686
-------------------------------------------------------------------------------
   11 Ge    x       3.9220     -0.3121      0.1270
            y      -0.3109      4.1950     -0.3393
            z       0.1353     -0.0055      3.2577
-------------------------------------------------------------------------------
   12 Ge    x       3.9827     -0.3436     -0.0016
            y      -0.2858      4.2145      0.2814
            z      -0.1736      0.0991      3.2778
-------------------------------------------------------------------------------
   13 Si    x       3.8568     -0.4199     -0.0117
            y      -0.0042      3.6105     -0.0965
            z      -0.6426      0.1938      3.4008
-------------------------------------------------------------------------------
   14 Si    x       3.8856      0.1856      0.0836
            y       0.1625      3.4861     -0.0917
            z       0.7209      0.1057      3.1363
-------------------------------------------------------------------------------
   15 Si    x       3.6198     -0.3888      0.4295
            y      -0.0652      3.5775     -0.0061
            z       0.4081     -0.2986      3.5309
-------------------------------------------------------------------------------
   16 Si    x       3.3040      0.4396      0.2079
            y       0.0509      3.8788      0.2530
            z       0.1804      0.1175      2.9633
-------------------------------------------------------------------------------
   17 Si    x       3.6811     -0.2696      0.0217
            y      -0.4010      3.6759     -0.1814
            z       0.3263     -0.1568      3.1973
-------------------------------------------------------------------------------
   18 Si    x       3.6098      0.4428      0.1113
            y       0.2703      3.6119      0.3090
            z       0.1485      0.1866      3.0525
-------------------------------------------------------------------------------
   19 Si    x       3.4094     -0.4008     -0.2249
            y      -0.2358      3.8913      0.2001
            z      -0.1985      0.0288      3.3066
-------------------------------------------------------------------------------
   20 Si    x       3.2390      0.3268     -0.1688
            y      -0.0949      3.6331      0.0157
            z      -0.1584      0.0309      2.7727
-------------------------------------------------------------------------------
   21 Si    x       3.4544     -0.4058     -0.2304
            y      -0.3410      3.6147      0.3043
            z      -0.2852      0.1045      3.1891
-------------------------------------------------------------------------------
   22 Si    x       3.6938      0.4531     -0.2070
            y       0.2455      3.5698     -0.4198
            z      -0.1680     -0.1437      2.9230
-------------------------------------------------------------------------------
   23 Si    x       3.3264      0.2890      0.1007
            y      -0.0172      3.7900      0.0324
            z       0.2085     -0.0428      3.0613
-------------------------------------------------------------------------------
   24 Si    x       3.3726     -0.2801      0.1400
            y      -0.0792      3.7864     -0.0327
            z       0.1313      0.1329      3.0237
-------------------------------------------------------------------------------
   25 O1    x      -2.1089     -0.9309      0.2584
            y      -0.9881     -2.4224      0.2828
            z       0.4158      0.2861     -1.6968
-------------------------------------------------------------------------------
   26 O3    x      -2.0479     -0.8841     -0.3615
            y      -0.9049     -2.2834     -0.5093
            z      -0.4392     -0.4474     -1.5251
-------------------------------------------------------------------------------
   27 O1    x      -2.0679      0.8625      0.4742
            y       0.8357     -2.4608     -0.3671
            z       0.5116     -0.3571     -1.6879
-------------------------------------------------------------------------------
   28 O3    x      -2.0246      0.9287     -0.4516
            y       0.8774     -2.3876      0.5370
            z      -0.4308      0.4717     -1.4819
-------------------------------------------------------------------------------
   29 O1    x      -2.3123     -0.8975      0.5307
            y      -0.9576     -2.3221      0.5543
            z       0.5445      0.4874     -1.6556
-------------------------------------------------------------------------------
   30 O3    x      -1.9717     -0.9244     -0.4560
            y      -0.9240     -2.3157     -0.4530
            z      -0.5050     -0.5417     -1.6096
-------------------------------------------------------------------------------
   31 O3    x      -1.9228      0.9089      0.4163
            y       0.8820     -2.3007     -0.5176
            z       0.4972     -0.4730     -1.6128
-------------------------------------------------------------------------------
   32 O1    x      -2.0487      0.9314     -0.2896
            y       0.8872     -2.6166      0.1934
            z      -0.4540      0.2401     -1.6093
-------------------------------------------------------------------------------
   33 O1    x      -2.0897      0.1421      0.9977
            y       0.0579     -1.2914     -0.1609
            z       1.3292     -0.2849     -3.3151
-------------------------------------------------------------------------------
   34 O1    x      -1.9359      0.1771     -1.0095
            y       0.0292     -1.3267      0.0470
            z      -1.1719      0.1497     -3.4459
-------------------------------------------------------------------------------
   35 O3    x      -2.1297     -0.0371     -0.9589
            y      -0.0426     -1.2663      0.0078
            z      -0.9272     -0.0020     -2.4946
-------------------------------------------------------------------------------
   36 O3    x      -2.0766      0.2695      0.9655
            y       0.1114     -1.3078     -0.1918
            z       0.9235     -0.2664     -2.5042
-------------------------------------------------------------------------------
   37 O3    x      -1.9228      0.2305     -0.8321
            y       0.1066     -1.2443      0.2235
            z      -0.8338      0.3297     -2.7677
-------------------------------------------------------------------------------
   38 O1    x      -2.2862      0.1316      0.8963
            y       0.0824     -1.3464     -0.0143
            z       0.8998      0.0288     -2.7489
-------------------------------------------------------------------------------
   39 O2    x      -1.7426     -0.6399      0.2441
            y      -0.6154     -1.9194      0.3193
            z       0.3106      0.2810     -1.2087
-------------------------------------------------------------------------------
   40 O3    x      -2.0244     -0.9209     -0.1486
            y      -0.8955     -2.3788     -0.1321
            z      -0.2684     -0.1396     -1.3562
-------------------------------------------------------------------------------
   41 O3    x      -2.0078      0.9446      0.6255
            y       0.8523     -2.3884     -0.6737
            z       0.5586     -0.5784     -1.5415
-------------------------------------------------------------------------------
   42 O3    x      -1.9032      0.9030     -0.3948
            y       0.7930     -2.5733      0.3580
            z      -0.3593      0.3360     -1.4136
-------------------------------------------------------------------------------
   43 O3    x      -1.9677     -0.9136      0.5361
            y      -0.8469     -2.2965      0.5536
            z       0.4766      0.5153     -1.5766
-------------------------------------------------------------------------------
   44 O2    x      -1.7676     -0.6586     -0.3932
            y      -0.6442     -1.9124     -0.4075
            z      -0.3823     -0.3498     -1.2784
-------------------------------------------------------------------------------
   45 O3    x      -1.8911      0.8778      0.1764
            y       0.7841     -2.5984     -0.0964
            z       0.3168     -0.1590     -1.2825
-------------------------------------------------------------------------------
   46 O2    x      -1.7087      0.7055     -0.2588
            y       0.6239     -1.9336      0.2960
            z      -0.3238      0.2701     -1.2227
-------------------------------------------------------------------------------
   47 O3    x      -2.1871      0.1362     -0.7484
            y       0.0212     -1.2864      0.0532
            z      -0.4899      0.0723     -2.0621
-------------------------------------------------------------------------------
   48 O2    x      -1.8427      0.0658      0.5475
            y       0.0121     -1.1904     -0.0732
            z       0.3289     -0.0676     -1.6956
-------------------------------------------------------------------------------
   49 O3    x      -1.3570     -0.0241      0.0656
            y       0.0620     -3.0198      0.2111
            z       0.0880      0.1563     -1.1947
-------------------------------------------------------------------------------
   50 O3    x      -1.4156      0.2239     -0.0989
            y       0.2757     -2.9546      0.2240
            z      -0.1242      0.1720     -1.2111
-------------------------------------------------------------------------------
   51 O1    x      -1.4663      0.1307      0.0534
            y       0.2365     -3.2540     -0.1850
            z       0.0970     -0.1074     -1.2559
-------------------------------------------------------------------------------
   52 O2    x      -1.1933      0.0952     -0.0435
            y       0.1428     -2.4390     -0.1055
            z      -0.0849     -0.0609     -1.1159
-------------------------------------------------------------------------------
   53 O1    x      -2.9920     -0.1484      0.0651
            y      -0.1014     -1.4240      0.0954
            z       0.0540      0.0315     -1.4157
-------------------------------------------------------------------------------
   54 O2    x      -2.3651     -0.1154      0.0996
            y      -0.0663     -1.2603     -0.0345
            z       0.0746     -0.0064     -1.1024
-------------------------------------------------------------------------------
   55 O3    x      -2.9550     -0.1625      0.1027
            y      -0.0714     -1.3373     -0.0639
            z       0.0893     -0.0189     -1.2731
-------------------------------------------------------------------------------
   56 O3    x      -2.7224     -0.3052      0.0542
            y      -0.2656     -1.4410      0.1062
            z       0.1139      0.1027     -1.2963
-------------------------------------------------------------------------------
   57 O3    x      -1.3062     -0.1405     -0.0026
            y      -0.0669     -1.4545     -0.0523
            z      -0.0441     -0.0716     -2.5808
-------------------------------------------------------------------------------
   58 O2    x      -1.2100     -0.1407      0.0285
            y      -0.0769     -1.3432     -0.0903
            z       0.0312     -0.0886     -1.9843
-------------------------------------------------------------------------------
   59 O3    x      -1.3482      0.1655      0.0061
            y       0.1288     -1.4303      0.0167
            z       0.0252      0.0711     -2.5313
-------------------------------------------------------------------------------
   60 O3    x      -1.3230      0.0792     -0.0051
            y       0.0786     -1.4346      0.0613
            z      -0.0590      0.0746     -2.6044
-------------------------------------------------------------------------------
   61 O1    x      -1.4134     -0.1201     -0.1876
            y      -0.0511     -1.5905      0.1371
            z      -0.1452      0.1632     -2.6181
-------------------------------------------------------------------------------
   62 O2    x      -1.1848     -0.1272     -0.0223
            y      -0.0626     -1.2966      0.1101
            z      -0.0057      0.1216     -2.0602
-------------------------------------------------------------------------------
   63 O3    x      -1.3562      0.1728     -0.1418
            y       0.1391     -1.4464      0.0025
            z      -0.1112     -0.0405     -2.5078
-------------------------------------------------------------------------------
   64 O3    x      -1.3115      0.1307     -0.1585
            y       0.1038     -1.4871      0.0117
            z      -0.1094     -0.0432     -2.5446
-------------------------------------------------------------------------------
   65 O3    x      -1.4683      0.2185      0.1588
            y       0.2369     -2.9656     -0.2884
            z       0.1813     -0.1971     -1.1891
-------------------------------------------------------------------------------
   66 O3    x      -1.4348     -0.0574     -0.0699
            y       0.0339     -3.1204     -0.2542
            z      -0.0956     -0.2151     -1.1130
-------------------------------------------------------------------------------
   67 O2    x      -1.2476      0.0417      0.0593
            y       0.0590     -2.4714      0.0833
            z       0.0832      0.0436     -1.0398
-------------------------------------------------------------------------------
   68 O3    x      -1.4494      0.1776     -0.0859
            y       0.2499     -3.1221      0.1755
            z      -0.1158      0.0946     -1.1150
-------------------------------------------------------------------------------
   69 O2    x      -2.4411     -0.1347     -0.0359
            y      -0.0530     -1.2632      0.0229
            z      -0.0406     -0.0052     -1.0492
-------------------------------------------------------------------------------
   70 O1    x      -3.0163     -0.2112     -0.0090
            y      -0.1395     -1.4428     -0.0897
            z      -0.0420     -0.0330     -1.4067
-------------------------------------------------------------------------------
   71 O2    x      -2.3633     -0.1667      0.0540
            y      -0.1154     -1.2727     -0.0532
            z       0.0399     -0.0212     -1.0733
-------------------------------------------------------------------------------
   72 O3    x      -3.0186     -0.1178     -0.0282
            y      -0.0343     -1.3466      0.0838
            z      -0.0439      0.0141     -1.1982
-------------------------------------------------------------------------------




  Elastic Constant Matrix: (Units=GPa)

-------------------------------------------------------------------------------
  Indices      1         2         3         4         5         6    
-------------------------------------------------------------------------------
       1     34.9063   17.6288    9.5987    2.9817   -2.3062   -9.0579
       2     17.6288   47.8285    7.4027    3.4824   -2.3450  -12.1581
       3      9.5987    7.4027   17.1825    1.0428   -0.7684   -3.4974
       4      2.9817    3.4824    1.0428    6.8681   -0.7001   -1.7548
       5     -2.3062   -2.3450   -0.7684   -0.7001   11.4016    0.8409
       6     -9.0579  -12.1581   -3.4974   -1.7548    0.8409   15.6947
-------------------------------------------------------------------------------


  Elastic Compliance Matrix: (Units=1/GPa)

-------------------------------------------------------------------------------
  Indices      1         2         3         4         5         6    
-------------------------------------------------------------------------------
       1    0.041818 -0.008962 -0.016316 -0.007520  0.004133  0.012494
       2   -0.008962  0.029439 -0.003953 -0.006117  0.002425  0.015938
       3   -0.016316 -0.003953  0.069674 -0.000704  0.000322  0.002952
       4   -0.007520 -0.006117 -0.000704  0.154672  0.006101  0.007732
       5    0.004133  0.002425  0.000322  0.006101  0.089421  0.000226
       6    0.012494  0.015938  0.002952  0.007732  0.000226  0.084783
-------------------------------------------------------------------------------

  Mechanical properties :

-------------------------------------------------------------------------------
  Convention :                    Reuss         Voigt         Hill
-------------------------------------------------------------------------------
  Bulk  Modulus (GPa)     =      12.12560      18.79753      15.46156
  Shear Modulus (GPa)     =       8.99670      11.14534      10.07102
-------------------------------------------------------------------------------
  Velocity S-wave (km/s)  =       1.94210       2.16161       2.05479
  Velocity P-wave (km/s)  =       3.18001       3.75642       3.48017
-------------------------------------------------------------------------------
  Compressibility (1/GPa) =    0.08247017
-------------------------------------------------------------------------------
  Stress axis :                     x             y             z
-------------------------------------------------------------------------------
  Youngs Moduli (GPa)     =      23.91295      33.96863      14.35248
-------------------------------------------------------------------------------
  Poissons Ratio (x)      =                     0.30443       0.23417
  Poissons Ratio (y)      =       0.21431                     0.05673
  Poissons Ratio (z)      =       0.39016       0.13427
-------------------------------------------------------------------------------


  Piezoelectric Strain Matrix: (Units=C/m**2)

-------------------------------------------------------------------------------
  Indices      1         2         3         4         5         6    
-------------------------------------------------------------------------------
       x     0.20328  -0.01902   0.61721  -0.19594   0.79378  -0.76003
       y     0.05069  -0.34141  -0.61108   0.02545  -0.21234   0.47344
       z     0.33664  -0.00304  -1.13646  -0.49527  -0.14162  -0.31661
-------------------------------------------------------------------------------


  Piezoelectric Stress Matrix: (Units=10**-11 C/N)

-------------------------------------------------------------------------------
  Indices      1         2         3         4         5         6    
-------------------------------------------------------------------------------
       x    -0.61412  -1.38121   3.79121  -3.31868   7.06059  -6.17153
       y     1.99958  -0.12142  -4.07426   0.84394  -1.95403   3.36763
       z     3.18304  -0.09744  -8.52937  -8.16296  -1.47380  -2.99014
-------------------------------------------------------------------------------


  Static dielectric constant tensor : 

-------------------------------------------------------------------------------
              x         y         z
-------------------------------------------------------------------------------
       x     5.27273  -0.25647  -0.09670
       y    -0.25647   5.41180   0.07469
       z    -0.09670   0.07469   4.20411
--------------------------------------------------------------------------------

  High frequency dielectric constant tensor : 

-------------------------------------------------------------------------------
              x         y         z
-------------------------------------------------------------------------------
       x     1.60588  -0.00193   0.00008
       y    -0.00193   1.61502   0.00073
       z     0.00008   0.00073   1.55248
-------------------------------------------------------------------------------

  Static refractive indices : 

-------------------------------------------------------------------------------
    1 =    2.04772      2 =    2.25336      3 =    2.37020
-------------------------------------------------------------------------------

  High frequency refractive indices : 

-------------------------------------------------------------------------------
    1 =    1.24598      2 =    1.26708      3 =    1.27099
-------------------------------------------------------------------------------


  Time to end of optimisation =      14.4144 seconds


  Peak dynamic memory used =       5.01 MB 


  Timing analysis for GULP :

--------------------------------------------------------------------------------
  Task / Subroutine                                          Time (Seconds)
--------------------------------------------------------------------------------
  Calculation of reciprocal space energy and derivatives          0.8891
  Calculation of real space energy and derivatives                9.2936
  Calculation of three-body energy and derivatives                0.2880
  Calculation and manipulation of Hessian matrix                  4.2803
  Calculation of matrix inversion                                 0.0412
  Global summation overhead                                       0.0002
--------------------------------------------------------------------------------
  Total CPU time                                                 14.4144
--------------------------------------------------------------------------------


  Dump file written as POSCAR_N0012.vasp.grs
  CIF file written as POSCAR_N0012.vasp.cif


  Job Finished at 07:47.39 31st October    2025                               

