********************************************************************************
*                       GENERAL UTILITY LATTICE PROGRAM                        *
*                                 Julian Gale                                  *
*                       Curtin Institute for Computation                       *
*                    School of Molecular and Life Sciences                     *
*                    Curtin University, Western Australia                      *
********************************************************************************
* Version = 6.1.2 * Last modified =   3rd November 2022                        *
********************************************************************************
*  optimise     - perform optimisation run                                     *
*  conp         - constant pressure calculation                                *
*  property     - calculate properties for final geometry                      *
********************************************************************************

  Job Started  at 07:45.54 31st October    2025                               

  Number of CPUs =     1


  Total number of configurations input =      1

********************************************************************************
*  Input for Configuration =   1 : POSCAR_N0005.vasp                           *
********************************************************************************

  Formula = Ge5Si19O48                                                  

  Number of irreducible atoms/shells =     120


  Total number atoms/shells =     120

  Dimensionality = 3               :  Bulk   



  Cartesian lattice vectors (Angstroms) :

       17.182800    0.000000    0.000000
        0.000000    7.513760    0.000000
        0.000000    0.000000   10.447700

  Cell parameters (Angstroms/Degrees):

  a =      17.1828    alpha =  90.0000
  b =       7.5138    beta  =  90.0000
  c =      10.4477    gamma =  90.0000

  Initial cell volume =        1348.875752 Angs**3

  Temperature of configuration =   0.00     K 

  Pressure of configuration =         0.000 GPa 

  Fractional coordinates of asymmetric unit :

--------------------------------------------------------------------------------
   No.  Atomic       x           y          z         Charge      Occupancy
        Label      (Frac)      (Frac)     (Frac)        (e)         (Frac)  
--------------------------------------------------------------------------------
      1 Ge    c    0.052090    0.000000    0.372270     4.00000    1.000000    
      2 Ge    c    0.552090 *  0.000000 *  0.627730 *   4.00000    1.000000    
      3 Ge    c    0.339810 *  0.706090 *  0.273440 *   4.00000    1.000000    
      4 Ge    c    0.839810 *  0.706090 *  0.726560 *   4.00000    1.000000    
      5 Ge    c    0.660660 *  0.294090 *  0.017440 *   4.00000    1.000000    
      6 Si    c    0.447910 *  0.000000 *  0.372270 *   4.00000    1.000000    
      7 Si    c    0.947910 *  0.000000 *  0.627730 *   4.00000    1.000000    
      8 Si    c    0.556730 *  0.000000 *  0.122130 *   4.00000    1.000000    
      9 Si    c    0.943270 *  0.000000 *  0.122130 *   4.00000    1.000000    
     10 Si    c    0.443270 *  0.000000 *  0.877870 *   4.00000    1.000000    
     11 Si    c    0.056730 *  0.000000 *  0.877870 *   4.00000    1.000000    
     12 Si    c    0.160190 *  0.293910 *  0.273440 *   4.00000    1.000000    
     13 Si    c    0.839810 *  0.293910 *  0.726560 *   4.00000    1.000000    
     14 Si    c    0.660190 *  0.706090 *  0.726560 *   4.00000    1.000000    
     15 Si    c    0.660190 *  0.293910 *  0.726560 *   4.00000    1.000000    
     16 Si    c    0.160190 *  0.706090 *  0.273440 *   4.00000    1.000000    
     17 Si    c    0.339810 *  0.293910 *  0.273440 *   4.00000    1.000000    
     18 Si    c    0.839340 *  0.705910 *  0.017440 *   4.00000    1.000000    
     19 Si    c    0.339340 *  0.294090 *  0.982560 *   4.00000    1.000000    
     20 Si    c    0.160660 *  0.705910 *  0.982560 *   4.00000    1.000000    
     21 Si    c    0.339340 *  0.705910 *  0.982560 *   4.00000    1.000000    
     22 Si    c    0.160660 *  0.294090 *  0.982560 *   4.00000    1.000000    
     23 Si    c    0.660660 *  0.705910 *  0.017440 *   4.00000    1.000000    
     24 Si    c    0.839340 *  0.294090 *  0.017440 *   4.00000    1.000000    
     25 O3    c    0.106570 *  0.174340 *  0.366200 *   1.33043    1.000000    
     26 O3    c    0.393430 *  0.825660 *  0.366200 *   1.33043    1.000000    
     27 O2    c    0.893430 *  0.174340 *  0.633800 *   0.87073    1.000000    
     28 O3    c    0.606570 *  0.825660 *  0.633800 *   1.33043    1.000000    
     29 O3    c    0.893430 *  0.825660 *  0.633800 *   1.33043    1.000000    
     30 O3    c    0.606570 *  0.174340 *  0.633800 *   1.33043    1.000000    
     31 O3    c    0.106570 *  0.825660 *  0.366200 *   1.33043    1.000000    
     32 O2    c    0.393430 *  0.174340 *  0.366200 *   0.87073    1.000000    
     33 O3    c    0.000000 *  0.000000 *  0.500000 *   1.33043    1.000000    
     34 O3    c    0.500000 *  0.000000 *  0.500000 *   1.33043    1.000000    
     35 O3    c    0.994520 *  0.000000 *  0.250840 *   1.33043    1.000000    
     36 O2    c    0.505480 *  0.000000 *  0.250840 *   0.87073    1.000000    
     37 O2    c    0.005480 *  0.000000 *  0.749160 *   0.87073    1.000000    
     38 O3    c    0.494520 *  0.000000 *  0.749160 *   1.33043    1.000000    
     39 O3    c    0.610230 *  0.175520 *  0.115390 *   1.33043    1.000000    
     40 O2    c    0.889770 *  0.824480 *  0.115390 *   0.87073    1.000000    
     41 O2    c    0.389770 *  0.175520 *  0.884610 *   0.87073    1.000000    
     42 O2    c    0.110230 *  0.824480 *  0.884610 *   0.87073    1.000000    
     43 O2    c    0.389770 *  0.824480 *  0.884610 *   0.87073    1.000000    
     44 O2    c    0.110230 *  0.175520 *  0.884610 *   0.87073    1.000000    
     45 O2    c    0.610230 *  0.824480 *  0.115390 *   0.87073    1.000000    
     46 O2    c    0.889770 *  0.175520 *  0.115390 *   0.87073    1.000000    
     47 O2    c    0.500000 *  0.000000 *  0.000000 *   0.87073    1.000000    
     48 O2    c    0.000000 *  0.000000 *  0.000000 *   0.87073    1.000000    
     49 O2    c    0.151750 *  0.500000 *  0.313330 *   0.87073    1.000000    
     50 O3    c    0.348250 *  0.500000 *  0.313330 *   1.33043    1.000000    
     51 O3    c    0.848250 *  0.500000 *  0.686670 *   1.33043    1.000000    
     52 O2    c    0.651750 *  0.500000 *  0.686670 *   0.87073    1.000000    
     53 O2    c    0.250000 *  0.234950 *  0.285720 *   0.87073    1.000000    
     54 O3    c    0.250000 *  0.765050 *  0.285720 *   1.33043    1.000000    
     55 O2    c    0.750000 *  0.234950 *  0.714280 *   0.87073    1.000000    
     56 O3    c    0.750000 *  0.765050 *  0.714280 *   1.33043    1.000000    
     57 O2    c    0.131410 *  0.268650 *  0.127790 *   0.87073    1.000000    
     58 O3    c    0.368590 *  0.731350 *  0.127790 *   1.33043    1.000000    
     59 O2    c    0.868590 *  0.268650 *  0.872210 *   0.87073    1.000000    
     60 O2    c    0.631410 *  0.731350 *  0.872210 *   0.87073    1.000000    
     61 O3    c    0.868590 *  0.731350 *  0.872210 *   1.33043    1.000000    
     62 O3    c    0.631410 *  0.268650 *  0.872210 *   1.33043    1.000000    
     63 O2    c    0.131410 *  0.731350 *  0.127790 *   0.87073    1.000000    
     64 O2    c    0.368590 *  0.268650 *  0.127790 *   0.87073    1.000000    
     65 O3    c    0.653920 *  0.500000 *  0.058200 *   1.33043    1.000000    
     66 O2    c    0.846080 *  0.500000 *  0.058200 *   0.87073    1.000000    
     67 O2    c    0.346080 *  0.500000 *  0.941800 *   0.87073    1.000000    
     68 O2    c    0.153920 *  0.500000 *  0.941800 *   0.87073    1.000000    
     69 O3    c    0.750000 *  0.231060 *  0.027050 *   1.33043    1.000000    
     70 O2    c    0.750000 *  0.768940 *  0.027050 *   0.87073    1.000000    
     71 O2    c    0.250000 *  0.231060 *  0.972950 *   0.87073    1.000000    
     72 O2    c    0.250000 *  0.768940 *  0.972950 *   0.87073    1.000000    
     73 O3    s    0.106570 *  0.174340 *  0.366200 *  -3.33043    1.000000    
     74 O3    s    0.393430 *  0.825660 *  0.366200 *  -3.33043    1.000000    
     75 O2    s    0.893430 *  0.174340 *  0.633800 *  -2.87073    1.000000    
     76 O3    s    0.606570 *  0.825660 *  0.633800 *  -3.33043    1.000000    
     77 O3    s    0.893430 *  0.825660 *  0.633800 *  -3.33043    1.000000    
     78 O3    s    0.606570 *  0.174340 *  0.633800 *  -3.33043    1.000000    
     79 O3    s    0.106570 *  0.825660 *  0.366200 *  -3.33043    1.000000    
     80 O2    s    0.393430 *  0.174340 *  0.366200 *  -2.87073    1.000000    
     81 O3    s    0.000000 *  0.000000 *  0.500000 *  -3.33043    1.000000    
     82 O3    s    0.500000 *  0.000000 *  0.500000 *  -3.33043    1.000000    
     83 O3    s    0.994520 *  0.000000 *  0.250840 *  -3.33043    1.000000    
     84 O2    s    0.505480 *  0.000000 *  0.250840 *  -2.87073    1.000000    
     85 O2    s    0.005480 *  0.000000 *  0.749160 *  -2.87073    1.000000    
     86 O3    s    0.494520 *  0.000000 *  0.749160 *  -3.33043    1.000000    
     87 O3    s    0.610230 *  0.175520 *  0.115390 *  -3.33043    1.000000    
     88 O2    s    0.889770 *  0.824480 *  0.115390 *  -2.87073    1.000000    
     89 O2    s    0.389770 *  0.175520 *  0.884610 *  -2.87073    1.000000    
     90 O2    s    0.110230 *  0.824480 *  0.884610 *  -2.87073    1.000000    
     91 O2    s    0.389770 *  0.824480 *  0.884610 *  -2.87073    1.000000    
     92 O2    s    0.110230 *  0.175520 *  0.884610 *  -2.87073    1.000000    
     93 O2    s    0.610230 *  0.824480 *  0.115390 *  -2.87073    1.000000    
     94 O2    s    0.889770 *  0.175520 *  0.115390 *  -2.87073    1.000000    
     95 O2    s    0.500000 *  0.000000 *  0.000000 *  -2.87073    1.000000    
     96 O2    s    0.000000 *  0.000000 *  0.000000 *  -2.87073    1.000000    
     97 O2    s    0.151750 *  0.500000 *  0.313330 *  -2.87073    1.000000    
     98 O3    s    0.348250 *  0.500000 *  0.313330 *  -3.33043    1.000000    
     99 O3    s    0.848250 *  0.500000 *  0.686670 *  -3.33043    1.000000    
    100 O2    s    0.651750 *  0.500000 *  0.686670 *  -2.87073    1.000000    
    101 O2    s    0.250000 *  0.234950 *  0.285720 *  -2.87073    1.000000    
    102 O3    s    0.250000 *  0.765050 *  0.285720 *  -3.33043    1.000000    
    103 O2    s    0.750000 *  0.234950 *  0.714280 *  -2.87073    1.000000    
    104 O3    s    0.750000 *  0.765050 *  0.714280 *  -3.33043    1.000000    
    105 O2    s    0.131410 *  0.268650 *  0.127790 *  -2.87073    1.000000    
    106 O3    s    0.368590 *  0.731350 *  0.127790 *  -3.33043    1.000000    
    107 O2    s    0.868590 *  0.268650 *  0.872210 *  -2.87073    1.000000    
    108 O2    s    0.631410 *  0.731350 *  0.872210 *  -2.87073    1.000000    
    109 O3    s    0.868590 *  0.731350 *  0.872210 *  -3.33043    1.000000    
    110 O3    s    0.631410 *  0.268650 *  0.872210 *  -3.33043    1.000000    
    111 O2    s    0.131410 *  0.731350 *  0.127790 *  -2.87073    1.000000    
    112 O2    s    0.368590 *  0.268650 *  0.127790 *  -2.87073    1.000000    
    113 O3    s    0.653920 *  0.500000 *  0.058200 *  -3.33043    1.000000    
    114 O2    s    0.846080 *  0.500000 *  0.058200 *  -2.87073    1.000000    
    115 O2    s    0.346080 *  0.500000 *  0.941800 *  -2.87073    1.000000    
    116 O2    s    0.153920 *  0.500000 *  0.941800 *  -2.87073    1.000000    
    117 O3    s    0.750000 *  0.231060 *  0.027050 *  -3.33043    1.000000    
    118 O2    s    0.750000 *  0.768940 *  0.027050 *  -2.87073    1.000000    
    119 O2    s    0.250000 *  0.231060 *  0.972950 *  -2.87073    1.000000    
    120 O2    s    0.250000 *  0.768940 *  0.972950 *  -2.87073    1.000000    
--------------------------------------------------------------------------------



********************************************************************************
*  General input information                                                   *
********************************************************************************

  Species output for all configurations : 

--------------------------------------------------------------------------------
  Species    Type    Atomic    Atomic    Charge       Radii (Angs)     Library
                     Number     Mass       (e)     Cova   Ionic  VDW   Symbol
--------------------------------------------------------------------------------
    Ge       Core       32      72.61   4.000000   1.170  0.000  1.750 Ge       
    Si       Core       14      28.09   4.000000   1.200  0.000  2.100 Si       
    O1       Core        8      16.00   1.733957   0.730  0.000  0.000 O1       
    O2       Core        8      16.00   0.870733   0.730  0.000  1.360 O2       
    O3       Core        8      16.00   1.330431   0.730  0.000  1.360 O3       
    O1       Shell       8       0.00  -3.733957   0.730  0.000  0.000 O1       
    O2       Shell       8       0.00  -2.870733   0.730  0.000  0.000 O2       
    O3       Shell       8       0.00  -3.330431   0.730  0.000  0.000 O3       
--------------------------------------------------------------------------------


  Lattice summation method               =    Ewald          (3-D)
                                         =    Parry          (2-D)
                                         =    Saunders et al (1-D)
  Accuracy factor for lattice sums       =   12.000


  Analytic derivatives to be used

  Time limit = Infinity

  Maximum range for interatomic potentials =    100000.000000 Angstroms

  General interatomic potentials :

--------------------------------------------------------------------------------
Atom  Types   Potential      Parameter       Value         Units   Cutoffs(Ang)
  1     2                                                            Min /  Max 
--------------------------------------------------------------------------------
Si   c O1   s Buckingham    Buckingham A     1315.2478    eV        0.000 16.000
                            Buckingham rho  0.31775900    Ang       
                            Buckingham C     10.141118    eV*Ang^6  
--------------------------------------------------------------------------------
Si   c O2   s Buckingham    Buckingham A     1315.2478    eV        0.000 16.000
                            Buckingham rho  0.31775900    Ang       
                            Buckingham C     10.141118    eV*Ang^6  
--------------------------------------------------------------------------------
Si   c O3   s Buckingham    Buckingham A     1315.2478    eV        0.000 16.000
                            Buckingham rho  0.31775900    Ang       
                            Buckingham C     10.141118    eV*Ang^6  
--------------------------------------------------------------------------------
Ge   c O1   s Buckingham    Buckingham A     1497.3996    eV        0.000 16.000
                            Buckingham rho  0.32564600    Ang       
                            Buckingham C     16.808599    eV*Ang^6  
--------------------------------------------------------------------------------
Ge   c O2   s Buckingham    Buckingham A     1497.3996    eV        0.000 16.000
                            Buckingham rho  0.32564600    Ang       
                            Buckingham C     16.808599    eV*Ang^6  
--------------------------------------------------------------------------------
Ge   c O3   s Buckingham    Buckingham A     1497.3996    eV        0.000 16.000
                            Buckingham rho  0.32564600    Ang       
                            Buckingham C     16.808599    eV*Ang^6  
--------------------------------------------------------------------------------
O1   s O1   s Buckingham    Buckingham A     22764.000    eV        0.000 16.000
                            Buckingham rho  0.14900000    Ang       
                            Buckingham C     10.937044    eV*Ang^6  
--------------------------------------------------------------------------------
O1   s O2   s Buckingham    Buckingham A     22764.000    eV        0.000 16.000
                            Buckingham rho  0.14900000    Ang       
                            Buckingham C     10.937044    eV*Ang^6  
--------------------------------------------------------------------------------
O1   s O3   s Buckingham    Buckingham A     22764.000    eV        0.000 16.000
                            Buckingham rho  0.14900000    Ang       
                            Buckingham C     10.937044    eV*Ang^6  
--------------------------------------------------------------------------------
O2   s O2   s Buckingham    Buckingham A     22764.000    eV        0.000 16.000
                            Buckingham rho  0.14900000    Ang       
                            Buckingham C     10.937044    eV*Ang^6  
--------------------------------------------------------------------------------
O2   s O3   s Buckingham    Buckingham A     22764.000    eV        0.000 16.000
                            Buckingham rho  0.14900000    Ang       
                            Buckingham C     10.937044    eV*Ang^6  
--------------------------------------------------------------------------------
O3   s O3   s Buckingham    Buckingham A     22764.000    eV        0.000 16.000
                            Buckingham rho  0.14900000    Ang       
                            Buckingham C     10.937044    eV*Ang^6  
--------------------------------------------------------------------------------
O1   c O1   s Spring (c-s)  Spring k 2       180.31577    eV*Ang^-2 0.000  0.800
                            Spring k 4       0.0000000    eV*Ang^-4 
--------------------------------------------------------------------------------
O2   c O2   s Spring (c-s)  Spring k 2       75.969800    eV*Ang^-2 0.000  0.800
                            Spring k 4       0.0000000    eV*Ang^-4 
--------------------------------------------------------------------------------
O3   c O3   s Spring (c-s)  Spring k 2       128.14270    eV*Ang^-2 0.000  0.800
                            Spring k 4       0.0000000    eV*Ang^-4 
--------------------------------------------------------------------------------

  General Three-body potentials :

--------------------------------------------------------------------------------
  Atoms       Potential      Parameter       Value         Units   Cutoffs(Ang)
  1 / 2 / 3                                                          Min /  Max 
--------------------------------------------------------------------------------
Si    core    Harmonic      Three-body cnst  1.2614000    eV*rad^-2 0.000  1.900
O1    shel                  Three-body angl  109.47000    degrees   0.000  1.900
O1    shel                  Three-body k4    0.0000000    eV*rad^-4 0.000  3.500
                            Three-body k3    0.0000000    eV*rad^-3 
--------------------------------------------------------------------------------
Si    core    Harmonic      Three-body cnst  1.2614000    eV*rad^-2 0.000  1.900
O1    shel                  Three-body angl  109.47000    degrees   0.000  1.900
õ(1   shel                  Three-body k4    0.0000000    eV*rad^-4 0.000  3.500
                            Three-body k3    0.0000000    eV*rad^-3 
--------------------------------------------------------------------------------
Si    core    Harmonic      Three-body cnst  1.2614000    eV*rad^-2 0.000  1.900
õ(1   shel                  Three-body angl  109.47000    degrees   0.000  1.900
õ(1   shel                  Three-body k4    0.0000000    eV*rad^-4 0.000  3.500
                            Three-body k3    0.0000000    eV*rad^-3 
--------------------------------------------------------------------------------
Si    core    Harmonic      Three-body cnst  1.2614000    eV*rad^-2 0.000  1.900
O1    shel                  Three-body angl  109.47000    degrees   0.000  1.900
O2    shel                  Three-body k4    0.0000000    eV*rad^-4 0.000  3.500
                            Three-body k3    0.0000000    eV*rad^-3 
--------------------------------------------------------------------------------
Si    core    Harmonic      Three-body cnst  1.2614000    eV*rad^-2 0.000  1.900
O1    shel                  Three-body angl  109.47000    degrees   0.000  1.900
õ(2   shel                  Three-body k4    0.0000000    eV*rad^-4 0.000  3.500
                            Three-body k3    0.0000000    eV*rad^-3 
--------------------------------------------------------------------------------
Si    core    Harmonic      Three-body cnst  1.2614000    eV*rad^-2 0.000  1.900
O2    shel                  Three-body angl  109.47000    degrees   0.000  1.900
õ(1   shel                  Three-body k4    0.0000000    eV*rad^-4 0.000  3.500
                            Three-body k3    0.0000000    eV*rad^-3 
--------------------------------------------------------------------------------
Si    core    Harmonic      Three-body cnst  1.2614000    eV*rad^-2 0.000  1.900
õ(1   shel                  Three-body angl  109.47000    degrees   0.000  1.900
õ(2   shel                  Three-body k4    0.0000000    eV*rad^-4 0.000  3.500
                            Three-body k3    0.0000000    eV*rad^-3 
--------------------------------------------------------------------------------
Si    core    Harmonic      Three-body cnst  1.2614000    eV*rad^-2 0.000  1.900
O2    shel                  Three-body angl  109.47000    degrees   0.000  1.900
O2    shel                  Three-body k4    0.0000000    eV*rad^-4 0.000  3.500
                            Three-body k3    0.0000000    eV*rad^-3 
--------------------------------------------------------------------------------
Si    core    Harmonic      Three-body cnst  1.2614000    eV*rad^-2 0.000  1.900
O2    shel                  Three-body angl  109.47000    degrees   0.000  1.900
õ(2   shel                  Three-body k4    0.0000000    eV*rad^-4 0.000  3.500
                            Three-body k3    0.0000000    eV*rad^-3 
--------------------------------------------------------------------------------
Si    core    Harmonic      Three-body cnst  1.2614000    eV*rad^-2 0.000  1.900
õ(2   shel                  Three-body angl  109.47000    degrees   0.000  1.900
õ(2   shel                  Three-body k4    0.0000000    eV*rad^-4 0.000  3.500
                            Three-body k3    0.0000000    eV*rad^-3 
--------------------------------------------------------------------------------

********************************************************************************
*  Output for configuration   1 : POSCAR_N0005.vasp                            *
********************************************************************************


  Components of energy : 

--------------------------------------------------------------------------------
  Interatomic potentials     =         776.31418736 eV    
  Three-body potentials      =           0.01014663 eV    
  Monopole - monopole (real) =       -2676.00317478 eV    
  Monopole - monopole (recip)=       -1115.35404472 eV    
  Monopole - monopole (total)=       -3791.35721950 eV    
--------------------------------------------------------------------------------
  Total lattice energy       =       -3015.03288551 eV    
--------------------------------------------------------------------------------
  Total lattice energy       =         -290904.5845 kJ/(mole unit cells)
--------------------------------------------------------------------------------


  Number of variables =      363

  Maximum number of calculations  =          1000
  Maximum Hessian update interval =            10
  Maximum step size               =   0.100000000
  Maximum parameter tolerance     =   0.000010000
  Maximum function  tolerance     =   0.000010000
  Maximum gradient  tolerance     =   0.001000000
  Maximum gradient  component     =   0.010000000

  Symmetry not applied to optimisation

  Cell parameters to be optimised using strains

  Newton-Raphson optimiser to be used

  BFGS hessian update to be used

  Lower half triangular hessian to be used

  Minimiser to switch to RFO
  When gradient norm is less than     0.050000

  Dumpfile to be written after every cycle

  Start of bulk optimisation :

  Cycle:      0 Energy:     -3015.032886  Gnorm:      4.584404  CPU:    0.118
  ** Hessian calculated **
  Cycle:      1 Energy:     -3046.896179  Gnorm:      1.069924  CPU:    0.228
  ** Hessian calculated **
  Cycle:      2 Energy:     -3049.692691  Gnorm:      0.636970  CPU:    0.426
  Cycle:      3 Energy:     -3050.790778  Gnorm:      0.443133  CPU:    0.530
  Cycle:      4 Energy:     -3051.928968  Gnorm:      0.345812  CPU:    0.651
  Cycle:      5 Energy:     -3052.932391  Gnorm:      0.252631  CPU:    0.772
  Cycle:      6 Energy:     -3053.417811  Gnorm:      0.187633  CPU:    0.874
  Cycle:      7 Energy:     -3053.667223  Gnorm:      0.129885  CPU:    0.976
  Cycle:      8 Energy:     -3053.784577  Gnorm:      0.090473  CPU:    1.079
  Cycle:      9 Energy:     -3053.844922  Gnorm:      0.068033  CPU:    1.201
  Cycle:     10 Energy:     -3053.885282  Gnorm:      0.064644  CPU:    1.323
  Cycle:     11 Energy:     -3053.934072  Gnorm:      0.072110  CPU:    1.446
  ** Hessian calculated **
  Cycle:     12 Energy:     -3053.951097  Gnorm:      0.071136  CPU:    1.665
  Cycle:     13 Energy:     -3053.978884  Gnorm:      0.069496  CPU:    1.805
  Cycle:     14 Energy:     -3054.017066  Gnorm:      0.067075  CPU:    1.946
  Cycle:     15 Energy:     -3054.052891  Gnorm:      0.064465  CPU:    2.067
  Cycle:     16 Energy:     -3054.080150  Gnorm:      0.061963  CPU:    2.207
  ** Hessian calculated **
  Cycle:     17 Energy:     -3054.247906  Gnorm:      0.052541  CPU:    2.426
  Cycle:     18 Energy:     -3054.464047  Gnorm:      0.042975  CPU:    2.547
  ** Hessian has wrong structure
  ** Imaginary eigenvectors =   3
  Cycle:     19 Energy:     -3054.496684  Gnorm:      0.102471  CPU:    2.830
  ** Hessian has wrong structure
  ** Imaginary eigenvectors =   1
  ** Hessian has required structure
  Cycle:     20 Energy:     -3054.546465  Gnorm:      0.101786  CPU:    3.341
  ** Hessian has wrong structure
  ** Imaginary eigenvectors =   1
  Cycle:     21 Energy:     -3054.574494  Gnorm:      0.099928  CPU:    3.550
  ** Hessian has required structure
  Cycle:     22 Energy:     -3054.695536  Gnorm:      0.053432  CPU:    3.829
  ** Hessian has required structure
  Cycle:     23 Energy:     -3054.746565  Gnorm:      0.032563  CPU:    4.020
  ** Hessian has required structure
  Cycle:     24 Energy:     -3054.778301  Gnorm:      0.015977  CPU:    4.208
  ** Hessian has required structure
  Cycle:     25 Energy:     -3054.794130  Gnorm:      0.023456  CPU:    4.379
  ** Hessian has required structure
  Cycle:     26 Energy:     -3054.810403  Gnorm:      0.016181  CPU:    4.568
  ** Hessian has required structure
  Cycle:     27 Energy:     -3054.819581  Gnorm:      0.011029  CPU:    4.755
  ** Hessian has required structure
  Cycle:     28 Energy:     -3054.825436  Gnorm:      0.016183  CPU:    4.923
  ** Hessian has required structure
  Cycle:     29 Energy:     -3054.834404  Gnorm:      0.016475  CPU:    5.111
  ** Hessian has required structure
  Cycle:     30 Energy:     -3054.840351  Gnorm:      0.020700  CPU:    5.278
  ** Hessian has required structure
  Cycle:     31 Energy:     -3054.849321  Gnorm:      0.018194  CPU:    5.446
  ** Hessian has required structure
  Cycle:     32 Energy:     -3054.859061  Gnorm:      0.015749  CPU:    5.721
  ** Hessian has required structure
  Cycle:     33 Energy:     -3054.870683  Gnorm:      0.009411  CPU:    5.888
  ** Hessian has required structure
  Cycle:     34 Energy:     -3054.873485  Gnorm:      0.013748  CPU:    6.055
  ** Hessian has required structure
  Cycle:     35 Energy:     -3054.875537  Gnorm:      0.005936  CPU:    6.225
  ** Hessian has required structure
  Cycle:     36 Energy:     -3054.876099  Gnorm:      0.004615  CPU:    6.393
  ** Hessian has required structure
  Cycle:     37 Energy:     -3054.876498  Gnorm:      0.003159  CPU:    6.579
  ** Hessian has required structure
  Cycle:     38 Energy:     -3054.876751  Gnorm:      0.002195  CPU:    6.766
  ** Hessian has required structure
  Cycle:     39 Energy:     -3054.876917  Gnorm:      0.001477  CPU:    6.952
  ** Hessian has required structure
  Cycle:     40 Energy:     -3054.877014  Gnorm:      0.000925  CPU:    7.138
  ** Hessian has required structure
  Cycle:     41 Energy:     -3054.877052  Gnorm:      0.000631  CPU:    7.306
  ** Hessian has required structure
  Cycle:     42 Energy:     -3054.877073  Gnorm:      0.000388  CPU:    7.562
  ** Hessian has required structure
  Cycle:     43 Energy:     -3054.877084  Gnorm:      0.000173  CPU:    7.767
  ** Hessian has required structure
  Cycle:     44 Energy:     -3054.877086  Gnorm:      0.000123  CPU:    7.916
  ** Hessian has required structure
  Cycle:     45 Energy:     -3054.877087  Gnorm:      0.000099  CPU:    8.065
  ** Hessian has required structure


  **** Optimisation achieved ****


  Final energy =   -3054.87708812 eV      
  Final Gnorm  =       0.00007692

  Components of energy : 

--------------------------------------------------------------------------------
  Interatomic potentials     =         812.84993153 eV    
  Three-body potentials      =           0.13181861 eV    
  Monopole - monopole (real) =       -2138.48155276 eV    
  Monopole - monopole (recip)=       -1729.37728549 eV    
  Monopole - monopole (total)=       -3867.85883825 eV    
--------------------------------------------------------------------------------
  Total lattice energy       =       -3054.87708812 eV    
--------------------------------------------------------------------------------
  Total lattice energy       =         -294748.9409 kJ/(mole unit cells)
--------------------------------------------------------------------------------

  Final fractional coordinates of atoms :

--------------------------------------------------------------------------------
   No.  Atomic        x           y          z          Radius
        Label       (Frac)      (Frac)     (Frac)       (Angs) 
--------------------------------------------------------------------------------
     1  Ge    c     0.052090    0.000000    0.372270    0.000000
     2  Ge    c     0.554855    0.008296    0.604999    0.000000
     3  Ge    c     0.339888    0.714437    0.274256    0.000000
     4  Ge    c     0.850834    0.693174    0.705156    0.000000
     5  Ge    c     0.655255    0.325360    0.017570    0.000000
     6  Si    c     0.455605    0.003015    0.343522    0.000000
     7  Si    c     0.957543    0.997704    0.639494    0.000000
     8  Si    c     0.553454    0.015453    0.087351    0.000000
     9  Si    c     0.941668    0.009077    0.129347    0.000000
    10  Si    c     0.441667    0.007594    0.848871    0.000000
    11  Si    c     0.058199    0.002140    0.895237    0.000000
    12  Si    c     0.170406    0.288256    0.269605    0.000000
    13  Si    c     0.839854    0.286723    0.716584    0.000000
    14  Si    c     0.670416    0.713859    0.702347    0.000000
    15  Si    c     0.662769    0.307230    0.709871    0.000000
    16  Si    c     0.159593    0.692409    0.277664    0.000000
    17  Si    c     0.348797    0.305331    0.264203    0.000000
    18  Si    c     0.845800    0.703671    0.016594    0.000000
    19  Si    c     0.344926    0.315018    0.958791    0.000000
    20  Si    c     0.160236    0.694808    0.970946    0.000000
    21  Si    c     0.337857    0.714827    0.961881    0.000000
    22  Si    c     0.166616    0.297418    0.965778    0.000000
    23  Si    c     0.667675    0.729646    0.006221    0.000000
    24  Si    c     0.835827    0.306504    0.024771    0.000000
    25  O3    c     0.120319    0.160218    0.354264    0.000000
    26  O3    c     0.398060    0.843473    0.368335    0.000000
    27  O2    c     0.889291    0.141612    0.640473    0.000000
    28  O3    c     0.613467    0.827746    0.617295    0.000000
    29  O3    c     0.916626    0.812724    0.617378    0.000000
    30  O3    c     0.606869    0.197590    0.619743    0.000000
    31  O3    c     0.095752    0.798599    0.356834    0.000000
    32  O2    c     0.404530    0.179702    0.344680    0.000000
    33  O3    c     0.020407    0.030785    0.530369    0.000000
    34  O3    c     0.522370    0.012381    0.446740    0.000000
    35  O3    c     0.972054    0.017200    0.275285    0.000000
    36  O2    c     0.493559    0.971147    0.200746    0.000000
    37  O2    c     0.997999    0.005216    0.780056    0.000000
    38  O3    c     0.474253    0.999188    0.703758    0.000000
    39  O3    c     0.589542    0.205628    0.106408    0.000000
    40  O2    c     0.896270    0.828259    0.108550    0.000000
    41  O2    c     0.397457    0.191963    0.867970    0.000000
    42  O2    c     0.104752    0.819609    0.888653    0.000000
    43  O2    c     0.384380    0.845186    0.868928    0.000000
    44  O2    c     0.116817    0.164410    0.879500    0.000000
    45  O2    c     0.623795    0.876853    0.089823    0.000000
    46  O2    c     0.886430    0.174830    0.108822    0.000000
    47  O2    c     0.513019    0.995890    0.947151    0.000000
    48  O2    c     0.015389    0.019840    0.034008    0.000000
    49  O2    c     0.145709    0.487136    0.298932    0.000000
    50  O3    c     0.368695    0.501855    0.298100    0.000000
    51  O3    c     0.872705    0.475518    0.684443    0.000000
    52  O2    c     0.644864    0.512280    0.695798    0.000000
    53  O2    c     0.260435    0.263874    0.303284    0.000000
    54  O3    c     0.245059    0.741515    0.322548    0.000000
    55  O2    c     0.751727    0.271689    0.668409    0.000000
    56  O3    c     0.757872    0.732223    0.653355    0.000000
    57  O2    c     0.157441    0.244546    0.116894    0.000000
    58  O3    c     0.349082    0.767831    0.111158    0.000000
    59  O2    c     0.840262    0.254262    0.872236    0.000000
    60  O2    c     0.665776    0.778569    0.853006    0.000000
    61  O3    c     0.859975    0.753289    0.867462    0.000000
    62  O3    c     0.649017    0.250751    0.858660    0.000000
    63  O2    c     0.152133    0.739658    0.124144    0.000000
    64  O2    c     0.360307    0.268174    0.109374    0.000000
    65  O3    c     0.630073    0.542549    0.030117    0.000000
    66  O2    c     0.869283    0.502357    0.042516    0.000000
    67  O2    c     0.367461    0.516613    0.935434    0.000000
    68  O2    c     0.136502    0.494519    0.942939    0.000000
    69  O3    c     0.748253    0.298341    0.073062    0.000000
    70  O2    c     0.755859    0.726242    0.053759    0.000000
    71  O2    c     0.255850    0.283295    0.922913    0.000000
    72  O2    c     0.247781    0.726697    0.925100    0.000000
    73  O3    s     0.120067    0.160756    0.346420    0.000000
    74  O3    s     0.398851    0.848313    0.358086    0.000000
    75  O2    s     0.890993    0.142683    0.648910    0.000000
    76  O3    s     0.614580    0.830797    0.625248    0.000000
    77  O3    s     0.915197    0.820816    0.626645    0.000000
    78  O3    s     0.608428    0.193358    0.628064    0.000000
    79  O3    s     0.098816    0.804077    0.349861    0.000000
    80  O2    s     0.403726    0.175139    0.335606    0.000000
    81  O3    s     0.016249    0.024563    0.528864    0.000000
    82  O3    s     0.517815    0.011001    0.448837    0.000000
    83  O3    s     0.975605    0.014893    0.268221    0.000000
    84  O2    s     0.496361    0.979580    0.202861    0.000000
    85  O2    s     0.000705    0.004042    0.778357    0.000000
    86  O3    s     0.477543    0.000827    0.710785    0.000000
    87  O3    s     0.591305    0.196716    0.097415    0.000000
    88  O2    s     0.895596    0.833942    0.100645    0.000000
    89  O2    s     0.396244    0.186300    0.876167    0.000000
    90  O2    s     0.105941    0.825165    0.898468    0.000000
    91  O2    s     0.385392    0.848228    0.877146    0.000000
    92  O2    s     0.116144    0.162012    0.890655    0.000000
    93  O2    s     0.621257    0.875107    0.080207    0.000000
    94  O2    s     0.886749    0.171508    0.101523    0.000000
    95  O2    s     0.509586    0.999249    0.951473    0.000000
    96  O2    s     0.012093    0.016705    0.029153    0.000000
    97  O2    s     0.149851    0.487771    0.293481    0.000000
    98  O3    s     0.364245    0.498764    0.292615    0.000000
    99  O3    s     0.867594    0.474231    0.689361    0.000000
   100  O2    s     0.649514    0.511789    0.698013    0.000000
   101  O2    s     0.260186    0.270843    0.295532    0.000000
   102  O3    s     0.244289    0.734523    0.314244    0.000000
   103  O2    s     0.751771    0.276997    0.677799    0.000000
   104  O3    s     0.756727    0.727291    0.662316    0.000000
   105  O2    s     0.159801    0.254787    0.116746    0.000000
   106  O3    s     0.347185    0.758145    0.109122    0.000000
   107  O2    s     0.839728    0.263292    0.872079    0.000000
   108  O2    s     0.666452    0.766784    0.853426    0.000000
   109  O3    s     0.857808    0.743482    0.869610    0.000000
   110  O3    s     0.650845    0.262198    0.856865    0.000000
   111  O2    s     0.153763    0.730010    0.123519    0.000000
   112  O2    s     0.357461    0.276996    0.109283    0.000000
   113  O3    s     0.635831    0.543564    0.026762    0.000000
   114  O2    s     0.863409    0.503115    0.037985    0.000000
   115  O2    s     0.362039    0.515724    0.940620    0.000000
   116  O2    s     0.142175    0.494853    0.948292    0.000000
   117  O3    s     0.749534    0.301337    0.063742    0.000000
   118  O2    s     0.755975    0.724091    0.044640    0.000000
   119  O2    s     0.255782    0.288337    0.931449    0.000000
   120  O2    s     0.247870    0.721856    0.934031    0.000000
--------------------------------------------------------------------------------

  Final Cartesian lattice vectors (Angstroms) :

       17.340572    0.034401    0.065994
        0.015299    7.670409   -0.023267
        0.039245   -0.032154   10.228032


  Final cell parameters and derivatives :

--------------------------------------------------------------------------------
       a           17.340731 Angstrom     dE/de1(xx)     0.006729 eV/strain
       b            7.670459 Angstrom     dE/de2(yy)     0.007326 eV/strain
       c           10.228158 Angstrom     dE/de3(zz)     0.001809 eV/strain
       alpha       90.353479 Degrees      dE/de4(yz)    -0.000288 eV/strain
       beta        89.562467 Degrees      dE/de5(xz)    -0.000586 eV/strain
       gamma       89.772724 Degrees      dE/de6(xy)    -0.000889 eV/strain
--------------------------------------------------------------------------------

  Primitive cell volume =          1360.384858 Angs**3

  Density of cell =      2.032104 g/cm**3

  Non-primitive cell volume =          1360.384858 Angs**3


  Final internal derivatives :

--------------------------------------------------------------------------------
   No.  Atomic          a             b             c           Radius
        Label          (eV)          (eV)          (eV)        (eV/Angs)
--------------------------------------------------------------------------------
      1 Ge    c       0.000000      0.000000      0.000000      0.000000
      2 Ge    c      -0.002196      0.000464     -0.000408      0.000000
      3 Ge    c       0.000500      0.000183     -0.000002      0.000000
      4 Ge    c      -0.000155     -0.000864      0.000130      0.000000
      5 Ge    c      -0.001333     -0.001026      0.000191      0.000000
      6 Si    c       0.001153      0.000175      0.000121      0.000000
      7 Si    c       0.001325     -0.000659      0.002162      0.000000
      8 Si    c      -0.002488     -0.000028     -0.001269      0.000000
      9 Si    c       0.001446     -0.001129      0.003250      0.000000
     10 Si    c       0.001068     -0.000007     -0.000339      0.000000
     11 Si    c      -0.000856      0.000495     -0.000825      0.000000
     12 Si    c      -0.000290     -0.000218     -0.000181      0.000000
     13 Si    c      -0.000907      0.000878      0.000599      0.000000
     14 Si    c       0.001564      0.000302      0.000716      0.000000
     15 Si    c       0.000018     -0.000544     -0.000170      0.000000
     16 Si    c       0.000007      0.000222      0.000255      0.000000
     17 Si    c       0.000222     -0.000125     -0.000082      0.000000
     18 Si    c       0.001362      0.000564     -0.001383      0.000000
     19 Si    c      -0.000368     -0.000177      0.000093      0.000000
     20 Si    c       0.000175      0.000158      0.000124      0.000000
     21 Si    c      -0.000163     -0.000071      0.000406      0.000000
     22 Si    c      -0.000246     -0.000317      0.000259      0.000000
     23 Si    c       0.000102      0.001176     -0.001225      0.000000
     24 Si    c       0.000726      0.000137     -0.002344      0.000000
     25 O3    c       0.001361      0.000564     -0.000091      0.000000
     26 O3    c      -0.001126     -0.000635      0.000085      0.000000
     27 O2    c      -0.006834      0.003040     -0.000795      0.000000
     28 O3    c       0.002596     -0.002774     -0.000123      0.000000
     29 O3    c      -0.004921     -0.003557     -0.001835      0.000000
     30 O3    c       0.003140      0.002129      0.000150      0.000000
     31 O3    c       0.000264     -0.000336      0.000102      0.000000
     32 O2    c      -0.000312      0.000267      0.000051      0.000000
     33 O3    c       0.008430      0.000456     -0.003649      0.000000
     34 O3    c       0.000366      0.000072     -0.000585      0.000000
     35 O3    c      -0.001362      0.000144     -0.000808      0.000000
     36 O2    c      -0.003424     -0.000505      0.002057      0.000000
     37 O2    c      -0.001587     -0.000052      0.001963      0.000000
     38 O3    c      -0.002894     -0.000064      0.000795      0.000000
     39 O3    c       0.004921      0.004307      0.000907      0.000000
     40 O2    c      -0.002877     -0.002189     -0.000184      0.000000
     41 O2    c      -0.000593      0.000873      0.000023      0.000000
     42 O2    c       0.001602     -0.001323     -0.000064      0.000000
     43 O2    c      -0.001390     -0.000913     -0.000140      0.000000
     44 O2    c       0.000983      0.000693     -0.000214      0.000000
     45 O2    c       0.005879     -0.001989      0.001024      0.000000
     46 O2    c      -0.003980      0.003478     -0.000209      0.000000
     47 O2    c       0.001367     -0.000210     -0.001449      0.000000
     48 O2    c       0.007027     -0.000055     -0.001477      0.000000
     49 O2    c      -0.000171     -0.000044      0.000107      0.000000
     50 O3    c       0.000129     -0.000054      0.000177      0.000000
     51 O3    c      -0.001922     -0.000072      0.002223      0.000000
     52 O2    c       0.000151      0.000216      0.000067      0.000000
     53 O2    c       0.000040     -0.000090      0.000089      0.000000
     54 O3    c      -0.000743      0.000028      0.000039      0.000000
     55 O2    c       0.002901      0.000289      0.000639      0.000000
     56 O3    c      -0.001250     -0.000723      0.000566      0.000000
     57 O2    c       0.000010     -0.000073      0.000016      0.000000
     58 O3    c      -0.000169      0.000010     -0.000194      0.000000
     59 O2    c       0.000454      0.000102      0.000131      0.000000
     60 O2    c      -0.000235     -0.000238     -0.000403      0.000000
     61 O3    c      -0.001308     -0.000221     -0.000073      0.000000
     62 O3    c      -0.000159      0.000006     -0.000229      0.000000
     63 O2    c       0.000000      0.000089     -0.000443      0.000000
     64 O2    c      -0.000015     -0.000085      0.000094      0.000000
     65 O3    c      -0.002593     -0.000540      0.000290      0.000000
     66 O2    c       0.000253      0.000340     -0.000078      0.000000
     67 O2    c       0.000253      0.000036     -0.000146      0.000000
     68 O2    c      -0.000302      0.000170     -0.000121      0.000000
     69 O3    c      -0.001333     -0.000024      0.001018      0.000000
     70 O2    c      -0.000665     -0.000029      0.000203      0.000000
     71 O2    c       0.000449     -0.000002     -0.000061      0.000000
     72 O2    c      -0.000396     -0.000034     -0.000080      0.000000
     73 O3    s      -0.000220     -0.000053      0.000116      0.000000
     74 O3    s       0.000044      0.000097      0.000044      0.000000
     75 O2    s      -0.002031      0.002055     -0.000873      0.000000
     76 O3    s      -0.000130      0.000125     -0.000165      0.000000
     77 O3    s      -0.000242     -0.001450      0.000833      0.000000
     78 O3    s      -0.000633      0.000119     -0.000146      0.000000
     79 O3    s       0.000151     -0.000218     -0.000321      0.000000
     80 O2    s      -0.000437      0.000177      0.000109      0.000000
     81 O3    s       0.001555      0.000350      0.000681      0.000000
     82 O3    s      -0.000788      0.000008     -0.000100      0.000000
     83 O3    s       0.002185     -0.000373      0.002179      0.000000
     84 O2    s      -0.002587     -0.000501      0.000424      0.000000
     85 O2    s       0.003495     -0.000324      0.000752      0.000000
     86 O3    s      -0.000223      0.000317     -0.000875      0.000000
     87 O3    s      -0.000961      0.000453     -0.000247      0.000000
     88 O2    s      -0.002037     -0.001710      0.000869      0.000000
     89 O2    s      -0.000542      0.000473     -0.000138      0.000000
     90 O2    s       0.001055     -0.000427     -0.000051      0.000000
     91 O2    s      -0.000772     -0.000307     -0.000057      0.000000
     92 O2    s       0.001076      0.000411     -0.000487      0.000000
     93 O2    s       0.002050     -0.001056      0.000783      0.000000
     94 O2    s      -0.001660      0.001015      0.000506      0.000000
     95 O2    s      -0.003245      0.000507     -0.000968      0.000000
     96 O2    s       0.002797     -0.000332      0.000475      0.000000
     97 O2    s       0.000043      0.000059     -0.000016      0.000000
     98 O3    s      -0.000007      0.000048     -0.000145      0.000000
     99 O3    s      -0.001881     -0.000474      0.000737      0.000000
    100 O2    s       0.001895      0.000279      0.000765      0.000000
    101 O2    s       0.000069      0.000088      0.000017      0.000000
    102 O3    s       0.000365      0.000014      0.000023      0.000000
    103 O2    s       0.000222      0.001442      0.001491      0.000000
    104 O3    s       0.000462     -0.000641      0.001257      0.000000
    105 O2    s       0.000047      0.000215      0.000070      0.000000
    106 O3    s       0.000142     -0.000103      0.000101      0.000000
    107 O2    s      -0.003113      0.001031     -0.001133      0.000000
    108 O2    s       0.002651     -0.000777     -0.000789      0.000000
    109 O3    s      -0.000617     -0.000863     -0.000571      0.000000
    110 O3    s       0.001144      0.000746     -0.000119      0.000000
    111 O2    s       0.000044     -0.000137     -0.000031      0.000000
    112 O2    s       0.000132      0.000187     -0.000058      0.000000
    113 O3    s       0.002322      0.000126     -0.000462      0.000000
    114 O2    s      -0.001213     -0.000034     -0.001101      0.000000
    115 O2    s      -0.000097     -0.000047      0.000217      0.000000
    116 O2    s       0.000123      0.000148      0.000187      0.000000
    117 O3    s       0.000009      0.000298     -0.001558      0.000000
    118 O2    s       0.000516     -0.000803     -0.000692      0.000000
    119 O2    s       0.000013     -0.000023     -0.000103      0.000000
    120 O2    s      -0.000258      0.000002      0.000106      0.000000
--------------------------------------------------------------------------------
  Maximum abs         0.008430      0.004307      0.003649      0.000000
--------------------------------------------------------------------------------


  Born effective charge tensors : 

-------------------------------------------------------------------------------
  Atom             x           y             z
-------------------------------------------------------------------------------
    1 Ge    x       4.1780     -0.1501     -0.3830
            y       0.1337      3.9048      0.0003
            z      -0.2611      0.1178      4.6099
-------------------------------------------------------------------------------
    2 Ge    x       4.2078      0.0266      0.3793
            y      -0.0437      3.9105     -0.0059
            z       0.2489     -0.0432      4.5933
-------------------------------------------------------------------------------
    3 Ge    x       3.9111      0.3282      0.1391
            y       0.2702      4.1722      0.2198
            z       0.1460      0.0493      3.4181
-------------------------------------------------------------------------------
    4 Ge    x       3.9241      0.3088     -0.0624
            y       0.3492      4.1759     -0.2251
            z      -0.1376     -0.0347      3.4117
-------------------------------------------------------------------------------
    5 Ge    x       4.0532      0.3655     -0.1164
            y       0.3275      4.1779     -0.2766
            z      -0.2057      0.0003      3.2491
-------------------------------------------------------------------------------
    6 Si    x       3.8581      0.1176      0.1357
            y       0.2212      3.4530     -0.0961
            z       0.9620      0.0787      3.9561
-------------------------------------------------------------------------------
    7 Si    x       3.7807      0.3264     -0.1118
            y       0.0577      3.5017      0.0378
            z      -0.8754     -0.1902      4.0491
-------------------------------------------------------------------------------
    8 Si    x       3.6194      0.3198      0.0169
            y      -0.0278      3.5071      0.0674
            z      -0.5690     -0.1148      2.9922
-------------------------------------------------------------------------------
    9 Si    x       3.6102      0.0558      0.4558
            y      -0.0653      3.3048     -0.0037
            z       0.4644      0.0337      3.5428
-------------------------------------------------------------------------------
   10 Si    x       3.5983     -0.0756     -0.4716
            y       0.0626      3.3254      0.0120
            z      -0.4931      0.0591      3.5519
-------------------------------------------------------------------------------
   11 Si    x       3.5021     -0.0492      0.0168
            y       0.0659      3.2875     -0.0269
            z       0.5881     -0.0003      2.9408
-------------------------------------------------------------------------------
   12 Si    x       3.3483      0.4201     -0.2505
            y       0.3278      3.6021     -0.3236
            z      -0.2436     -0.2340      3.0071
-------------------------------------------------------------------------------
   13 Si    x       3.2457     -0.2326     -0.0898
            y      -0.0236      3.7330      0.0601
            z      -0.1473     -0.0027      2.8505
-------------------------------------------------------------------------------
   14 Si    x       3.7522     -0.3946      0.1395
            y      -0.3356      3.6003     -0.3608
            z       0.2286     -0.1618      3.0273
-------------------------------------------------------------------------------
   15 Si    x       3.4672      0.3900      0.1924
            y       0.3855      3.5911      0.2773
            z       0.2612      0.0922      3.2831
-------------------------------------------------------------------------------
   16 Si    x       3.7359     -0.2729     -0.1221
            y      -0.4002      3.5990      0.3031
            z      -0.2258      0.1633      3.0326
-------------------------------------------------------------------------------
   17 Si    x       3.2415     -0.1674      0.1115
            y      -0.1572      3.7263     -0.0531
            z       0.1254      0.0110      2.8794
-------------------------------------------------------------------------------
   18 Si    x       3.3121      0.3214      0.0922
            y       0.2229      3.4891      0.1212
            z       0.1145     -0.0169      3.0248
-------------------------------------------------------------------------------
   19 Si    x       3.2417     -0.2575     -0.1268
            y      -0.2181      3.4076      0.1864
            z      -0.1292      0.0522      2.7080
-------------------------------------------------------------------------------
   20 Si    x       3.2235     -0.2882      0.1034
            y      -0.2270      3.4305     -0.1828
            z       0.1333     -0.0566      2.6675
-------------------------------------------------------------------------------
   21 Si    x       3.2827      0.3383     -0.1046
            y       0.1804      3.5468     -0.1070
            z      -0.1036      0.0047      3.0212
-------------------------------------------------------------------------------
   22 Si    x       3.2475      0.3326      0.1365
            y       0.1726      3.4327      0.1673
            z       0.1163      0.0296      2.6611
-------------------------------------------------------------------------------
   23 Si    x       3.3308     -0.2836     -0.1368
            y       0.0420      3.7198      0.1221
            z      -0.1625     -0.0120      2.7348
-------------------------------------------------------------------------------
   24 Si    x       3.5863     -0.3062      0.0197
            y      -0.1350      3.4946     -0.2068
            z       0.0943     -0.0745      2.8022
-------------------------------------------------------------------------------
   25 O3    x      -2.1090     -0.9797      0.5496
            y      -1.0189     -2.3352      0.5688
            z       0.5844      0.5779     -1.6362
-------------------------------------------------------------------------------
   26 O3    x      -2.0775     -0.9409     -0.2262
            y      -1.0035     -2.3631     -0.2427
            z      -0.3513     -0.2416     -1.5243
-------------------------------------------------------------------------------
   27 O2    x      -1.7998      0.6867      0.2269
            y       0.7254     -1.8862     -0.2738
            z       0.3231     -0.2382     -1.3169
-------------------------------------------------------------------------------
   28 O3    x      -2.0931      0.9717     -0.5445
            y       0.9769     -2.3108      0.5267
            z      -0.5669      0.5177     -1.6283
-------------------------------------------------------------------------------
   29 O3    x      -1.9521     -0.9123      0.2423
            y      -0.8941     -2.4955      0.2199
            z       0.3789      0.2406     -1.5161
-------------------------------------------------------------------------------
   30 O3    x      -2.0617     -0.9592     -0.5497
            y      -0.9207     -2.3120     -0.5321
            z      -0.5706     -0.5361     -1.6366
-------------------------------------------------------------------------------
   31 O3    x      -2.0389      0.9397      0.5185
            y       0.9287     -2.3633     -0.4911
            z       0.5435     -0.4879     -1.5920
-------------------------------------------------------------------------------
   32 O2    x      -1.7016      0.6767     -0.2611
            y       0.6817     -1.9194      0.2899
            z      -0.3568      0.2656     -1.3487
-------------------------------------------------------------------------------
   33 O3    x      -1.9662     -0.0493      1.0584
            y      -0.0605     -1.2192      0.0473
            z       1.3007      0.0392     -3.3374
-------------------------------------------------------------------------------
   34 O3    x      -2.0658     -0.0049     -1.0944
            y      -0.0067     -1.1975      0.0052
            z      -1.3651     -0.0088     -3.2818
-------------------------------------------------------------------------------
   35 O3    x      -2.0407      0.0297     -0.9036
            y       0.0339     -1.2166      0.0255
            z      -0.9448      0.0017     -2.8164
-------------------------------------------------------------------------------
   36 O2    x      -1.6863     -0.0438      0.6561
            y      -0.0101     -1.1670      0.0009
            z       0.6172      0.0065     -2.1342
-------------------------------------------------------------------------------
   37 O2    x      -1.7413     -0.0020     -0.7282
            y       0.0126     -1.1402      0.0183
            z      -0.7030      0.0211     -2.1748
-------------------------------------------------------------------------------
   38 O3    x      -2.0682      0.0074      0.9315
            y      -0.0067     -1.2148     -0.0146
            z       0.9723     -0.0182     -2.8155
-------------------------------------------------------------------------------
   39 O3    x      -2.0007     -0.9365      0.2890
            y      -0.8512     -2.5368      0.2590
            z       0.3946      0.2637     -1.3432
-------------------------------------------------------------------------------
   40 O2    x      -1.6631     -0.7048     -0.3555
            y      -0.6210     -2.0204     -0.3769
            z      -0.3413     -0.3603     -1.2714
-------------------------------------------------------------------------------
   41 O2    x      -1.6505      0.7032      0.3658
            y       0.6222     -2.0201     -0.3853
            z       0.3440     -0.3617     -1.2809
-------------------------------------------------------------------------------
   42 O2    x      -1.7001      0.7401     -0.2682
            y       0.6708     -2.0210      0.2998
            z      -0.3410      0.2884     -1.1873
-------------------------------------------------------------------------------
   43 O2    x      -1.7001     -0.7151      0.3621
            y      -0.6719     -1.9925      0.3835
            z       0.3475      0.3587     -1.2756
-------------------------------------------------------------------------------
   44 O2    x      -1.7497     -0.7479     -0.2402
            y      -0.7082     -1.9624     -0.2657
            z      -0.3211     -0.2706     -1.2017
-------------------------------------------------------------------------------
   45 O2    x      -1.8386      0.6852      0.2550
            y       0.6864     -1.8511     -0.3007
            z       0.3347     -0.2578     -1.2084
-------------------------------------------------------------------------------
   46 O2    x      -1.6921      0.7184     -0.3614
            y       0.6650     -1.9966      0.3892
            z      -0.3436      0.3601     -1.2743
-------------------------------------------------------------------------------
   47 O2    x      -1.8640      0.0044     -0.5885
            y       0.0244     -1.1672     -0.0111
            z      -0.3233      0.0042     -1.7090
-------------------------------------------------------------------------------
   48 O2    x      -1.9014     -0.0021      0.5971
            y      -0.0061     -1.1603     -0.0116
            z       0.3370     -0.0169     -1.6727
-------------------------------------------------------------------------------
   49 O2    x      -1.1725      0.0710      0.0622
            y       0.1127     -2.4902     -0.0242
            z       0.0826     -0.0170     -1.1051
-------------------------------------------------------------------------------
   50 O3    x      -1.3046     -0.0347     -0.0862
            y       0.0192     -3.1947     -0.1173
            z      -0.0995     -0.1098     -1.2013
-------------------------------------------------------------------------------
   51 O3    x      -1.3469     -0.1445      0.0832
            y      -0.1973     -3.1493      0.1243
            z       0.1172      0.1121     -1.1978
-------------------------------------------------------------------------------
   52 O2    x      -1.1992     -0.0086     -0.0431
            y      -0.0303     -2.5120      0.0053
            z      -0.0710      0.0081     -1.0832
-------------------------------------------------------------------------------
   53 O2    x      -2.3748     -0.0096      0.0072
            y       0.0115     -1.2356      0.0652
            z       0.0124      0.0464     -1.0986
-------------------------------------------------------------------------------
   54 O3    x      -2.9209     -0.1456     -0.0736
            y      -0.1441     -1.4000     -0.1051
            z      -0.0823     -0.0716     -1.2538
-------------------------------------------------------------------------------
   55 O2    x      -2.3644      0.1097     -0.0556
            y       0.0690     -1.2494     -0.0632
            z      -0.0633     -0.0315     -1.1150
-------------------------------------------------------------------------------
   56 O3    x      -2.9651      0.0379      0.0774
            y      -0.0154     -1.3648      0.0935
            z       0.0794      0.0466     -1.2660
-------------------------------------------------------------------------------
   57 O2    x      -1.1925     -0.1372     -0.0573
            y      -0.0992     -1.2910      0.0081
            z      -0.0646      0.0041     -2.0245
-------------------------------------------------------------------------------
   58 O3    x      -1.3159     -0.1555     -0.0638
            y      -0.1179     -1.4545     -0.0859
            z      -0.0333     -0.0558     -2.5893
-------------------------------------------------------------------------------
   59 O2    x      -1.1861      0.1093     -0.0330
            y       0.0628     -1.2804     -0.0598
            z      -0.0266     -0.0654     -2.0874
-------------------------------------------------------------------------------
   60 O2    x      -1.2045      0.1245      0.0199
            y       0.0721     -1.3166     -0.0596
            z       0.0107     -0.0714     -2.0270
-------------------------------------------------------------------------------
   61 O3    x      -1.3395     -0.1608      0.0673
            y      -0.1344     -1.4406      0.0647
            z       0.0394      0.0324     -2.5968
-------------------------------------------------------------------------------
   62 O3    x      -1.3490     -0.1617      0.1441
            y      -0.1351     -1.4769      0.0940
            z       0.1179      0.0380     -2.5448
-------------------------------------------------------------------------------
   63 O2    x      -1.1855      0.1194     -0.0093
            y       0.1092     -1.3020      0.0207
            z      -0.0138      0.0348     -2.0528
-------------------------------------------------------------------------------
   64 O2    x      -1.2087      0.1236     -0.0099
            y       0.1138     -1.2578      0.0500
            z      -0.0034      0.0481     -2.0681
-------------------------------------------------------------------------------
   65 O3    x      -1.4469     -0.1694      0.0951
            y      -0.2224     -3.1195      0.1084
            z       0.1316      0.0920     -1.1207
-------------------------------------------------------------------------------
   66 O2    x      -1.2391     -0.0171     -0.0662
            y      -0.0525     -2.5369      0.0075
            z      -0.0927      0.0055     -1.0238
-------------------------------------------------------------------------------
   67 O2    x      -1.2309      0.0252      0.0697
            y       0.0557     -2.5537      0.0156
            z       0.0881      0.0305     -1.0134
-------------------------------------------------------------------------------
   68 O2    x      -1.2211      0.0324     -0.0737
            y       0.0518     -2.5220     -0.0183
            z      -0.0920     -0.0046     -1.0039
-------------------------------------------------------------------------------
   69 O3    x      -3.0535      0.0580      0.0487
            y       0.0273     -1.3596      0.0870
            z       0.0653      0.0337     -1.2230
-------------------------------------------------------------------------------
   70 O2    x      -2.4354      0.1168     -0.0849
            y       0.0679     -1.2428     -0.0500
            z      -0.0582     -0.0118     -1.0575
-------------------------------------------------------------------------------
   71 O2    x      -2.4287     -0.0614      0.0252
            y      -0.0214     -1.2264     -0.0627
            z       0.0304     -0.0276     -1.0381
-------------------------------------------------------------------------------
   72 O2    x      -2.4107     -0.0595      0.0630
            y      -0.0370     -1.2481      0.0673
            z       0.0477      0.0372     -1.0389
-------------------------------------------------------------------------------




  Elastic Constant Matrix: (Units=GPa)

-------------------------------------------------------------------------------
  Indices      1         2         3         4         5         6    
-------------------------------------------------------------------------------
       1     48.6004   24.6759   19.2048   -0.5552    7.4750   -2.3115
       2     24.6759   63.3721   19.4847   -0.5631    9.7321    1.4795
       3     19.2048   19.4847   24.5009    0.0926    0.5333   -1.8103
       4     -0.5552   -0.5631    0.0926    9.4544    0.2024    0.4641
       5      7.4750    9.7321    0.5333    0.2024   19.1137   -1.7285
       6     -2.3115    1.4795   -1.8103    0.4641   -1.7285   15.2271
-------------------------------------------------------------------------------


  Elastic Compliance Matrix: (Units=1/GPa)

-------------------------------------------------------------------------------
  Indices      1         2         3         4         5         6    
-------------------------------------------------------------------------------
       1    0.033286 -0.004694 -0.022025  0.002018 -0.009880  0.001707
       2   -0.004694  0.024288 -0.015871  0.001861 -0.010671 -0.006227
       3   -0.022025 -0.015871  0.071006 -0.003684  0.015522  0.008515
       4    0.002018  0.001861 -0.003684  0.106295 -0.003113 -0.003905
       5   -0.009880 -0.010671  0.015522 -0.003113  0.061985  0.008513
       6    0.001707 -0.006227  0.008515 -0.003905  0.008513  0.068634
-------------------------------------------------------------------------------

  Mechanical properties :

-------------------------------------------------------------------------------
  Convention :                    Reuss         Voigt         Hill
-------------------------------------------------------------------------------
  Bulk  Modulus (GPa)     =      23.04116      29.24493      26.14304
  Shear Modulus (GPa)     =      10.74944      13.63292      12.19118
-------------------------------------------------------------------------------
  Velocity S-wave (km/s)  =       2.29996       2.59013       2.44934
  Velocity P-wave (km/s)  =       4.28855       4.83078       4.56772
-------------------------------------------------------------------------------
  Compressibility (1/GPa) =    0.04340059
-------------------------------------------------------------------------------
  Stress axis :                     x             y             z
-------------------------------------------------------------------------------
  Youngs Moduli (GPa)     =      30.04241      41.17265      14.08340
-------------------------------------------------------------------------------
  Poissons Ratio (x)      =                     0.19326       0.31018
  Poissons Ratio (y)      =       0.14101                     0.22352
  Poissons Ratio (z)      =       0.66168       0.65345
-------------------------------------------------------------------------------


  Piezoelectric Strain Matrix: (Units=C/m**2)

-------------------------------------------------------------------------------
  Indices      1         2         3         4         5         6    
-------------------------------------------------------------------------------
       x    -0.04864   0.46411  -0.28176  -0.00276   0.02086   0.38483
       y    -0.52316  -0.53557  -0.23431  -0.05706  -0.08108   0.11475
       z    -0.12987  -0.06710  -0.10967   0.13817  -0.15668  -0.05661
-------------------------------------------------------------------------------


  Piezoelectric Stress Matrix: (Units=10**-11 C/N)

-------------------------------------------------------------------------------
  Indices      1         2         3         4         5         6    
-------------------------------------------------------------------------------
       x     0.28538   1.33482  -2.26906  -0.00574  -0.42676   2.12287
       y    -0.88576  -0.67890   0.33135  -0.74501   0.33756   0.78549
       z     0.01378   0.30020  -0.72849   1.54126  -1.03269  -0.64967
-------------------------------------------------------------------------------


  Static dielectric constant tensor : 

-------------------------------------------------------------------------------
              x         y         z
-------------------------------------------------------------------------------
       x     4.29349   0.06809  -0.02333
       y     0.06809   4.36066  -0.07049
       z    -0.02333  -0.07049   3.53026
--------------------------------------------------------------------------------

  High frequency dielectric constant tensor : 

-------------------------------------------------------------------------------
              x         y         z
-------------------------------------------------------------------------------
       x     1.65627  -0.00020   0.00105
       y    -0.00020   1.66248  -0.00091
       z     0.00105  -0.00091   1.59543
-------------------------------------------------------------------------------

  Static refractive indices : 

-------------------------------------------------------------------------------
    1 =    1.87721      2 =    2.06193      3 =    2.09975
-------------------------------------------------------------------------------

  High frequency refractive indices : 

-------------------------------------------------------------------------------
    1 =    1.26309      2 =    1.28697      3 =    1.28938
-------------------------------------------------------------------------------


  Time to end of optimisation =       8.4114 seconds


  Peak dynamic memory used =       5.01 MB 


  Timing analysis for GULP :

--------------------------------------------------------------------------------
  Task / Subroutine                                          Time (Seconds)
--------------------------------------------------------------------------------
  Calculation of reciprocal space energy and derivatives          0.5234
  Calculation of real space energy and derivatives                5.5474
  Calculation of three-body energy and derivatives                0.3669
  Calculation and manipulation of Hessian matrix                  2.1570
  Calculation of matrix inversion                                 0.0305
  Global summation overhead                                       0.0001
--------------------------------------------------------------------------------
  Total CPU time                                                  8.4114
--------------------------------------------------------------------------------


  Dump file written as POSCAR_N0005.vasp.grs
  CIF file written as POSCAR_N0005.vasp.cif


  Job Finished at 07:46.02 31st October    2025                               

