********************************************************************************
*                       GENERAL UTILITY LATTICE PROGRAM                        *
*                                 Julian Gale                                  *
*                       Curtin Institute for Computation                       *
*                    School of Molecular and Life Sciences                     *
*                    Curtin University, Western Australia                      *
********************************************************************************
* Version = 6.1.2 * Last modified =   3rd November 2022                        *
********************************************************************************
*  optimise     - perform optimisation run                                     *
*  conp         - constant pressure calculation                                *
*  property     - calculate properties for final geometry                      *
********************************************************************************

  Job Started  at 07:46.45 31st October    2025                               

  Number of CPUs =     1


  Total number of configurations input =      1

********************************************************************************
*  Input for Configuration =   1 : POSCAR_N0009.vasp                           *
********************************************************************************

  Formula = Ge9Si15O48                                                  

  Number of irreducible atoms/shells =     120


  Total number atoms/shells =     120

  Dimensionality = 3               :  Bulk   



  Cartesian lattice vectors (Angstroms) :

       17.182800    0.000000    0.000000
        0.000000    7.513760    0.000000
        0.000000    0.000000   10.447700

  Cell parameters (Angstroms/Degrees):

  a =      17.1828    alpha =  90.0000
  b =       7.5138    beta  =  90.0000
  c =      10.4477    gamma =  90.0000

  Initial cell volume =        1348.875752 Angs**3

  Temperature of configuration =   0.00     K 

  Pressure of configuration =         0.000 GPa 

  Fractional coordinates of asymmetric unit :

--------------------------------------------------------------------------------
   No.  Atomic       x           y          z         Charge      Occupancy
        Label      (Frac)      (Frac)     (Frac)        (e)         (Frac)  
--------------------------------------------------------------------------------
      1 Ge    c    0.447910    0.000000    0.372270     4.00000    1.000000    
      2 Ge    c    0.947910 *  0.000000 *  0.627730 *   4.00000    1.000000    
      3 Ge    c    0.552090 *  0.000000 *  0.627730 *   4.00000    1.000000    
      4 Ge    c    0.160190 *  0.293910 *  0.273440 *   4.00000    1.000000    
      5 Ge    c    0.839810 *  0.706090 *  0.726560 *   4.00000    1.000000    
      6 Ge    c    0.160190 *  0.706090 *  0.273440 *   4.00000    1.000000    
      7 Ge    c    0.660660 *  0.294090 *  0.017440 *   4.00000    1.000000    
      8 Ge    c    0.160660 *  0.294090 *  0.982560 *   4.00000    1.000000    
      9 Ge    c    0.839340 *  0.294090 *  0.017440 *   4.00000    1.000000    
     10 Si    c    0.052090 *  0.000000 *  0.372270 *   4.00000    1.000000    
     11 Si    c    0.556730 *  0.000000 *  0.122130 *   4.00000    1.000000    
     12 Si    c    0.943270 *  0.000000 *  0.122130 *   4.00000    1.000000    
     13 Si    c    0.443270 *  0.000000 *  0.877870 *   4.00000    1.000000    
     14 Si    c    0.056730 *  0.000000 *  0.877870 *   4.00000    1.000000    
     15 Si    c    0.339810 *  0.706090 *  0.273440 *   4.00000    1.000000    
     16 Si    c    0.839810 *  0.293910 *  0.726560 *   4.00000    1.000000    
     17 Si    c    0.660190 *  0.706090 *  0.726560 *   4.00000    1.000000    
     18 Si    c    0.660190 *  0.293910 *  0.726560 *   4.00000    1.000000    
     19 Si    c    0.339810 *  0.293910 *  0.273440 *   4.00000    1.000000    
     20 Si    c    0.839340 *  0.705910 *  0.017440 *   4.00000    1.000000    
     21 Si    c    0.339340 *  0.294090 *  0.982560 *   4.00000    1.000000    
     22 Si    c    0.160660 *  0.705910 *  0.982560 *   4.00000    1.000000    
     23 Si    c    0.339340 *  0.705910 *  0.982560 *   4.00000    1.000000    
     24 Si    c    0.660660 *  0.705910 *  0.017440 *   4.00000    1.000000    
     25 O3    c    0.106570 *  0.174340 *  0.366200 *   1.33043    1.000000    
     26 O3    c    0.393430 *  0.825660 *  0.366200 *   1.33043    1.000000    
     27 O3    c    0.893430 *  0.174340 *  0.633800 *   1.33043    1.000000    
     28 O3    c    0.606570 *  0.825660 *  0.633800 *   1.33043    1.000000    
     29 O1    c    0.893430 *  0.825660 *  0.633800 *   1.73396    1.000000    
     30 O3    c    0.606570 *  0.174340 *  0.633800 *   1.33043    1.000000    
     31 O3    c    0.106570 *  0.825660 *  0.366200 *   1.33043    1.000000    
     32 O3    c    0.393430 *  0.174340 *  0.366200 *   1.33043    1.000000    
     33 O3    c    0.000000 *  0.000000 *  0.500000 *   1.33043    1.000000    
     34 O1    c    0.500000 *  0.000000 *  0.500000 *   1.73396    1.000000    
     35 O2    c    0.994520 *  0.000000 *  0.250840 *   0.87073    1.000000    
     36 O3    c    0.505480 *  0.000000 *  0.250840 *   1.33043    1.000000    
     37 O3    c    0.005480 *  0.000000 *  0.749160 *   1.33043    1.000000    
     38 O3    c    0.494520 *  0.000000 *  0.749160 *   1.33043    1.000000    
     39 O3    c    0.610230 *  0.175520 *  0.115390 *   1.33043    1.000000    
     40 O2    c    0.889770 *  0.824480 *  0.115390 *   0.87073    1.000000    
     41 O2    c    0.389770 *  0.175520 *  0.884610 *   0.87073    1.000000    
     42 O2    c    0.110230 *  0.824480 *  0.884610 *   0.87073    1.000000    
     43 O2    c    0.389770 *  0.824480 *  0.884610 *   0.87073    1.000000    
     44 O3    c    0.110230 *  0.175520 *  0.884610 *   1.33043    1.000000    
     45 O2    c    0.610230 *  0.824480 *  0.115390 *   0.87073    1.000000    
     46 O3    c    0.889770 *  0.175520 *  0.115390 *   1.33043    1.000000    
     47 O2    c    0.500000 *  0.000000 *  0.000000 *   0.87073    1.000000    
     48 O2    c    0.000000 *  0.000000 *  0.000000 *   0.87073    1.000000    
     49 O1    c    0.151750 *  0.500000 *  0.313330 *   1.73396    1.000000    
     50 O2    c    0.348250 *  0.500000 *  0.313330 *   0.87073    1.000000    
     51 O3    c    0.848250 *  0.500000 *  0.686670 *   1.33043    1.000000    
     52 O2    c    0.651750 *  0.500000 *  0.686670 *   0.87073    1.000000    
     53 O3    c    0.250000 *  0.234950 *  0.285720 *   1.33043    1.000000    
     54 O3    c    0.250000 *  0.765050 *  0.285720 *   1.33043    1.000000    
     55 O2    c    0.750000 *  0.234950 *  0.714280 *   0.87073    1.000000    
     56 O3    c    0.750000 *  0.765050 *  0.714280 *   1.33043    1.000000    
     57 O1    c    0.131410 *  0.268650 *  0.127790 *   1.73396    1.000000    
     58 O2    c    0.368590 *  0.731350 *  0.127790 *   0.87073    1.000000    
     59 O3    c    0.868590 *  0.268650 *  0.872210 *   1.33043    1.000000    
     60 O2    c    0.631410 *  0.731350 *  0.872210 *   0.87073    1.000000    
     61 O3    c    0.868590 *  0.731350 *  0.872210 *   1.33043    1.000000    
     62 O3    c    0.631410 *  0.268650 *  0.872210 *   1.33043    1.000000    
     63 O3    c    0.131410 *  0.731350 *  0.127790 *   1.33043    1.000000    
     64 O2    c    0.368590 *  0.268650 *  0.127790 *   0.87073    1.000000    
     65 O3    c    0.653920 *  0.500000 *  0.058200 *   1.33043    1.000000    
     66 O3    c    0.846080 *  0.500000 *  0.058200 *   1.33043    1.000000    
     67 O2    c    0.346080 *  0.500000 *  0.941800 *   0.87073    1.000000    
     68 O3    c    0.153920 *  0.500000 *  0.941800 *   1.33043    1.000000    
     69 O1    c    0.750000 *  0.231060 *  0.027050 *   1.73396    1.000000    
     70 O2    c    0.750000 *  0.768940 *  0.027050 *   0.87073    1.000000    
     71 O3    c    0.250000 *  0.231060 *  0.972950 *   1.33043    1.000000    
     72 O2    c    0.250000 *  0.768940 *  0.972950 *   0.87073    1.000000    
     73 O3    s    0.106570 *  0.174340 *  0.366200 *  -3.33043    1.000000    
     74 O3    s    0.393430 *  0.825660 *  0.366200 *  -3.33043    1.000000    
     75 O3    s    0.893430 *  0.174340 *  0.633800 *  -3.33043    1.000000    
     76 O3    s    0.606570 *  0.825660 *  0.633800 *  -3.33043    1.000000    
     77 O1    s    0.893430 *  0.825660 *  0.633800 *  -3.73396    1.000000    
     78 O3    s    0.606570 *  0.174340 *  0.633800 *  -3.33043    1.000000    
     79 O3    s    0.106570 *  0.825660 *  0.366200 *  -3.33043    1.000000    
     80 O3    s    0.393430 *  0.174340 *  0.366200 *  -3.33043    1.000000    
     81 O3    s    0.000000 *  0.000000 *  0.500000 *  -3.33043    1.000000    
     82 O1    s    0.500000 *  0.000000 *  0.500000 *  -3.73396    1.000000    
     83 O2    s    0.994520 *  0.000000 *  0.250840 *  -2.87073    1.000000    
     84 O3    s    0.505480 *  0.000000 *  0.250840 *  -3.33043    1.000000    
     85 O3    s    0.005480 *  0.000000 *  0.749160 *  -3.33043    1.000000    
     86 O3    s    0.494520 *  0.000000 *  0.749160 *  -3.33043    1.000000    
     87 O3    s    0.610230 *  0.175520 *  0.115390 *  -3.33043    1.000000    
     88 O2    s    0.889770 *  0.824480 *  0.115390 *  -2.87073    1.000000    
     89 O2    s    0.389770 *  0.175520 *  0.884610 *  -2.87073    1.000000    
     90 O2    s    0.110230 *  0.824480 *  0.884610 *  -2.87073    1.000000    
     91 O2    s    0.389770 *  0.824480 *  0.884610 *  -2.87073    1.000000    
     92 O3    s    0.110230 *  0.175520 *  0.884610 *  -3.33043    1.000000    
     93 O2    s    0.610230 *  0.824480 *  0.115390 *  -2.87073    1.000000    
     94 O3    s    0.889770 *  0.175520 *  0.115390 *  -3.33043    1.000000    
     95 O2    s    0.500000 *  0.000000 *  0.000000 *  -2.87073    1.000000    
     96 O2    s    0.000000 *  0.000000 *  0.000000 *  -2.87073    1.000000    
     97 O1    s    0.151750 *  0.500000 *  0.313330 *  -3.73396    1.000000    
     98 O2    s    0.348250 *  0.500000 *  0.313330 *  -2.87073    1.000000    
     99 O3    s    0.848250 *  0.500000 *  0.686670 *  -3.33043    1.000000    
    100 O2    s    0.651750 *  0.500000 *  0.686670 *  -2.87073    1.000000    
    101 O3    s    0.250000 *  0.234950 *  0.285720 *  -3.33043    1.000000    
    102 O3    s    0.250000 *  0.765050 *  0.285720 *  -3.33043    1.000000    
    103 O2    s    0.750000 *  0.234950 *  0.714280 *  -2.87073    1.000000    
    104 O3    s    0.750000 *  0.765050 *  0.714280 *  -3.33043    1.000000    
    105 O1    s    0.131410 *  0.268650 *  0.127790 *  -3.73396    1.000000    
    106 O2    s    0.368590 *  0.731350 *  0.127790 *  -2.87073    1.000000    
    107 O3    s    0.868590 *  0.268650 *  0.872210 *  -3.33043    1.000000    
    108 O2    s    0.631410 *  0.731350 *  0.872210 *  -2.87073    1.000000    
    109 O3    s    0.868590 *  0.731350 *  0.872210 *  -3.33043    1.000000    
    110 O3    s    0.631410 *  0.268650 *  0.872210 *  -3.33043    1.000000    
    111 O3    s    0.131410 *  0.731350 *  0.127790 *  -3.33043    1.000000    
    112 O2    s    0.368590 *  0.268650 *  0.127790 *  -2.87073    1.000000    
    113 O3    s    0.653920 *  0.500000 *  0.058200 *  -3.33043    1.000000    
    114 O3    s    0.846080 *  0.500000 *  0.058200 *  -3.33043    1.000000    
    115 O2    s    0.346080 *  0.500000 *  0.941800 *  -2.87073    1.000000    
    116 O3    s    0.153920 *  0.500000 *  0.941800 *  -3.33043    1.000000    
    117 O1    s    0.750000 *  0.231060 *  0.027050 *  -3.73396    1.000000    
    118 O2    s    0.750000 *  0.768940 *  0.027050 *  -2.87073    1.000000    
    119 O3    s    0.250000 *  0.231060 *  0.972950 *  -3.33043    1.000000    
    120 O2    s    0.250000 *  0.768940 *  0.972950 *  -2.87073    1.000000    
--------------------------------------------------------------------------------



********************************************************************************
*  General input information                                                   *
********************************************************************************

  Species output for all configurations : 

--------------------------------------------------------------------------------
  Species    Type    Atomic    Atomic    Charge       Radii (Angs)     Library
                     Number     Mass       (e)     Cova   Ionic  VDW   Symbol
--------------------------------------------------------------------------------
    Ge       Core       32      72.61   4.000000   1.170  0.000  1.750 Ge       
    Si       Core       14      28.09   4.000000   1.200  0.000  2.100 Si       
    O1       Core        8      16.00   1.733957   0.730  0.000  1.360 O1       
    O2       Core        8      16.00   0.870733   0.730  0.000  1.360 O2       
    O3       Core        8      16.00   1.330431   0.730  0.000  1.360 O3       
    O1       Shell       8       0.00  -3.733957   0.730  0.000  0.000 O1       
    O2       Shell       8       0.00  -2.870733   0.730  0.000  0.000 O2       
    O3       Shell       8       0.00  -3.330431   0.730  0.000  0.000 O3       
--------------------------------------------------------------------------------


  Lattice summation method               =    Ewald          (3-D)
                                         =    Parry          (2-D)
                                         =    Saunders et al (1-D)
  Accuracy factor for lattice sums       =   12.000


  Analytic derivatives to be used

  Time limit = Infinity

  Maximum range for interatomic potentials =    100000.000000 Angstroms

  General interatomic potentials :

--------------------------------------------------------------------------------
Atom  Types   Potential      Parameter       Value         Units   Cutoffs(Ang)
  1     2                                                            Min /  Max 
--------------------------------------------------------------------------------
Si   c O1   s Buckingham    Buckingham A     1315.2478    eV        0.000 16.000
                            Buckingham rho  0.31775900    Ang       
                            Buckingham C     10.141118    eV*Ang^6  
--------------------------------------------------------------------------------
Si   c O2   s Buckingham    Buckingham A     1315.2478    eV        0.000 16.000
                            Buckingham rho  0.31775900    Ang       
                            Buckingham C     10.141118    eV*Ang^6  
--------------------------------------------------------------------------------
Si   c O3   s Buckingham    Buckingham A     1315.2478    eV        0.000 16.000
                            Buckingham rho  0.31775900    Ang       
                            Buckingham C     10.141118    eV*Ang^6  
--------------------------------------------------------------------------------
Ge   c O1   s Buckingham    Buckingham A     1497.3996    eV        0.000 16.000
                            Buckingham rho  0.32564600    Ang       
                            Buckingham C     16.808599    eV*Ang^6  
--------------------------------------------------------------------------------
Ge   c O2   s Buckingham    Buckingham A     1497.3996    eV        0.000 16.000
                            Buckingham rho  0.32564600    Ang       
                            Buckingham C     16.808599    eV*Ang^6  
--------------------------------------------------------------------------------
Ge   c O3   s Buckingham    Buckingham A     1497.3996    eV        0.000 16.000
                            Buckingham rho  0.32564600    Ang       
                            Buckingham C     16.808599    eV*Ang^6  
--------------------------------------------------------------------------------
O1   s O1   s Buckingham    Buckingham A     22764.000    eV        0.000 16.000
                            Buckingham rho  0.14900000    Ang       
                            Buckingham C     10.937044    eV*Ang^6  
--------------------------------------------------------------------------------
O1   s O2   s Buckingham    Buckingham A     22764.000    eV        0.000 16.000
                            Buckingham rho  0.14900000    Ang       
                            Buckingham C     10.937044    eV*Ang^6  
--------------------------------------------------------------------------------
O1   s O3   s Buckingham    Buckingham A     22764.000    eV        0.000 16.000
                            Buckingham rho  0.14900000    Ang       
                            Buckingham C     10.937044    eV*Ang^6  
--------------------------------------------------------------------------------
O2   s O2   s Buckingham    Buckingham A     22764.000    eV        0.000 16.000
                            Buckingham rho  0.14900000    Ang       
                            Buckingham C     10.937044    eV*Ang^6  
--------------------------------------------------------------------------------
O2   s O3   s Buckingham    Buckingham A     22764.000    eV        0.000 16.000
                            Buckingham rho  0.14900000    Ang       
                            Buckingham C     10.937044    eV*Ang^6  
--------------------------------------------------------------------------------
O3   s O3   s Buckingham    Buckingham A     22764.000    eV        0.000 16.000
                            Buckingham rho  0.14900000    Ang       
                            Buckingham C     10.937044    eV*Ang^6  
--------------------------------------------------------------------------------
O1   c O1   s Spring (c-s)  Spring k 2       180.31577    eV*Ang^-2 0.000  0.800
                            Spring k 4       0.0000000    eV*Ang^-4 
--------------------------------------------------------------------------------
O2   c O2   s Spring (c-s)  Spring k 2       75.969800    eV*Ang^-2 0.000  0.800
                            Spring k 4       0.0000000    eV*Ang^-4 
--------------------------------------------------------------------------------
O3   c O3   s Spring (c-s)  Spring k 2       128.14270    eV*Ang^-2 0.000  0.800
                            Spring k 4       0.0000000    eV*Ang^-4 
--------------------------------------------------------------------------------

  General Three-body potentials :

--------------------------------------------------------------------------------
  Atoms       Potential      Parameter       Value         Units   Cutoffs(Ang)
  1 / 2 / 3                                                          Min /  Max 
--------------------------------------------------------------------------------
Si    core    Harmonic      Three-body cnst  1.2614000    eV*rad^-2 0.000  1.900
O1    shel                  Three-body angl  109.47000    degrees   0.000  1.900
O1    shel                  Three-body k4    0.0000000    eV*rad^-4 0.000  3.500
                            Three-body k3    0.0000000    eV*rad^-3 
--------------------------------------------------------------------------------
Si    core    Harmonic      Three-body cnst  1.2614000    eV*rad^-2 0.000  1.900
O1    shel                  Three-body angl  109.47000    degrees   0.000  1.900
õ(1   shel                  Three-body k4    0.0000000    eV*rad^-4 0.000  3.500
                            Three-body k3    0.0000000    eV*rad^-3 
--------------------------------------------------------------------------------
Si    core    Harmonic      Three-body cnst  1.2614000    eV*rad^-2 0.000  1.900
õ(1   shel                  Three-body angl  109.47000    degrees   0.000  1.900
õ(1   shel                  Three-body k4    0.0000000    eV*rad^-4 0.000  3.500
                            Three-body k3    0.0000000    eV*rad^-3 
--------------------------------------------------------------------------------
Si    core    Harmonic      Three-body cnst  1.2614000    eV*rad^-2 0.000  1.900
O1    shel                  Three-body angl  109.47000    degrees   0.000  1.900
O2    shel                  Three-body k4    0.0000000    eV*rad^-4 0.000  3.500
                            Three-body k3    0.0000000    eV*rad^-3 
--------------------------------------------------------------------------------
Si    core    Harmonic      Three-body cnst  1.2614000    eV*rad^-2 0.000  1.900
O1    shel                  Three-body angl  109.47000    degrees   0.000  1.900
õ(2   shel                  Three-body k4    0.0000000    eV*rad^-4 0.000  3.500
                            Three-body k3    0.0000000    eV*rad^-3 
--------------------------------------------------------------------------------
Si    core    Harmonic      Three-body cnst  1.2614000    eV*rad^-2 0.000  1.900
O2    shel                  Three-body angl  109.47000    degrees   0.000  1.900
õ(1   shel                  Three-body k4    0.0000000    eV*rad^-4 0.000  3.500
                            Three-body k3    0.0000000    eV*rad^-3 
--------------------------------------------------------------------------------
Si    core    Harmonic      Three-body cnst  1.2614000    eV*rad^-2 0.000  1.900
õ(1   shel                  Three-body angl  109.47000    degrees   0.000  1.900
õ(2   shel                  Three-body k4    0.0000000    eV*rad^-4 0.000  3.500
                            Three-body k3    0.0000000    eV*rad^-3 
--------------------------------------------------------------------------------
Si    core    Harmonic      Three-body cnst  1.2614000    eV*rad^-2 0.000  1.900
O2    shel                  Three-body angl  109.47000    degrees   0.000  1.900
O2    shel                  Three-body k4    0.0000000    eV*rad^-4 0.000  3.500
                            Three-body k3    0.0000000    eV*rad^-3 
--------------------------------------------------------------------------------
Si    core    Harmonic      Three-body cnst  1.2614000    eV*rad^-2 0.000  1.900
O2    shel                  Three-body angl  109.47000    degrees   0.000  1.900
õ(2   shel                  Three-body k4    0.0000000    eV*rad^-4 0.000  3.500
                            Three-body k3    0.0000000    eV*rad^-3 
--------------------------------------------------------------------------------
Si    core    Harmonic      Three-body cnst  1.2614000    eV*rad^-2 0.000  1.900
õ(2   shel                  Three-body angl  109.47000    degrees   0.000  1.900
õ(2   shel                  Three-body k4    0.0000000    eV*rad^-4 0.000  3.500
                            Three-body k3    0.0000000    eV*rad^-3 
--------------------------------------------------------------------------------

********************************************************************************
*  Output for configuration   1 : POSCAR_N0009.vasp                            *
********************************************************************************


  Components of energy : 

--------------------------------------------------------------------------------
  Interatomic potentials     =         808.36138528 eV    
  Three-body potentials      =           0.00590035 eV    
  Monopole - monopole (real) =       -2676.00317478 eV    
  Monopole - monopole (recip)=       -1115.35404472 eV    
  Monopole - monopole (total)=       -3791.35721950 eV    
--------------------------------------------------------------------------------
  Total lattice energy       =       -2982.98993387 eV    
--------------------------------------------------------------------------------
  Total lattice energy       =         -287812.9294 kJ/(mole unit cells)
--------------------------------------------------------------------------------


  Number of variables =      363

  Maximum number of calculations  =          1000
  Maximum Hessian update interval =            10
  Maximum step size               =   0.100000000
  Maximum parameter tolerance     =   0.000010000
  Maximum function  tolerance     =   0.000010000
  Maximum gradient  tolerance     =   0.001000000
  Maximum gradient  component     =   0.010000000

  Symmetry not applied to optimisation

  Cell parameters to be optimised using strains

  Newton-Raphson optimiser to be used

  BFGS hessian update to be used

  Lower half triangular hessian to be used

  Minimiser to switch to RFO
  When gradient norm is less than     0.050000

  Dumpfile to be written after every cycle

  Start of bulk optimisation :

  Cycle:      0 Energy:     -2982.989934  Gnorm:      4.966641  CPU:    0.123
  ** Hessian calculated **
  Cycle:      1 Energy:     -3016.987129  Gnorm:      1.183603  CPU:    0.252
  ** Hessian calculated **
  Cycle:      2 Energy:     -3020.222630  Gnorm:      0.712197  CPU:    0.458
  Cycle:      3 Energy:     -3021.528006  Gnorm:      0.507315  CPU:    0.565
  Cycle:      4 Energy:     -3023.056552  Gnorm:      0.407140  CPU:    0.692
  Cycle:      5 Energy:     -3024.499595  Gnorm:      0.304236  CPU:    0.814
  Cycle:      6 Energy:     -3025.186280  Gnorm:      0.229615  CPU:    0.917
  Cycle:      7 Energy:     -3025.517906  Gnorm:      0.157925  CPU:    1.020
  Cycle:      8 Energy:     -3025.661107  Gnorm:      0.103532  CPU:    1.123
  Cycle:      9 Energy:     -3025.721070  Gnorm:      0.074497  CPU:    1.230
  Cycle:     10 Energy:     -3025.772861  Gnorm:      0.068031  CPU:    1.352
  Cycle:     11 Energy:     -3025.825572  Gnorm:      0.075029  CPU:    1.473
  ** Hessian calculated **
  Cycle:     12 Energy:     -3025.842171  Gnorm:      0.063490  CPU:    1.688
  Cycle:     13 Energy:     -3025.864805  Gnorm:      0.058275  CPU:    1.809
  Cycle:     14 Energy:     -3025.900861  Gnorm:      0.057462  CPU:    1.954
  Cycle:     15 Energy:     -3025.941252  Gnorm:      0.054666  CPU:    2.075
  Cycle:     16 Energy:     -3025.985622  Gnorm:      0.053676  CPU:    2.191
  Cycle:     17 Energy:     -3026.018907  Gnorm:      0.053893  CPU:    2.289
  Cycle:     18 Energy:     -3026.040915  Gnorm:      0.054669  CPU:    2.389
  Cycle:     19 Energy:     -3026.062279  Gnorm:      0.055097  CPU:    2.510
  Cycle:     20 Energy:     -3026.083103  Gnorm:      0.054973  CPU:    2.629
  Cycle:     21 Energy:     -3026.109994  Gnorm:      0.061074  CPU:    2.746
  ** Hessian calculated **
  Cycle:     22 Energy:     -3026.136965  Gnorm:      0.059401  CPU:    2.959
  Cycle:     23 Energy:     -3026.181424  Gnorm:      0.056525  CPU:    3.096
  Cycle:     24 Energy:     -3026.237263  Gnorm:      0.052663  CPU:    3.215
  Cycle:     25 Energy:     -3026.328151  Gnorm:      0.045840  CPU:    3.356
  ** Hessian has wrong structure
  ** Imaginary eigenvectors =   4
  Cycle:     26 Energy:     -3026.342361  Gnorm:      0.063766  CPU:    3.663
  ** Hessian has wrong structure
  ** Imaginary eigenvectors =   4
  ** Hessian has wrong structure
  ** Imaginary eigenvectors =   3
  Cycle:     27 Energy:     -3026.364193  Gnorm:      0.075869  CPU:    4.179
  ** Hessian has wrong structure
  ** Imaginary eigenvectors =   2
  ** Hessian has required structure
  Cycle:     28 Energy:     -3026.599202  Gnorm:      0.067322  CPU:    4.629
  ** Hessian has required structure
  Cycle:     29 Energy:     -3026.704017  Gnorm:      0.034124  CPU:    4.784
  ** Hessian has required structure
  Cycle:     30 Energy:     -3026.771972  Gnorm:      0.034931  CPU:    4.979
  ** Hessian has required structure
  Cycle:     31 Energy:     -3026.801205  Gnorm:      0.040014  CPU:    5.153
  ** Hessian has required structure
  Cycle:     32 Energy:     -3026.820062  Gnorm:      0.033748  CPU:    5.308
  ** Hessian has required structure
  Cycle:     33 Energy:     -3026.840061  Gnorm:      0.027632  CPU:    5.482
  ** Hessian has required structure
  Cycle:     34 Energy:     -3026.849663  Gnorm:      0.018161  CPU:    5.637
  ** Hessian has required structure
  Cycle:     35 Energy:     -3026.859041  Gnorm:      0.018230  CPU:    5.852
  ** Hessian has required structure
  Cycle:     36 Energy:     -3026.870277  Gnorm:      0.017782  CPU:    6.045
  ** Hessian has required structure
  Cycle:     37 Energy:     -3026.878292  Gnorm:      0.019844  CPU:    6.219
  ** Hessian has required structure
  Cycle:     38 Energy:     -3026.893491  Gnorm:      0.025603  CPU:    6.484
  ** Hessian has required structure
  Cycle:     39 Energy:     -3026.904079  Gnorm:      0.016810  CPU:    6.658
  ** Hessian has required structure
  Cycle:     40 Energy:     -3026.914588  Gnorm:      0.019610  CPU:    6.847
  ** Hessian has required structure
  Cycle:     41 Energy:     -3026.926107  Gnorm:      0.013806  CPU:    7.007
  ** Hessian has required structure
  Cycle:     42 Energy:     -3026.934741  Gnorm:      0.019273  CPU:    7.189
  ** Hessian has required structure
  Cycle:     43 Energy:     -3026.944440  Gnorm:      0.014429  CPU:    7.369
  ** Hessian has required structure
  Cycle:     44 Energy:     -3026.951443  Gnorm:      0.009402  CPU:    7.534
  ** Hessian has required structure
  Cycle:     45 Energy:     -3026.955266  Gnorm:      0.006788  CPU:    7.699
  ** Hessian has required structure
  Cycle:     46 Energy:     -3026.957089  Gnorm:      0.004954  CPU:    7.861
  ** Hessian has required structure
  Cycle:     47 Energy:     -3026.958107  Gnorm:      0.004302  CPU:    8.025
  ** Hessian has wrong structure
  ** Imaginary eigenvectors =   1
  Cycle:     48 Energy:     -3026.962320  Gnorm:      0.011052  CPU:    8.454
  ** Hessian has wrong structure
  ** Imaginary eigenvectors =   1
  Cycle:     49 Energy:     -3026.977156  Gnorm:      0.024707  CPU:    8.853
  ** Hessian has required structure
  Cycle:     50 Energy:     -3027.008780  Gnorm:      0.024288  CPU:    9.119
  ** Hessian has required structure
  Cycle:     51 Energy:     -3027.035044  Gnorm:      0.017763  CPU:    9.301
  ** Hessian has required structure
  Cycle:     52 Energy:     -3027.045167  Gnorm:      0.006061  CPU:    9.463
  ** Hessian has required structure
  Cycle:     53 Energy:     -3027.050389  Gnorm:      0.006787  CPU:    9.643
  ** Hessian has required structure
  Cycle:     54 Energy:     -3027.052015  Gnorm:      0.004100  CPU:    9.825
  ** Hessian has required structure
  Cycle:     55 Energy:     -3027.052449  Gnorm:      0.002675  CPU:    9.988
  ** Hessian has required structure
  Cycle:     56 Energy:     -3027.052660  Gnorm:      0.001480  CPU:   10.152
  ** Hessian has required structure
  Cycle:     57 Energy:     -3027.052728  Gnorm:      0.001024  CPU:   10.315
  ** Hessian has required structure
  Cycle:     58 Energy:     -3027.052752  Gnorm:      0.000592  CPU:   10.477
  ** Hessian has required structure
  Cycle:     59 Energy:     -3027.052765  Gnorm:      0.000453  CPU:   10.661
  ** Hessian has required structure
  Cycle:     60 Energy:     -3027.052771  Gnorm:      0.000276  CPU:   10.926
  ** Hessian has required structure
  Cycle:     61 Energy:     -3027.052775  Gnorm:      0.000206  CPU:   11.081
  ** Hessian has required structure
  Cycle:     62 Energy:     -3027.052776  Gnorm:      0.000151  CPU:   11.235
  ** Hessian has required structure
  Cycle:     63 Energy:     -3027.052777  Gnorm:      0.000108  CPU:   11.388
  ** Hessian has required structure
  Cycle:     64 Energy:     -3027.052777  Gnorm:      0.000076  CPU:   11.543
  ** Hessian has required structure
  Cycle:     65 Energy:     -3027.052777  Gnorm:      0.000053  CPU:   11.696
  ** Hessian has required structure


  **** Optimisation achieved ****


  Final energy =   -3027.05277760 eV      
  Final Gnorm  =       0.00004254

  Components of energy : 

--------------------------------------------------------------------------------
  Interatomic potentials     =         807.79555350 eV    
  Three-body potentials      =           0.05335800 eV    
  Monopole - monopole (real) =       -1980.58902147 eV    
  Monopole - monopole (recip)=       -1854.31266763 eV    
  Monopole - monopole (total)=       -3834.90168910 eV    
--------------------------------------------------------------------------------
  Total lattice energy       =       -3027.05277760 eV    
--------------------------------------------------------------------------------
  Total lattice energy       =         -292064.3203 kJ/(mole unit cells)
--------------------------------------------------------------------------------

  Final fractional coordinates of atoms :

--------------------------------------------------------------------------------
   No.  Atomic        x           y          z          Radius
        Label       (Frac)      (Frac)     (Frac)       (Angs) 
--------------------------------------------------------------------------------
     1  Ge    c     0.447910    0.000000    0.372270    0.000000
     2  Ge    c     0.941850    0.991434    0.610120    0.000000
     3  Ge    c     0.541823    0.036892    0.647400    0.000000
     4  Ge    c     0.145778    0.341732    0.271273    0.000000
     5  Ge    c     0.841540    0.684476    0.700500    0.000000
     6  Ge    c     0.164379    0.757787    0.287252    0.000000
     7  Ge    c     0.646845    0.371312    0.039054    0.000000
     8  Ge    c     0.148837    0.360235    0.952960    0.000000
     9  Ge    c     0.831342    0.324381    0.038924    0.000000
    10  Si    c     0.042989    0.045354    0.356666    0.000000
    11  Si    c     0.557959    0.059870    0.140825    0.000000
    12  Si    c     0.945677    0.022453    0.100318    0.000000
    13  Si    c     0.441733    0.016621    0.910650    0.000000
    14  Si    c     0.053270    0.055315    0.854506    0.000000
    15  Si    c     0.344144    0.696326    0.286517    0.000000
    16  Si    c     0.822990    0.282028    0.727605    0.000000
    17  Si    c     0.660907    0.737624    0.704244    0.000000
    18  Si    c     0.645160    0.342584    0.726224    0.000000
    19  Si    c     0.324061    0.301662    0.267416    0.000000
    20  Si    c     0.844922    0.722767    0.009728    0.000000
    21  Si    c     0.326294    0.325424    0.956093    0.000000
    22  Si    c     0.163476    0.766543    0.975440    0.000000
    23  Si    c     0.340368    0.713004    0.977161    0.000000
    24  Si    c     0.665470    0.769085    0.011058    0.000000
    25  O3    c     0.079249    0.232820    0.360557    0.000000
    26  O3    c     0.410497    0.795339    0.361403    0.000000
    27  O3    c     0.863570    0.128585    0.644877    0.000000
    28  O3    c     0.608123    0.865770    0.617814    0.000000
    29  O1    c     0.907078    0.786146    0.607716    0.000000
    30  O3    c     0.588167    0.231037    0.639752    0.000000
    31  O3    c     0.111738    0.903226    0.384477    0.000000
    32  O3    c     0.378761    0.150550    0.321738    0.000000
    33  O3    c     0.972688    0.038004    0.454714    0.000000
    34  O1    c     0.469515    0.036523    0.534402    0.000000
    35  O2    c     0.011445    0.997551    0.209921    0.000000
    36  O3    c     0.533861    0.016203    0.287738    0.000000
    37  O3    c     0.020537    0.013819    0.711640    0.000000
    38  O3    c     0.506616    0.008831    0.803485    0.000000
    39  O3    c     0.584088    0.256611    0.132965    0.000000
    40  O2    c     0.895266    0.850929    0.097964    0.000000
    41  O2    c     0.382961    0.182002    0.887537    0.000000
    42  O2    c     0.121435    0.913645    0.887424    0.000000
    43  O2    c     0.395458    0.839191    0.901008    0.000000
    44  O3    c     0.087016    0.246116    0.853433    0.000000
    45  O2    c     0.628938    0.933957    0.090552    0.000000
    46  O3    c     0.890466    0.189310    0.132643    0.000000
    47  O2    c     0.480174    0.033078    0.055079    0.000000
    48  O2    c     0.983509    0.048989    0.958033    0.000000
    49  O1    c     0.126314    0.558263    0.297362    0.000000
    50  O2    c     0.358959    0.488872    0.303036    0.000000
    51  O3    c     0.862512    0.463745    0.700618    0.000000
    52  O2    c     0.625654    0.546501    0.703203    0.000000
    53  O3    c     0.239111    0.290633    0.326180    0.000000
    54  O3    c     0.259662    0.749701    0.340487    0.000000
    55  O2    c     0.733482    0.300930    0.682948    0.000000
    56  O3    c     0.747341    0.726806    0.649487    0.000000
    57  O1    c     0.136418    0.286268    0.108431    0.000000
    58  O2    c     0.346712    0.748310    0.132813    0.000000
    59  O3    c     0.826953    0.239514    0.881110    0.000000
    60  O2    c     0.661727    0.808802    0.855595    0.000000
    61  O3    c     0.853471    0.768656    0.858138    0.000000
    62  O3    c     0.636552    0.297697    0.879099    0.000000
    63  O3    c     0.161821    0.826428    0.126006    0.000000
    64  O2    c     0.312170    0.287229    0.109676    0.000000
    65  O3    c     0.623543    0.593642    0.044941    0.000000
    66  O3    c     0.872217    0.525640    0.036648    0.000000
    67  O2    c     0.365270    0.512814    0.941306    0.000000
    68  O3    c     0.125224    0.581693    0.954123    0.000000
    69  O1    c     0.739151    0.337745    0.097152    0.000000
    70  O2    c     0.755003    0.742310    0.052987    0.000000
    71  O3    c     0.242034    0.327978    0.892507    0.000000
    72  O2    c     0.252632    0.747529    0.928795    0.000000
    73  O3    s     0.081031    0.222973    0.352975    0.000000
    74  O3    s     0.406700    0.801563    0.354571    0.000000
    75  O3    s     0.865805    0.133307    0.650745    0.000000
    76  O3    s     0.608336    0.865976    0.628917    0.000000
    77  O1    s     0.904587    0.793712    0.615143    0.000000
    78  O3    s     0.590301    0.226908    0.649254    0.000000
    79  O3    s     0.109474    0.904875    0.374014    0.000000
    80  O3    s     0.378699    0.154234    0.320087    0.000000
    81  O3    s     0.977538    0.034896    0.457372    0.000000
    82  O1    s     0.473723    0.033712    0.530932    0.000000
    83  O2    s     0.007337    0.005039    0.212455    0.000000
    84  O3    s     0.529553    0.019242    0.279779    0.000000
    85  O3    s     0.017335    0.016227    0.717983    0.000000
    86  O3    s     0.502350    0.012036    0.802354    0.000000
    87  O3    s     0.586520    0.246558    0.126267    0.000000
    88  O2    s     0.895133    0.855137    0.088534    0.000000
    89  O2    s     0.382894    0.180409    0.897451    0.000000
    90  O2    s     0.118775    0.912591    0.893677    0.000000
    91  O2    s     0.394254    0.844039    0.910514    0.000000
    92  O3    s     0.088674    0.236806    0.861505    0.000000
    93  O2    s     0.625442    0.929330    0.087156    0.000000
    94  O3    s     0.891076    0.184008    0.121945    0.000000
    95  O2    s     0.484098    0.034106    0.048834    0.000000
    96  O2    s     0.986885    0.046867    0.962141    0.000000
    97  O1    s     0.130890    0.557079    0.294518    0.000000
    98  O2    s     0.353867    0.491149    0.297638    0.000000
    99  O3    s     0.857059    0.464210    0.703156    0.000000
   100  O2    s     0.631412    0.544908    0.705754    0.000000
   101  O3    s     0.240297    0.295590    0.316194    0.000000
   102  O3    s     0.260425    0.745181    0.331086    0.000000
   103  O2    s     0.733581    0.303368    0.692148    0.000000
   104  O3    s     0.746331    0.724498    0.658905    0.000000
   105  O1    s     0.138097    0.296262    0.108773    0.000000
   106  O2    s     0.345756    0.739131    0.131846    0.000000
   107  O3    s     0.826923    0.250510    0.878615    0.000000
   108  O2    s     0.662036    0.797500    0.856603    0.000000
   109  O3    s     0.851709    0.757564    0.860956    0.000000
   110  O3    s     0.638195    0.307929    0.877147    0.000000
   111  O3    s     0.162206    0.814912    0.123673    0.000000
   112  O2    s     0.314842    0.292892    0.109921    0.000000
   113  O3    s     0.629363    0.593801    0.041266    0.000000
   114  O3    s     0.866281    0.529247    0.034176    0.000000
   115  O2    s     0.358774    0.514515    0.946521    0.000000
   116  O3    s     0.130734    0.582383    0.956051    0.000000
   117  O1    s     0.739281    0.339261    0.088229    0.000000
   118  O2    s     0.754734    0.743036    0.044061    0.000000
   119  O3    s     0.243333    0.330208    0.903539    0.000000
   120  O2    s     0.252824    0.745683    0.938849    0.000000
--------------------------------------------------------------------------------

  Final Cartesian lattice vectors (Angstroms) :

       17.324455    0.354405   -0.054734
        0.155478    7.694375   -0.051119
       -0.034423   -0.073300   10.159837


  Final cell parameters and derivatives :

--------------------------------------------------------------------------------
       a           17.328167 Angstrom     dE/de1(xx)     0.000488 eV/strain
       b            7.696115 Angstrom     dE/de2(yy)    -0.000337 eV/strain
       c           10.160160 Angstrom     dE/de3(zz)     0.000403 eV/strain
       alpha       90.797765 Degrees      dE/de4(yz)     0.000020 eV/strain
       beta        90.383511 Degrees      dE/de5(xz)     0.000158 eV/strain
       gamma       87.669324 Degrees      dE/de6(xy)     0.000398 eV/strain
--------------------------------------------------------------------------------

  Primitive cell volume =          1353.677031 Angs**3

  Density of cell =      2.260625 g/cm**3

  Non-primitive cell volume =          1353.677031 Angs**3


  Final internal derivatives :

--------------------------------------------------------------------------------
   No.  Atomic          a             b             c           Radius
        Label          (eV)          (eV)          (eV)        (eV/Angs)
--------------------------------------------------------------------------------
      1 Ge    c       0.000000      0.000000      0.000000      0.000000
      2 Ge    c      -0.000856      0.000026      0.000227      0.000000
      3 Ge    c      -0.000490     -0.000106     -0.000154      0.000000
      4 Ge    c      -0.000030     -0.000013      0.000046      0.000000
      5 Ge    c      -0.000477      0.000315      0.000362      0.000000
      6 Ge    c       0.000079      0.000047      0.000047      0.000000
      7 Ge    c      -0.001691      0.000603     -0.001126      0.000000
      8 Ge    c       0.000134      0.000020      0.000019      0.000000
      9 Ge    c      -0.000652      0.000633      0.002545      0.000000
     10 Si    c      -0.000090      0.000063     -0.000076      0.000000
     11 Si    c       0.000357     -0.000317      0.000260      0.000000
     12 Si    c      -0.000759      0.000325      0.000124      0.000000
     13 Si    c      -0.000277      0.000050      0.000020      0.000000
     14 Si    c       0.000305     -0.000191      0.000028      0.000000
     15 Si    c      -0.000127      0.000002      0.000029      0.000000
     16 Si    c       0.001421     -0.000291     -0.002849      0.000000
     17 Si    c      -0.000094     -0.000198      0.000413      0.000000
     18 Si    c       0.001409      0.000682      0.001120      0.000000
     19 Si    c      -0.000213      0.000068      0.000002      0.000000
     20 Si    c      -0.000783     -0.000600     -0.000213      0.000000
     21 Si    c       0.000116     -0.000005     -0.000068      0.000000
     22 Si    c       0.000021     -0.000002     -0.000050      0.000000
     23 Si    c       0.000027     -0.000025     -0.000006      0.000000
     24 Si    c      -0.000139      0.000137      0.000011      0.000000
     25 O3    c      -0.000079      0.000024      0.000014      0.000000
     26 O3    c       0.000218      0.000049      0.000035      0.000000
     27 O3    c      -0.001075      0.000339      0.000293      0.000000
     28 O3    c       0.000193     -0.000081     -0.000589      0.000000
     29 O1    c      -0.000411     -0.000104      0.000194      0.000000
     30 O3    c      -0.000367      0.000034     -0.000489      0.000000
     31 O3    c       0.000092     -0.000046      0.000008      0.000000
     32 O3    c       0.000107     -0.000074      0.000042      0.000000
     33 O3    c      -0.000036      0.000095     -0.000327      0.000000
     34 O1    c      -0.000300     -0.000008     -0.000238      0.000000
     35 O2    c       0.000037      0.000012      0.000057      0.000000
     36 O3    c       0.000531      0.000028     -0.000216      0.000000
     37 O3    c      -0.000274     -0.000068     -0.000255      0.000000
     38 O3    c      -0.000217     -0.000121      0.000451      0.000000
     39 O3    c      -0.000104      0.000239      0.000290      0.000000
     40 O2    c      -0.000063     -0.000072     -0.000025      0.000000
     41 O2    c       0.000007      0.000017     -0.000002      0.000000
     42 O2    c       0.000065     -0.000040     -0.000018      0.000000
     43 O2    c       0.000007      0.000003      0.000002      0.000000
     44 O3    c       0.000146     -0.000052     -0.000031      0.000000
     45 O2    c       0.000456     -0.000141     -0.000105      0.000000
     46 O3    c      -0.000110     -0.000117     -0.000278      0.000000
     47 O2    c      -0.000586     -0.000042     -0.000227      0.000000
     48 O2    c      -0.000181      0.000053     -0.000168      0.000000
     49 O1    c      -0.000160     -0.000090     -0.000007      0.000000
     50 O2    c       0.000030      0.000002      0.000007      0.000000
     51 O3    c       0.001540      0.001213      0.000219      0.000000
     52 O2    c       0.000587     -0.001351      0.000340      0.000000
     53 O3    c       0.000041      0.000002     -0.000013      0.000000
     54 O3    c       0.000013     -0.000003     -0.000010      0.000000
     55 O2    c      -0.009724      0.000226     -0.000144      0.000000
     56 O3    c       0.002858     -0.000071      0.000023      0.000000
     57 O1    c       0.000005     -0.000010      0.000054      0.000000
     58 O2    c       0.000038      0.000015     -0.000072      0.000000
     59 O3    c       0.002956     -0.001880      0.001084      0.000000
     60 O2    c      -0.000015     -0.000185     -0.000151      0.000000
     61 O3    c      -0.000333     -0.000229      0.000486      0.000000
     62 O3    c       0.001255      0.000668     -0.000660      0.000000
     63 O3    c      -0.000031      0.000004      0.000119      0.000000
     64 O2    c      -0.000093     -0.000026      0.000012      0.000000
     65 O3    c       0.000380     -0.001104     -0.000085      0.000000
     66 O3    c      -0.001183      0.001519     -0.001351      0.000000
     67 O2    c       0.000056      0.000007     -0.000020      0.000000
     68 O3    c      -0.000114     -0.000005     -0.000027      0.000000
     69 O1    c       0.003752     -0.000245      0.000521      0.000000
     70 O2    c       0.002747     -0.000139     -0.000320      0.000000
     71 O3    c      -0.000003     -0.000007     -0.000020      0.000000
     72 O2    c       0.000008      0.000006      0.000006      0.000000
     73 O3    s       0.000182     -0.000015     -0.000016      0.000000
     74 O3    s      -0.000147     -0.000049      0.000051      0.000000
     75 O3    s       0.002734     -0.000575     -0.000637      0.000000
     76 O3    s      -0.000296      0.000021      0.000305      0.000000
     77 O1    s       0.000175     -0.000132     -0.000150      0.000000
     78 O3    s       0.001312      0.000523      0.000495      0.000000
     79 O3    s       0.000012      0.000011     -0.000011      0.000000
     80 O3    s      -0.000084      0.000020      0.000005      0.000000
     81 O3    s       0.000286     -0.000079      0.000127      0.000000
     82 O1    s      -0.000106      0.000029      0.000172      0.000000
     83 O2    s       0.000136     -0.000054     -0.000049      0.000000
     84 O3    s      -0.000309     -0.000036      0.000173      0.000000
     85 O3    s       0.000105      0.000159      0.000279      0.000000
     86 O3    s      -0.000049      0.000074     -0.000049      0.000000
     87 O3    s      -0.000068      0.000154     -0.000112      0.000000
     88 O2    s      -0.000204     -0.000477      0.000020      0.000000
     89 O2    s      -0.000007     -0.000060     -0.000017      0.000000
     90 O2    s       0.000037      0.000039      0.000005      0.000000
     91 O2    s       0.000073      0.000041     -0.000003      0.000000
     92 O3    s      -0.000482      0.000052      0.000011      0.000000
     93 O2    s      -0.000194     -0.000090     -0.000125      0.000000
     94 O3    s       0.000610      0.000052      0.000150      0.000000
     95 O2    s      -0.000138     -0.000011     -0.000020      0.000000
     96 O2    s       0.000466      0.000123      0.000012      0.000000
     97 O1    s       0.000185      0.000061     -0.000038      0.000000
     98 O2    s      -0.000059      0.000021     -0.000023      0.000000
     99 O3    s       0.000946      0.000759     -0.001372      0.000000
    100 O2    s       0.000868     -0.000620      0.000855      0.000000
    101 O3    s      -0.000122      0.000027      0.000024      0.000000
    102 O3    s      -0.000071     -0.000022     -0.000014      0.000000
    103 O2    s      -0.002723      0.000285     -0.000151      0.000000
    104 O3    s      -0.001482     -0.000197      0.000389      0.000000
    105 O1    s      -0.000015      0.000004     -0.000051      0.000000
    106 O2    s      -0.000036     -0.000025     -0.000005      0.000000
    107 O3    s       0.001044      0.000050      0.001046      0.000000
    108 O2    s       0.000020     -0.000146      0.000089      0.000000
    109 O3    s      -0.001197     -0.000217      0.000464      0.000000
    110 O3    s       0.001908      0.000278     -0.000622      0.000000
    111 O3    s       0.000007      0.000013     -0.000015      0.000000
    112 O2    s       0.000124      0.000019     -0.000015      0.000000
    113 O3    s      -0.000103      0.000386     -0.000214      0.000000
    114 O3    s       0.000141      0.000327      0.000408      0.000000
    115 O2    s      -0.000124      0.000012      0.000020      0.000000
    116 O3    s       0.000112     -0.000024      0.000005      0.000000
    117 O1    s      -0.003528      0.000231     -0.000127      0.000000
    118 O2    s       0.000260     -0.000326     -0.000415      0.000000
    119 O3    s      -0.000065      0.000008     -0.000015      0.000000
    120 O2    s      -0.000001      0.000000     -0.000013      0.000000
--------------------------------------------------------------------------------
  Maximum abs         0.009724      0.001880      0.002849      0.000000
--------------------------------------------------------------------------------


  Born effective charge tensors : 

-------------------------------------------------------------------------------
  Atom             x           y             z
-------------------------------------------------------------------------------
    1 Ge    x       4.0594      0.2893      0.5230
            y      -0.0661      3.8952     -0.1149
            z       0.1857      0.1515      4.7211
-------------------------------------------------------------------------------
    2 Ge    x       4.1686      0.3837     -0.3854
            y      -0.0446      3.9098      0.0531
            z      -0.2735     -0.1956      4.5020
-------------------------------------------------------------------------------
    3 Ge    x       4.1533      0.1518     -0.0375
            y      -0.0510      3.9101      0.0330
            z       0.8937     -0.0457      4.4937
-------------------------------------------------------------------------------
    4 Ge    x       3.9444      0.2487     -0.0644
            y       0.3428      4.2106     -0.1464
            z      -0.2304      0.0516      3.4964
-------------------------------------------------------------------------------
    5 Ge    x       3.9777      0.3345     -0.1423
            y       0.3728      4.1495     -0.3307
            z      -0.2632     -0.0481      3.4790
-------------------------------------------------------------------------------
    6 Ge    x       3.9653     -0.3585     -0.1279
            y      -0.1289      4.1676      0.2007
            z      -0.2033     -0.0301      3.4037
-------------------------------------------------------------------------------
    7 Ge    x       4.0056      0.3305     -0.0680
            y       0.3139      4.2425     -0.3670
            z      -0.1224     -0.0638      3.3441
-------------------------------------------------------------------------------
    8 Ge    x       3.9907      0.3648      0.0701
            y       0.3419      4.2192      0.2632
            z       0.1924     -0.0275      3.3383
-------------------------------------------------------------------------------
    9 Ge    x       4.1013     -0.4399      0.1088
            y      -0.1732      4.1387     -0.3011
            z       0.1620      0.0042      3.2730
-------------------------------------------------------------------------------
   10 Si    x       3.9099      0.2040     -0.0652
            y      -0.0971      3.6284     -0.0952
            z      -0.9424     -0.0341      3.8799
-------------------------------------------------------------------------------
   11 Si    x       3.6155      0.4230     -0.5168
            y      -0.0199      3.5820     -0.0243
            z      -0.4302     -0.2693      3.5244
-------------------------------------------------------------------------------
   12 Si    x       3.6093     -0.1088     -0.0671
            y      -0.1539      3.4439      0.1046
            z       0.5395     -0.0592      2.9966
-------------------------------------------------------------------------------
   13 Si    x       3.7527      0.0617     -0.1928
            y      -0.0425      3.3206     -0.0155
            z      -0.7728     -0.0010      3.1241
-------------------------------------------------------------------------------
   14 Si    x       3.6787      0.3792      0.4002
            y       0.0586      3.5524      0.0010
            z       0.4581      0.2313      3.5602
-------------------------------------------------------------------------------
   15 Si    x       3.7127      0.2553      0.0590
            y       0.3976      3.5868      0.2907
            z       0.2128      0.1402      3.0190
-------------------------------------------------------------------------------
   16 Si    x       3.3740     -0.4486     -0.1399
            y      -0.0808      3.9709      0.1744
            z      -0.2155      0.1159      3.2915
-------------------------------------------------------------------------------
   17 Si    x       3.6565     -0.4945      0.0688
            y      -0.3012      3.5990     -0.3364
            z       0.1452     -0.1311      3.0232
-------------------------------------------------------------------------------
   18 Si    x       3.3939      0.4089      0.1484
            y       0.3914      3.5861      0.2573
            z       0.2168      0.0694      3.2451
-------------------------------------------------------------------------------
   19 Si    x       3.6520     -0.4629     -0.0495
            y      -0.2925      3.7379     -0.2141
            z       0.1555     -0.2325      2.9457
-------------------------------------------------------------------------------
   20 Si    x       3.4040      0.2656      0.1524
            y       0.0965      3.7928      0.0459
            z       0.1700     -0.1189      3.0458
-------------------------------------------------------------------------------
   21 Si    x       3.5309     -0.3486      0.0839
            y      -0.1214      3.4653      0.1665
            z      -0.0678      0.0647      2.7326
-------------------------------------------------------------------------------
   22 Si    x       3.3715     -0.3014      0.1239
            y       0.0206      3.7837     -0.0152
            z       0.2120      0.0867      3.0599
-------------------------------------------------------------------------------
   23 Si    x       3.1852      0.3062     -0.0776
            y       0.2128      3.3966     -0.1563
            z      -0.1319     -0.0461      2.6662
-------------------------------------------------------------------------------
   24 Si    x       3.2968     -0.3045     -0.1373
            y       0.1115      3.6861      0.0883
            z      -0.1771      0.0306      2.7969
-------------------------------------------------------------------------------
   25 O3    x      -1.9275     -0.8925      0.2910
            y      -0.8664     -2.4246      0.3328
            z       0.4279      0.2997     -1.4873
-------------------------------------------------------------------------------
   26 O3    x      -2.0289     -0.9182     -0.4804
            y      -0.9051     -2.3682     -0.4072
            z      -0.5193     -0.4450     -1.5378
-------------------------------------------------------------------------------
   27 O3    x      -2.0590      0.8843      0.5176
            y       0.8865     -2.2886     -0.5876
            z       0.5175     -0.5514     -1.6074
-------------------------------------------------------------------------------
   28 O3    x      -2.0070      0.9243     -0.3191
            y       0.9339     -2.2911      0.3765
            z      -0.4544      0.3891     -1.5996
-------------------------------------------------------------------------------
   29 O1    x      -2.0703     -0.9446      0.4918
            y      -0.8836     -2.5920      0.4181
            z       0.5310      0.4254     -1.6948
-------------------------------------------------------------------------------
   30 O3    x      -1.9949     -0.9618     -0.3820
            y      -0.9110     -2.3778     -0.4228
            z      -0.4911     -0.4047     -1.5365
-------------------------------------------------------------------------------
   31 O3    x      -2.1452      0.8871      0.1814
            y       0.9364     -2.1537     -0.2350
            z       0.3220     -0.2315     -1.5537
-------------------------------------------------------------------------------
   32 O3    x      -2.0899      0.9802     -0.4712
            y       1.0338     -2.4477      0.5425
            z      -0.4786      0.5128     -1.4948
-------------------------------------------------------------------------------
   33 O3    x      -2.0257     -0.1958      0.9722
            y      -0.0627     -1.1995      0.1495
            z       1.2709      0.3009     -3.0837
-------------------------------------------------------------------------------
   34 O1    x      -2.0225     -0.1368     -1.0588
            y      -0.0301     -1.3073     -0.1217
            z      -1.2341     -0.2396     -3.5475
-------------------------------------------------------------------------------
   35 O2    x      -1.6863     -0.0370     -0.6250
            y       0.0171     -1.1720     -0.0718
            z      -0.5870     -0.0916     -2.1235
-------------------------------------------------------------------------------
   36 O3    x      -1.9947     -0.2195      0.7539
            y      -0.0724     -1.2454      0.2006
            z       0.7910      0.2991     -2.6746
-------------------------------------------------------------------------------
   37 O3    x      -2.0058     -0.2161     -0.8655
            y      -0.0782     -1.2295     -0.1780
            z      -0.9175     -0.2881     -2.7608
-------------------------------------------------------------------------------
   38 O3    x      -2.1373     -0.0604      1.0655
            y       0.0088     -1.2720      0.0652
            z       0.9731      0.0999     -2.6002
-------------------------------------------------------------------------------
   39 O3    x      -1.8400     -0.8600      0.4223
            y      -0.7352     -2.6386      0.4277
            z       0.3870      0.3884     -1.4142
-------------------------------------------------------------------------------
   40 O2    x      -1.7433     -0.7167     -0.2729
            y      -0.6668     -1.9389     -0.3007
            z      -0.3492     -0.2703     -1.2127
-------------------------------------------------------------------------------
   41 O2    x      -1.7114      0.7205      0.1399
            y       0.6890     -2.0030     -0.1674
            z       0.2535     -0.1925     -1.1509
-------------------------------------------------------------------------------
   42 O2    x      -1.7601      0.6487     -0.3700
            y       0.6249     -1.8773      0.3869
            z      -0.3758      0.3503     -1.2993
-------------------------------------------------------------------------------
   43 O2    x      -1.6922     -0.7453      0.2195
            y      -0.6647     -2.0353      0.2456
            z       0.3141      0.2581     -1.1616
-------------------------------------------------------------------------------
   44 O3    x      -1.9317     -0.9078     -0.3769
            y      -0.8033     -2.5487     -0.3504
            z      -0.3771     -0.3255     -1.3945
-------------------------------------------------------------------------------
   45 O2    x      -1.7381      0.6226      0.4201
            y       0.6076     -1.8970     -0.4527
            z       0.3785     -0.3738     -1.3103
-------------------------------------------------------------------------------
   46 O3    x      -2.0598      0.9516     -0.2090
            y       0.9320     -2.3743      0.2113
            z      -0.3188      0.2142     -1.3816
-------------------------------------------------------------------------------
   47 O2    x      -1.8854     -0.1105     -0.5096
            y      -0.0311     -1.1692     -0.0801
            z      -0.3233     -0.0591     -1.6591
-------------------------------------------------------------------------------
   48 O2    x      -1.8079     -0.0813      0.5841
            y      -0.0189     -1.1804      0.0912
            z       0.3368      0.0994     -1.7657
-------------------------------------------------------------------------------
   49 O1    x      -1.4570     -0.1346      0.0638
            y      -0.2326     -3.3433     -0.0806
            z       0.1119     -0.0244     -1.2410
-------------------------------------------------------------------------------
   50 O2    x      -1.1898     -0.0863     -0.0532
            y      -0.1625     -2.4535     -0.0681
            z      -0.0923     -0.0354     -1.1166
-------------------------------------------------------------------------------
   51 O3    x      -1.4197     -0.1919      0.0664
            y      -0.2719     -3.0207      0.1771
            z       0.1040      0.1146     -1.1906
-------------------------------------------------------------------------------
   52 O2    x      -1.2149     -0.0588     -0.0337
            y      -0.1086     -2.4335      0.0701
            z      -0.0690      0.0448     -1.0823
-------------------------------------------------------------------------------
   53 O3    x      -2.8949      0.0632      0.1643
            y      -0.0365     -1.3572      0.0871
            z       0.1945      0.0577     -1.2984
-------------------------------------------------------------------------------
   54 O3    x      -2.8884      0.2650      0.1059
            y       0.2393     -1.3831     -0.1007
            z       0.1281     -0.0604     -1.3013
-------------------------------------------------------------------------------
   55 O2    x      -2.3141      0.1818     -0.0108
            y       0.1230     -1.2844     -0.0509
            z       0.0069     -0.0314     -1.1087
-------------------------------------------------------------------------------
   56 O3    x      -2.9098      0.1637      0.1324
            y       0.0939     -1.3517      0.0696
            z       0.1368      0.0123     -1.2939
-------------------------------------------------------------------------------
   57 O1    x      -1.4250     -0.1709     -0.0031
            y      -0.1561     -1.5467      0.0950
            z       0.0137      0.0746     -2.6940
-------------------------------------------------------------------------------
   58 O2    x      -1.1771     -0.1080     -0.0029
            y      -0.0964     -1.2908      0.0503
            z      -0.0092      0.0739     -2.0576
-------------------------------------------------------------------------------
   59 O3    x      -1.3294      0.1305     -0.1624
            y       0.0564     -1.4520      0.0039
            z      -0.1184     -0.0455     -2.5598
-------------------------------------------------------------------------------
   60 O2    x      -1.2056      0.1291     -0.0340
            y       0.0482     -1.3120     -0.0974
            z      -0.0300     -0.1057     -2.0500
-------------------------------------------------------------------------------
   61 O3    x      -1.3402     -0.1600     -0.0392
            y      -0.1246     -1.4456     -0.0399
            z      -0.0208     -0.0611     -2.5595
-------------------------------------------------------------------------------
   62 O3    x      -1.3069     -0.1454      0.1230
            y      -0.1200     -1.4670      0.0456
            z       0.0558     -0.0025     -2.5874
-------------------------------------------------------------------------------
   63 O3    x      -1.3379      0.1517      0.0268
            y       0.0838     -1.4183     -0.0697
            z      -0.0044     -0.0312     -2.5716
-------------------------------------------------------------------------------
   64 O2    x      -1.2182      0.0916      0.0443
            y       0.0336     -1.2948      0.0470
            z       0.0475      0.0432     -2.0369
-------------------------------------------------------------------------------
   65 O3    x      -1.4673     -0.2519      0.1287
            y      -0.3091     -3.0604      0.2115
            z       0.1511      0.1507     -1.1599
-------------------------------------------------------------------------------
   66 O3    x      -1.4324      0.0532     -0.0840
            y      -0.0500     -3.1200      0.1959
            z      -0.1111      0.1475     -1.1198
-------------------------------------------------------------------------------
   67 O2    x      -1.2340     -0.0403      0.0592
            y      -0.0995     -2.4714     -0.0765
            z       0.0970     -0.0595     -1.0246
-------------------------------------------------------------------------------
   68 O3    x      -1.4725     -0.1974     -0.0751
            y      -0.2540     -3.1339     -0.1385
            z      -0.1217     -0.0911     -1.1009
-------------------------------------------------------------------------------
   69 O1    x      -3.1503      0.1617      0.0120
            y       0.1038     -1.4442      0.1021
            z       0.0251      0.0237     -1.3410
-------------------------------------------------------------------------------
   70 O2    x      -2.4467      0.1330     -0.0305
            y       0.0638     -1.2521     -0.0373
            z      -0.0245     -0.0021     -1.0721
-------------------------------------------------------------------------------
   71 O3    x      -2.9297      0.0999     -0.1493
            y       0.0213     -1.3499     -0.0794
            z      -0.2166     -0.0218     -1.2770
-------------------------------------------------------------------------------
   72 O2    x      -2.3832      0.1663     -0.0338
            y       0.1268     -1.2576      0.0497
            z      -0.0451      0.0216     -1.0659
-------------------------------------------------------------------------------




  Elastic Constant Matrix: (Units=GPa)

-------------------------------------------------------------------------------
  Indices      1         2         3         4         5         6    
-------------------------------------------------------------------------------
       1     39.9560   21.0002   10.2075   -1.3287   -0.4504   17.4869
       2     21.0002   61.2135    8.4164   -1.9442    0.4111   21.2250
       3     10.2075    8.4164   19.9910   -0.5891   -0.8557    7.9098
       4     -1.3287   -1.9442   -0.5891    8.7418    3.4553   -1.5163
       5     -0.4504    0.4111   -0.8557    3.4553   11.0336    0.0960
       6     17.4869   21.2250    7.9098   -1.5163    0.0960   23.9095
-------------------------------------------------------------------------------


  Elastic Compliance Matrix: (Units=1/GPa)

-------------------------------------------------------------------------------
  Indices      1         2         3         4         5         6    
-------------------------------------------------------------------------------
       1    0.039356 -0.004780 -0.009572  0.000092  0.001199 -0.021373
       2   -0.004780  0.024290 -0.000809  0.002235 -0.001709 -0.017651
       3   -0.009572 -0.000809  0.060302 -0.001669  0.004946 -0.012356
       4    0.000092  0.002235 -0.001669  0.132530 -0.041774  0.007073
       5    0.001199 -0.001709  0.004946 -0.041774  0.104246 -0.004064
       6   -0.021373 -0.017651 -0.012356  0.007073 -0.004064  0.077678
-------------------------------------------------------------------------------

  Mechanical properties :

-------------------------------------------------------------------------------
  Convention :                    Reuss         Voigt         Hill
-------------------------------------------------------------------------------
  Bulk  Modulus (GPa)     =      10.68085      22.26764      16.47424
  Shear Modulus (GPa)     =      10.00135      14.17274      12.08705
-------------------------------------------------------------------------------
  Velocity S-wave (km/s)  =       2.10337       2.50388       2.31231
  Velocity P-wave (km/s)  =       3.25939       4.26725       3.79691
-------------------------------------------------------------------------------
  Compressibility (1/GPa) =    0.09362551
-------------------------------------------------------------------------------
  Stress axis :                     x             y             z
-------------------------------------------------------------------------------
  Youngs Moduli (GPa)     =      25.40925      41.16942      16.58317
-------------------------------------------------------------------------------
  Poissons Ratio (x)      =                     0.19678       0.15874
  Poissons Ratio (y)      =       0.12145                     0.01342
  Poissons Ratio (z)      =       0.24322       0.03332
-------------------------------------------------------------------------------


  Piezoelectric Strain Matrix: (Units=C/m**2)

-------------------------------------------------------------------------------
  Indices      1         2         3         4         5         6    
-------------------------------------------------------------------------------
       x     0.16266  -0.24903  -0.08066   0.01313  -0.49439   0.55815
       y    -1.31683  -0.57521  -0.17083  -0.27977  -0.13454  -0.08722
       z    -0.05399   0.31542  -0.23861   0.37855  -0.70421   0.11207
-------------------------------------------------------------------------------


  Piezoelectric Stress Matrix: (Units=10**-11 C/N)

-------------------------------------------------------------------------------
  Indices      1         2         3         4         5         6    
-------------------------------------------------------------------------------
       x    -0.41572  -1.57384  -1.55832   2.59340  -5.41332   4.73733
       y    -4.57631  -0.63954   0.36479  -3.31966  -0.34251   3.22013
       z    -0.45533   0.81843  -1.96268   8.14774  -9.14642   1.27794
-------------------------------------------------------------------------------


  Static dielectric constant tensor : 

-------------------------------------------------------------------------------
              x         y         z
-------------------------------------------------------------------------------
       x     4.94829   0.17846   0.08676
       y     0.17846   5.04031  -0.09258
       z     0.08676  -0.09258   3.97325
--------------------------------------------------------------------------------

  High frequency dielectric constant tensor : 

-------------------------------------------------------------------------------
              x         y         z
-------------------------------------------------------------------------------
       x     1.63435   0.00294  -0.00078
       y     0.00294   1.64165  -0.00085
       z    -0.00078  -0.00085   1.57727
-------------------------------------------------------------------------------

  Static refractive indices : 

-------------------------------------------------------------------------------
    1 =    1.98861      2 =    2.19735      3 =    2.27573
-------------------------------------------------------------------------------

  High frequency refractive indices : 

-------------------------------------------------------------------------------
    1 =    1.25589      2 =    1.27801      3 =    1.28168
-------------------------------------------------------------------------------


  Time to end of optimisation =      12.0467 seconds


  Peak dynamic memory used =       5.01 MB 


  Timing analysis for GULP :

--------------------------------------------------------------------------------
  Task / Subroutine                                          Time (Seconds)
--------------------------------------------------------------------------------
  Calculation of reciprocal space energy and derivatives          0.7092
  Calculation of real space energy and derivatives                8.1000
  Calculation of three-body energy and derivatives                0.3263
  Calculation and manipulation of Hessian matrix                  3.4818
  Calculation of matrix inversion                                 0.0302
  Global summation overhead                                       0.0002
--------------------------------------------------------------------------------
  Total CPU time                                                 12.0467
--------------------------------------------------------------------------------


  Dump file written as POSCAR_N0009.vasp.grs
  CIF file written as POSCAR_N0009.vasp.cif


  Job Finished at 07:46.57 31st October    2025                               

