********************************************************************************
*                       GENERAL UTILITY LATTICE PROGRAM                        *
*                                 Julian Gale                                  *
*                       Curtin Institute for Computation                       *
*                    School of Molecular and Life Sciences                     *
*                    Curtin University, Western Australia                      *
********************************************************************************
* Version = 6.1.2 * Last modified =   3rd November 2022                        *
********************************************************************************
*  optimise     - perform optimisation run                                     *
*  conp         - constant pressure calculation                                *
*  property     - calculate properties for final geometry                      *
********************************************************************************

  Job Started  at 07:45.35 31st October    2025                               

  Number of CPUs =     1


  Total number of configurations input =      1

********************************************************************************
*  Input for Configuration =   1 : POSCAR_N0003.vasp                           *
********************************************************************************

  Formula = Ge3Si21O48                                                  

  Number of irreducible atoms/shells =     120


  Total number atoms/shells =     120

  Dimensionality = 3               :  Bulk   



  Cartesian lattice vectors (Angstroms) :

       17.182800    0.000000    0.000000
        0.000000    7.513760    0.000000
        0.000000    0.000000   10.447700

  Cell parameters (Angstroms/Degrees):

  a =      17.1828    alpha =  90.0000
  b =       7.5138    beta  =  90.0000
  c =      10.4477    gamma =  90.0000

  Initial cell volume =        1348.875752 Angs**3

  Temperature of configuration =   0.00     K 

  Pressure of configuration =         0.000 GPa 

  Fractional coordinates of asymmetric unit :

--------------------------------------------------------------------------------
   No.  Atomic       x           y          z         Charge      Occupancy
        Label      (Frac)      (Frac)     (Frac)        (e)         (Frac)  
--------------------------------------------------------------------------------
      1 Ge    c    0.052090    0.000000    0.372270     4.00000    1.000000    
      2 Ge    c    0.552090 *  0.000000 *  0.627730 *   4.00000    1.000000    
      3 Ge    c    0.339810 *  0.706090 *  0.273440 *   4.00000    1.000000    
      4 Si    c    0.447910 *  0.000000 *  0.372270 *   4.00000    1.000000    
      5 Si    c    0.947910 *  0.000000 *  0.627730 *   4.00000    1.000000    
      6 Si    c    0.556730 *  0.000000 *  0.122130 *   4.00000    1.000000    
      7 Si    c    0.943270 *  0.000000 *  0.122130 *   4.00000    1.000000    
      8 Si    c    0.443270 *  0.000000 *  0.877870 *   4.00000    1.000000    
      9 Si    c    0.056730 *  0.000000 *  0.877870 *   4.00000    1.000000    
     10 Si    c    0.160190 *  0.293910 *  0.273440 *   4.00000    1.000000    
     11 Si    c    0.839810 *  0.293910 *  0.726560 *   4.00000    1.000000    
     12 Si    c    0.660190 *  0.706090 *  0.726560 *   4.00000    1.000000    
     13 Si    c    0.839810 *  0.706090 *  0.726560 *   4.00000    1.000000    
     14 Si    c    0.660190 *  0.293910 *  0.726560 *   4.00000    1.000000    
     15 Si    c    0.160190 *  0.706090 *  0.273440 *   4.00000    1.000000    
     16 Si    c    0.339810 *  0.293910 *  0.273440 *   4.00000    1.000000    
     17 Si    c    0.660660 *  0.294090 *  0.017440 *   4.00000    1.000000    
     18 Si    c    0.839340 *  0.705910 *  0.017440 *   4.00000    1.000000    
     19 Si    c    0.339340 *  0.294090 *  0.982560 *   4.00000    1.000000    
     20 Si    c    0.160660 *  0.705910 *  0.982560 *   4.00000    1.000000    
     21 Si    c    0.339340 *  0.705910 *  0.982560 *   4.00000    1.000000    
     22 Si    c    0.160660 *  0.294090 *  0.982560 *   4.00000    1.000000    
     23 Si    c    0.660660 *  0.705910 *  0.017440 *   4.00000    1.000000    
     24 Si    c    0.839340 *  0.294090 *  0.017440 *   4.00000    1.000000    
     25 O3    c    0.106570 *  0.174340 *  0.366200 *   1.33043    1.000000    
     26 O3    c    0.393430 *  0.825660 *  0.366200 *   1.33043    1.000000    
     27 O2    c    0.893430 *  0.174340 *  0.633800 *   0.87073    1.000000    
     28 O3    c    0.606570 *  0.825660 *  0.633800 *   1.33043    1.000000    
     29 O2    c    0.893430 *  0.825660 *  0.633800 *   0.87073    1.000000    
     30 O3    c    0.606570 *  0.174340 *  0.633800 *   1.33043    1.000000    
     31 O3    c    0.106570 *  0.825660 *  0.366200 *   1.33043    1.000000    
     32 O2    c    0.393430 *  0.174340 *  0.366200 *   0.87073    1.000000    
     33 O3    c    0.000000 *  0.000000 *  0.500000 *   1.33043    1.000000    
     34 O3    c    0.500000 *  0.000000 *  0.500000 *   1.33043    1.000000    
     35 O3    c    0.994520 *  0.000000 *  0.250840 *   1.33043    1.000000    
     36 O2    c    0.505480 *  0.000000 *  0.250840 *   0.87073    1.000000    
     37 O2    c    0.005480 *  0.000000 *  0.749160 *   0.87073    1.000000    
     38 O3    c    0.494520 *  0.000000 *  0.749160 *   1.33043    1.000000    
     39 O2    c    0.610230 *  0.175520 *  0.115390 *   0.87073    1.000000    
     40 O2    c    0.889770 *  0.824480 *  0.115390 *   0.87073    1.000000    
     41 O2    c    0.389770 *  0.175520 *  0.884610 *   0.87073    1.000000    
     42 O2    c    0.110230 *  0.824480 *  0.884610 *   0.87073    1.000000    
     43 O2    c    0.389770 *  0.824480 *  0.884610 *   0.87073    1.000000    
     44 O2    c    0.110230 *  0.175520 *  0.884610 *   0.87073    1.000000    
     45 O2    c    0.610230 *  0.824480 *  0.115390 *   0.87073    1.000000    
     46 O2    c    0.889770 *  0.175520 *  0.115390 *   0.87073    1.000000    
     47 O2    c    0.500000 *  0.000000 *  0.000000 *   0.87073    1.000000    
     48 O2    c    0.000000 *  0.000000 *  0.000000 *   0.87073    1.000000    
     49 O2    c    0.151750 *  0.500000 *  0.313330 *   0.87073    1.000000    
     50 O3    c    0.348250 *  0.500000 *  0.313330 *   1.33043    1.000000    
     51 O2    c    0.848250 *  0.500000 *  0.686670 *   0.87073    1.000000    
     52 O2    c    0.651750 *  0.500000 *  0.686670 *   0.87073    1.000000    
     53 O2    c    0.250000 *  0.234950 *  0.285720 *   0.87073    1.000000    
     54 O3    c    0.250000 *  0.765050 *  0.285720 *   1.33043    1.000000    
     55 O2    c    0.750000 *  0.234950 *  0.714280 *   0.87073    1.000000    
     56 O2    c    0.750000 *  0.765050 *  0.714280 *   0.87073    1.000000    
     57 O2    c    0.131410 *  0.268650 *  0.127790 *   0.87073    1.000000    
     58 O3    c    0.368590 *  0.731350 *  0.127790 *   1.33043    1.000000    
     59 O2    c    0.868590 *  0.268650 *  0.872210 *   0.87073    1.000000    
     60 O2    c    0.631410 *  0.731350 *  0.872210 *   0.87073    1.000000    
     61 O2    c    0.868590 *  0.731350 *  0.872210 *   0.87073    1.000000    
     62 O2    c    0.631410 *  0.268650 *  0.872210 *   0.87073    1.000000    
     63 O2    c    0.131410 *  0.731350 *  0.127790 *   0.87073    1.000000    
     64 O2    c    0.368590 *  0.268650 *  0.127790 *   0.87073    1.000000    
     65 O2    c    0.653920 *  0.500000 *  0.058200 *   0.87073    1.000000    
     66 O2    c    0.846080 *  0.500000 *  0.058200 *   0.87073    1.000000    
     67 O2    c    0.346080 *  0.500000 *  0.941800 *   0.87073    1.000000    
     68 O2    c    0.153920 *  0.500000 *  0.941800 *   0.87073    1.000000    
     69 O2    c    0.750000 *  0.231060 *  0.027050 *   0.87073    1.000000    
     70 O2    c    0.750000 *  0.768940 *  0.027050 *   0.87073    1.000000    
     71 O2    c    0.250000 *  0.231060 *  0.972950 *   0.87073    1.000000    
     72 O2    c    0.250000 *  0.768940 *  0.972950 *   0.87073    1.000000    
     73 O3    s    0.106570 *  0.174340 *  0.366200 *  -3.33043    1.000000    
     74 O3    s    0.393430 *  0.825660 *  0.366200 *  -3.33043    1.000000    
     75 O2    s    0.893430 *  0.174340 *  0.633800 *  -2.87073    1.000000    
     76 O3    s    0.606570 *  0.825660 *  0.633800 *  -3.33043    1.000000    
     77 O2    s    0.893430 *  0.825660 *  0.633800 *  -2.87073    1.000000    
     78 O3    s    0.606570 *  0.174340 *  0.633800 *  -3.33043    1.000000    
     79 O3    s    0.106570 *  0.825660 *  0.366200 *  -3.33043    1.000000    
     80 O2    s    0.393430 *  0.174340 *  0.366200 *  -2.87073    1.000000    
     81 O3    s    0.000000 *  0.000000 *  0.500000 *  -3.33043    1.000000    
     82 O3    s    0.500000 *  0.000000 *  0.500000 *  -3.33043    1.000000    
     83 O3    s    0.994520 *  0.000000 *  0.250840 *  -3.33043    1.000000    
     84 O2    s    0.505480 *  0.000000 *  0.250840 *  -2.87073    1.000000    
     85 O2    s    0.005480 *  0.000000 *  0.749160 *  -2.87073    1.000000    
     86 O3    s    0.494520 *  0.000000 *  0.749160 *  -3.33043    1.000000    
     87 O2    s    0.610230 *  0.175520 *  0.115390 *  -2.87073    1.000000    
     88 O2    s    0.889770 *  0.824480 *  0.115390 *  -2.87073    1.000000    
     89 O2    s    0.389770 *  0.175520 *  0.884610 *  -2.87073    1.000000    
     90 O2    s    0.110230 *  0.824480 *  0.884610 *  -2.87073    1.000000    
     91 O2    s    0.389770 *  0.824480 *  0.884610 *  -2.87073    1.000000    
     92 O2    s    0.110230 *  0.175520 *  0.884610 *  -2.87073    1.000000    
     93 O2    s    0.610230 *  0.824480 *  0.115390 *  -2.87073    1.000000    
     94 O2    s    0.889770 *  0.175520 *  0.115390 *  -2.87073    1.000000    
     95 O2    s    0.500000 *  0.000000 *  0.000000 *  -2.87073    1.000000    
     96 O2    s    0.000000 *  0.000000 *  0.000000 *  -2.87073    1.000000    
     97 O2    s    0.151750 *  0.500000 *  0.313330 *  -2.87073    1.000000    
     98 O3    s    0.348250 *  0.500000 *  0.313330 *  -3.33043    1.000000    
     99 O2    s    0.848250 *  0.500000 *  0.686670 *  -2.87073    1.000000    
    100 O2    s    0.651750 *  0.500000 *  0.686670 *  -2.87073    1.000000    
    101 O2    s    0.250000 *  0.234950 *  0.285720 *  -2.87073    1.000000    
    102 O3    s    0.250000 *  0.765050 *  0.285720 *  -3.33043    1.000000    
    103 O2    s    0.750000 *  0.234950 *  0.714280 *  -2.87073    1.000000    
    104 O2    s    0.750000 *  0.765050 *  0.714280 *  -2.87073    1.000000    
    105 O2    s    0.131410 *  0.268650 *  0.127790 *  -2.87073    1.000000    
    106 O3    s    0.368590 *  0.731350 *  0.127790 *  -3.33043    1.000000    
    107 O2    s    0.868590 *  0.268650 *  0.872210 *  -2.87073    1.000000    
    108 O2    s    0.631410 *  0.731350 *  0.872210 *  -2.87073    1.000000    
    109 O2    s    0.868590 *  0.731350 *  0.872210 *  -2.87073    1.000000    
    110 O2    s    0.631410 *  0.268650 *  0.872210 *  -2.87073    1.000000    
    111 O2    s    0.131410 *  0.731350 *  0.127790 *  -2.87073    1.000000    
    112 O2    s    0.368590 *  0.268650 *  0.127790 *  -2.87073    1.000000    
    113 O2    s    0.653920 *  0.500000 *  0.058200 *  -2.87073    1.000000    
    114 O2    s    0.846080 *  0.500000 *  0.058200 *  -2.87073    1.000000    
    115 O2    s    0.346080 *  0.500000 *  0.941800 *  -2.87073    1.000000    
    116 O2    s    0.153920 *  0.500000 *  0.941800 *  -2.87073    1.000000    
    117 O2    s    0.750000 *  0.231060 *  0.027050 *  -2.87073    1.000000    
    118 O2    s    0.750000 *  0.768940 *  0.027050 *  -2.87073    1.000000    
    119 O2    s    0.250000 *  0.231060 *  0.972950 *  -2.87073    1.000000    
    120 O2    s    0.250000 *  0.768940 *  0.972950 *  -2.87073    1.000000    
--------------------------------------------------------------------------------



********************************************************************************
*  General input information                                                   *
********************************************************************************

  Species output for all configurations : 

--------------------------------------------------------------------------------
  Species    Type    Atomic    Atomic    Charge       Radii (Angs)     Library
                     Number     Mass       (e)     Cova   Ionic  VDW   Symbol
--------------------------------------------------------------------------------
    Ge       Core       32      72.61   4.000000   1.170  0.000  1.750 Ge       
    Si       Core       14      28.09   4.000000   1.200  0.000  2.100 Si       
    O1       Core        8      16.00   1.733957   0.730  0.000  0.000 O1       
    O2       Core        8      16.00   0.870733   0.730  0.000  1.360 O2       
    O3       Core        8      16.00   1.330431   0.730  0.000  1.360 O3       
    O1       Shell       8       0.00  -3.733957   0.730  0.000  0.000 O1       
    O2       Shell       8       0.00  -2.870733   0.730  0.000  0.000 O2       
    O3       Shell       8       0.00  -3.330431   0.730  0.000  0.000 O3       
--------------------------------------------------------------------------------


  Lattice summation method               =    Ewald          (3-D)
                                         =    Parry          (2-D)
                                         =    Saunders et al (1-D)
  Accuracy factor for lattice sums       =   12.000


  Analytic derivatives to be used

  Time limit = Infinity

  Maximum range for interatomic potentials =    100000.000000 Angstroms

  General interatomic potentials :

--------------------------------------------------------------------------------
Atom  Types   Potential      Parameter       Value         Units   Cutoffs(Ang)
  1     2                                                            Min /  Max 
--------------------------------------------------------------------------------
Si   c O1   s Buckingham    Buckingham A     1315.2478    eV        0.000 16.000
                            Buckingham rho  0.31775900    Ang       
                            Buckingham C     10.141118    eV*Ang^6  
--------------------------------------------------------------------------------
Si   c O2   s Buckingham    Buckingham A     1315.2478    eV        0.000 16.000
                            Buckingham rho  0.31775900    Ang       
                            Buckingham C     10.141118    eV*Ang^6  
--------------------------------------------------------------------------------
Si   c O3   s Buckingham    Buckingham A     1315.2478    eV        0.000 16.000
                            Buckingham rho  0.31775900    Ang       
                            Buckingham C     10.141118    eV*Ang^6  
--------------------------------------------------------------------------------
Ge   c O1   s Buckingham    Buckingham A     1497.3996    eV        0.000 16.000
                            Buckingham rho  0.32564600    Ang       
                            Buckingham C     16.808599    eV*Ang^6  
--------------------------------------------------------------------------------
Ge   c O2   s Buckingham    Buckingham A     1497.3996    eV        0.000 16.000
                            Buckingham rho  0.32564600    Ang       
                            Buckingham C     16.808599    eV*Ang^6  
--------------------------------------------------------------------------------
Ge   c O3   s Buckingham    Buckingham A     1497.3996    eV        0.000 16.000
                            Buckingham rho  0.32564600    Ang       
                            Buckingham C     16.808599    eV*Ang^6  
--------------------------------------------------------------------------------
O1   s O1   s Buckingham    Buckingham A     22764.000    eV        0.000 16.000
                            Buckingham rho  0.14900000    Ang       
                            Buckingham C     10.937044    eV*Ang^6  
--------------------------------------------------------------------------------
O1   s O2   s Buckingham    Buckingham A     22764.000    eV        0.000 16.000
                            Buckingham rho  0.14900000    Ang       
                            Buckingham C     10.937044    eV*Ang^6  
--------------------------------------------------------------------------------
O1   s O3   s Buckingham    Buckingham A     22764.000    eV        0.000 16.000
                            Buckingham rho  0.14900000    Ang       
                            Buckingham C     10.937044    eV*Ang^6  
--------------------------------------------------------------------------------
O2   s O2   s Buckingham    Buckingham A     22764.000    eV        0.000 16.000
                            Buckingham rho  0.14900000    Ang       
                            Buckingham C     10.937044    eV*Ang^6  
--------------------------------------------------------------------------------
O2   s O3   s Buckingham    Buckingham A     22764.000    eV        0.000 16.000
                            Buckingham rho  0.14900000    Ang       
                            Buckingham C     10.937044    eV*Ang^6  
--------------------------------------------------------------------------------
O3   s O3   s Buckingham    Buckingham A     22764.000    eV        0.000 16.000
                            Buckingham rho  0.14900000    Ang       
                            Buckingham C     10.937044    eV*Ang^6  
--------------------------------------------------------------------------------
O1   c O1   s Spring (c-s)  Spring k 2       180.31577    eV*Ang^-2 0.000  0.800
                            Spring k 4       0.0000000    eV*Ang^-4 
--------------------------------------------------------------------------------
O2   c O2   s Spring (c-s)  Spring k 2       75.969800    eV*Ang^-2 0.000  0.800
                            Spring k 4       0.0000000    eV*Ang^-4 
--------------------------------------------------------------------------------
O3   c O3   s Spring (c-s)  Spring k 2       128.14270    eV*Ang^-2 0.000  0.800
                            Spring k 4       0.0000000    eV*Ang^-4 
--------------------------------------------------------------------------------

  General Three-body potentials :

--------------------------------------------------------------------------------
  Atoms       Potential      Parameter       Value         Units   Cutoffs(Ang)
  1 / 2 / 3                                                          Min /  Max 
--------------------------------------------------------------------------------
Si    core    Harmonic      Three-body cnst  1.2614000    eV*rad^-2 0.000  1.900
O1    shel                  Three-body angl  109.47000    degrees   0.000  1.900
O1    shel                  Three-body k4    0.0000000    eV*rad^-4 0.000  3.500
                            Three-body k3    0.0000000    eV*rad^-3 
--------------------------------------------------------------------------------
Si    core    Harmonic      Three-body cnst  1.2614000    eV*rad^-2 0.000  1.900
O1    shel                  Three-body angl  109.47000    degrees   0.000  1.900
õ(1   shel                  Three-body k4    0.0000000    eV*rad^-4 0.000  3.500
                            Three-body k3    0.0000000    eV*rad^-3 
--------------------------------------------------------------------------------
Si    core    Harmonic      Three-body cnst  1.2614000    eV*rad^-2 0.000  1.900
õ(1   shel                  Three-body angl  109.47000    degrees   0.000  1.900
õ(1   shel                  Three-body k4    0.0000000    eV*rad^-4 0.000  3.500
                            Three-body k3    0.0000000    eV*rad^-3 
--------------------------------------------------------------------------------
Si    core    Harmonic      Three-body cnst  1.2614000    eV*rad^-2 0.000  1.900
O1    shel                  Three-body angl  109.47000    degrees   0.000  1.900
O2    shel                  Three-body k4    0.0000000    eV*rad^-4 0.000  3.500
                            Three-body k3    0.0000000    eV*rad^-3 
--------------------------------------------------------------------------------
Si    core    Harmonic      Three-body cnst  1.2614000    eV*rad^-2 0.000  1.900
O1    shel                  Three-body angl  109.47000    degrees   0.000  1.900
õ(2   shel                  Three-body k4    0.0000000    eV*rad^-4 0.000  3.500
                            Three-body k3    0.0000000    eV*rad^-3 
--------------------------------------------------------------------------------
Si    core    Harmonic      Three-body cnst  1.2614000    eV*rad^-2 0.000  1.900
O2    shel                  Three-body angl  109.47000    degrees   0.000  1.900
õ(1   shel                  Three-body k4    0.0000000    eV*rad^-4 0.000  3.500
                            Three-body k3    0.0000000    eV*rad^-3 
--------------------------------------------------------------------------------
Si    core    Harmonic      Three-body cnst  1.2614000    eV*rad^-2 0.000  1.900
õ(1   shel                  Three-body angl  109.47000    degrees   0.000  1.900
õ(2   shel                  Three-body k4    0.0000000    eV*rad^-4 0.000  3.500
                            Three-body k3    0.0000000    eV*rad^-3 
--------------------------------------------------------------------------------
Si    core    Harmonic      Three-body cnst  1.2614000    eV*rad^-2 0.000  1.900
O2    shel                  Three-body angl  109.47000    degrees   0.000  1.900
O2    shel                  Three-body k4    0.0000000    eV*rad^-4 0.000  3.500
                            Three-body k3    0.0000000    eV*rad^-3 
--------------------------------------------------------------------------------
Si    core    Harmonic      Three-body cnst  1.2614000    eV*rad^-2 0.000  1.900
O2    shel                  Three-body angl  109.47000    degrees   0.000  1.900
õ(2   shel                  Three-body k4    0.0000000    eV*rad^-4 0.000  3.500
                            Three-body k3    0.0000000    eV*rad^-3 
--------------------------------------------------------------------------------
Si    core    Harmonic      Three-body cnst  1.2614000    eV*rad^-2 0.000  1.900
õ(2   shel                  Three-body angl  109.47000    degrees   0.000  1.900
õ(2   shel                  Three-body k4    0.0000000    eV*rad^-4 0.000  3.500
                            Three-body k3    0.0000000    eV*rad^-3 
--------------------------------------------------------------------------------

********************************************************************************
*  Output for configuration   1 : POSCAR_N0003.vasp                            *
********************************************************************************


  Components of energy : 

--------------------------------------------------------------------------------
  Interatomic potentials     =         760.29927153 eV    
  Three-body potentials      =           0.01381815 eV    
  Monopole - monopole (real) =       -2676.00317479 eV    
  Monopole - monopole (recip)=       -1115.35404472 eV    
  Monopole - monopole (total)=       -3791.35721950 eV    
--------------------------------------------------------------------------------
  Total lattice energy       =       -3031.04412982 eV    
--------------------------------------------------------------------------------
  Total lattice energy       =         -292449.4248 kJ/(mole unit cells)
--------------------------------------------------------------------------------


  Number of variables =      363

  Maximum number of calculations  =          1000
  Maximum Hessian update interval =            10
  Maximum step size               =   0.100000000
  Maximum parameter tolerance     =   0.000010000
  Maximum function  tolerance     =   0.000010000
  Maximum gradient  tolerance     =   0.001000000
  Maximum gradient  component     =   0.010000000

  Symmetry not applied to optimisation

  Cell parameters to be optimised using strains

  Newton-Raphson optimiser to be used

  BFGS hessian update to be used

  Lower half triangular hessian to be used

  Minimiser to switch to RFO
  When gradient norm is less than     0.050000

  Dumpfile to be written after every cycle

  Start of bulk optimisation :

  Cycle:      0 Energy:     -3031.044130  Gnorm:      4.339763  CPU:    0.095
  ** Hessian calculated **
  Cycle:      1 Energy:     -3061.955045  Gnorm:      0.978921  CPU:    0.205
  ** Hessian calculated **
  Cycle:      2 Energy:     -3064.439909  Gnorm:      0.543344  CPU:    0.372
  Cycle:      3 Energy:     -3065.236396  Gnorm:      0.356328  CPU:    0.460
  Cycle:      4 Energy:     -3065.953016  Gnorm:      0.282382  CPU:    0.563
  Cycle:      5 Energy:     -3066.628109  Gnorm:      0.213362  CPU:    0.666
  Cycle:      6 Energy:     -3067.020552  Gnorm:      0.169087  CPU:    0.753
  Cycle:      7 Energy:     -3067.251008  Gnorm:      0.125721  CPU:    0.840
  Cycle:      8 Energy:     -3067.377596  Gnorm:      0.094567  CPU:    0.926
  Cycle:      9 Energy:     -3067.450839  Gnorm:      0.076957  CPU:    1.030
  Cycle:     10 Energy:     -3067.504109  Gnorm:      0.073011  CPU:    1.139
  Cycle:     11 Energy:     -3067.564138  Gnorm:      0.079367  CPU:    1.255
  ** Hessian calculated **
  Cycle:     12 Energy:     -3067.600354  Gnorm:      0.077142  CPU:    1.449
  Cycle:     13 Energy:     -3067.661252  Gnorm:      0.073208  CPU:    1.570
  Cycle:     14 Energy:     -3067.742172  Gnorm:      0.067569  CPU:    1.676
  Cycle:     15 Energy:     -3067.881285  Gnorm:      0.056674  CPU:    1.796
  Cycle:     16 Energy:     -3068.041953  Gnorm:      0.041999  CPU:    1.900
  ** Hessian has wrong structure
  ** Imaginary eigenvectors =   3
  Cycle:     17 Energy:     -3068.054053  Gnorm:      0.117917  CPU:    2.123
  ** Hessian has wrong structure
  ** Imaginary eigenvectors =   3
  ** Hessian has wrong structure
  ** Imaginary eigenvectors =   2
  Cycle:     18 Energy:     -3068.078729  Gnorm:      0.119644  CPU:    2.586
  ** Hessian has required structure
  Cycle:     19 Energy:     -3068.176662  Gnorm:      0.101621  CPU:    2.788
  ** Hessian has required structure
  Cycle:     20 Energy:     -3068.340262  Gnorm:      0.033271  CPU:    2.932
  ** Hessian has required structure
  Cycle:     21 Energy:     -3068.372546  Gnorm:      0.025908  CPU:    3.091
  ** Hessian has required structure
  Cycle:     22 Energy:     -3068.405426  Gnorm:      0.027626  CPU:    3.253
  ** Hessian has required structure
  Cycle:     23 Energy:     -3068.419657  Gnorm:      0.022946  CPU:    3.412
  ** Hessian has required structure
  Cycle:     24 Energy:     -3068.430177  Gnorm:      0.021864  CPU:    3.571
  ** Hessian has required structure
  Cycle:     25 Energy:     -3068.440603  Gnorm:      0.010526  CPU:    3.713
  ** Hessian has required structure
  Cycle:     26 Energy:     -3068.444933  Gnorm:      0.008254  CPU:    3.856
  ** Hessian has required structure
  Cycle:     27 Energy:     -3068.447349  Gnorm:      0.005446  CPU:    4.000
  ** Hessian has required structure
  Cycle:     28 Energy:     -3068.448741  Gnorm:      0.005706  CPU:    4.144
  ** Hessian has required structure
  Cycle:     29 Energy:     -3068.452067  Gnorm:      0.004316  CPU:    4.379
  ** Hessian has required structure
  Cycle:     30 Energy:     -3068.453474  Gnorm:      0.003367  CPU:    4.539
  ** Hessian has required structure
  Cycle:     31 Energy:     -3068.454007  Gnorm:      0.001716  CPU:    4.698
  ** Hessian has required structure
  Cycle:     32 Energy:     -3068.454202  Gnorm:      0.001342  CPU:    4.858
  ** Hessian has required structure
  Cycle:     33 Energy:     -3068.454268  Gnorm:      0.000692  CPU:    5.019
  ** Hessian has required structure
  Cycle:     34 Energy:     -3068.454299  Gnorm:      0.000454  CPU:    5.207
  ** Hessian has required structure
  Cycle:     35 Energy:     -3068.454306  Gnorm:      0.000258  CPU:    5.404
  ** Hessian has required structure
  Cycle:     36 Energy:     -3068.454308  Gnorm:      0.000168  CPU:    5.562
  ** Hessian has required structure
  Cycle:     37 Energy:     -3068.454310  Gnorm:      0.000162  CPU:    5.718
  ** Hessian has required structure
  Cycle:     38 Energy:     -3068.454311  Gnorm:      0.000113  CPU:    5.875
  ** Hessian has required structure
  Cycle:     39 Energy:     -3068.454311  Gnorm:      0.000113  CPU:    6.144
  ** Hessian has required structure
  Cycle:     40 Energy:     -3068.454311  Gnorm:      0.000113  CPU:    6.299
  ** Hessian has required structure
  Cycle:     41 Energy:     -3068.454311  Gnorm:      0.000113  CPU:    6.454
  ** Hessian has required structure
  Cycle:     42 Energy:     -3068.454311  Gnorm:      0.000113  CPU:    6.609
  ** Hessian has required structure
  Cycle:     43 Energy:     -3068.454311  Gnorm:      0.000111  CPU:    6.762
  ** Hessian has required structure
  Cycle:     44 Energy:     -3068.454311  Gnorm:      0.000110  CPU:    6.916
  ** Hessian has required structure
  Cycle:     45 Energy:     -3068.454311  Gnorm:      0.000109  CPU:    7.068
  ** Hessian has required structure
  Cycle:     46 Energy:     -3068.454311  Gnorm:      0.000108  CPU:    7.221
  ** Hessian has required structure
  Cycle:     47 Energy:     -3068.454311  Gnorm:      0.000108  CPU:    7.377
  ** Hessian has required structure
  Cycle:     48 Energy:     -3068.454311  Gnorm:      0.000108  CPU:    7.531
  ** Hessian has required structure
  Cycle:     49 Energy:     -3068.454311  Gnorm:      0.000107  CPU:    7.817
  ** Hessian has required structure


  **** Too many failed attempts to optimise ****

  Final energy =   -3068.45431141 eV      
  Final Gnorm  =       0.00010602

  Components of energy : 

--------------------------------------------------------------------------------
  Interatomic potentials     =         815.24074695 eV    
  Three-body potentials      =           0.19760796 eV    
  Monopole - monopole (real) =       -2210.91733955 eV    
  Monopole - monopole (recip)=       -1672.97532678 eV    
  Monopole - monopole (total)=       -3883.89266633 eV    
--------------------------------------------------------------------------------
  Total lattice energy       =       -3068.45431141 eV    
--------------------------------------------------------------------------------
  Total lattice energy       =         -296058.9354 kJ/(mole unit cells)
--------------------------------------------------------------------------------

  Final fractional coordinates of atoms :

--------------------------------------------------------------------------------
   No.  Atomic        x           y          z          Radius
        Label       (Frac)      (Frac)     (Frac)       (Angs) 
--------------------------------------------------------------------------------
     1  Ge    c     0.052090    0.000000    0.372270    0.000000
     2  Ge    c     0.557343    0.016702    0.602235    0.000000
     3  Ge    c     0.342420    0.720375    0.271623    0.000000
     4  Si    c     0.457904    0.012101    0.341130    0.000000
     5  Si    c     0.956649    0.014269    0.641269    0.000000
     6  Si    c     0.556475    0.007132    0.082044    0.000000
     7  Si    c     0.942045    0.010380    0.129281    0.000000
     8  Si    c     0.443484    0.017157    0.845367    0.000000
     9  Si    c     0.058556    0.008077    0.895143    0.000000
    10  Si    c     0.170366    0.293174    0.270340    0.000000
    11  Si    c     0.846512    0.311803    0.711021    0.000000
    12  Si    c     0.669738    0.718228    0.704620    0.000000
    13  Si    c     0.847423    0.713270    0.711191    0.000000
    14  Si    c     0.668676    0.313635    0.704087    0.000000
    15  Si    c     0.162085    0.699259    0.275005    0.000000
    16  Si    c     0.348474    0.309599    0.265668    0.000000
    17  Si    c     0.661761    0.311457    0.008773    0.000000
    18  Si    c     0.842638    0.707469    0.018368    0.000000
    19  Si    c     0.345807    0.320551    0.958638    0.000000
    20  Si    c     0.161852    0.702151    0.967502    0.000000
    21  Si    c     0.339823    0.720847    0.958033    0.000000
    22  Si    c     0.167302    0.303915    0.965359    0.000000
    23  Si    c     0.664558    0.711500    0.009519    0.000000
    24  Si    c     0.840101    0.309592    0.017861    0.000000
    25  O3    c     0.117353    0.168462    0.355664    0.000000
    26  O3    c     0.402712    0.846128    0.364209    0.000000
    27  O2    c     0.902160    0.185295    0.629280    0.000000
    28  O3    c     0.614477    0.834338    0.618213    0.000000
    29  O2    c     0.903592    0.840596    0.629213    0.000000
    30  O3    c     0.613797    0.200528    0.616094    0.000000
    31  O3    c     0.098074    0.802855    0.354083    0.000000
    32  O2    c     0.404117    0.183853    0.347675    0.000000
    33  O3    c     0.021251    0.014852    0.532269    0.000000
    34  O3    c     0.525789    0.019906    0.442965    0.000000
    35  O3    c     0.971094    0.014919    0.276296    0.000000
    36  O2    c     0.493894    0.996943    0.195655    0.000000
    37  O2    c     0.996531    0.015330    0.782392    0.000000
    38  O3    c     0.475755    0.016637    0.699193    0.000000
    39  O2    c     0.606724    0.184760    0.093990    0.000000
    40  O2    c     0.894110    0.832938    0.106196    0.000000
    41  O2    c     0.398557    0.198509    0.868871    0.000000
    42  O2    c     0.106126    0.827587    0.884865    0.000000
    43  O2    c     0.386944    0.851538    0.863541    0.000000
    44  O2    c     0.116716    0.172536    0.879396    0.000000
    45  O2    c     0.611845    0.838645    0.095655    0.000000
    46  O2    c     0.888660    0.178888    0.106584    0.000000
    47  O2    c     0.516075    0.001871    0.941378    0.000000
    48  O2    c     0.017090    0.017709    0.036131    0.000000
    49  O2    c     0.148890    0.493402    0.298514    0.000000
    50  O3    c     0.367954    0.506215    0.299617    0.000000
    51  O2    c     0.868722    0.512828    0.679494    0.000000
    52  O2    c     0.650082    0.516347    0.679224    0.000000
    53  O2    c     0.260120    0.263318    0.304598    0.000000
    54  O3    c     0.247586    0.751957    0.318566    0.000000
    55  O2    c     0.758296    0.275874    0.670093    0.000000
    56  O2    c     0.759623    0.753408    0.669751    0.000000
    57  O2    c     0.157147    0.250740    0.117388    0.000000
    58  O3    c     0.352820    0.772292    0.107260    0.000000
    59  O2    c     0.855877    0.271226    0.865348    0.000000
    60  O2    c     0.655539    0.763528    0.857231    0.000000
    61  O2    c     0.857637    0.749575    0.865593    0.000000
    62  O2    c     0.652364    0.263922    0.856199    0.000000
    63  O2    c     0.153995    0.746098    0.120754    0.000000
    64  O2    c     0.360142    0.275356    0.110504    0.000000
    65  O2    c     0.637618    0.511777    0.034462    0.000000
    66  O2    c     0.865576    0.507520    0.050479    0.000000
    67  O2    c     0.368344    0.522567    0.932131    0.000000
    68  O2    c     0.138131    0.501573    0.940591    0.000000
    69  O2    c     0.749966    0.282455    0.051596    0.000000
    70  O2    c     0.752878    0.736427    0.053177    0.000000
    71  O2    c     0.256577    0.287715    0.922691    0.000000
    72  O2    c     0.249674    0.735292    0.921823    0.000000
    73  O3    s     0.117641    0.167864    0.347689    0.000000
    74  O3    s     0.403084    0.851861    0.354246    0.000000
    75  O2    s     0.901692    0.181488    0.639530    0.000000
    76  O3    s     0.615670    0.837040    0.626242    0.000000
    77  O2    s     0.902896    0.844553    0.639515    0.000000
    78  O3    s     0.615029    0.197380    0.624550    0.000000
    79  O3    s     0.100974    0.808409    0.347273    0.000000
    80  O2    s     0.403658    0.179717    0.337926    0.000000
    81  O3    s     0.016705    0.013491    0.530725    0.000000
    82  O3    s     0.521079    0.018778    0.445386    0.000000
    83  O3    s     0.974786    0.013194    0.268881    0.000000
    84  O2    s     0.497387    0.999766    0.197898    0.000000
    85  O2    s     0.999454    0.014346    0.780125    0.000000
    86  O3    s     0.479225    0.016692    0.706306    0.000000
    87  O2    s     0.607500    0.180103    0.083366    0.000000
    88  O2    s     0.893437    0.837846    0.098668    0.000000
    89  O2    s     0.397435    0.192819    0.876476    0.000000
    90  O2    s     0.107225    0.832875    0.895080    0.000000
    91  O2    s     0.387836    0.854968    0.872102    0.000000
    92  O2    s     0.116164    0.169681    0.890557    0.000000
    93  O2    s     0.611865    0.842287    0.084595    0.000000
    94  O2    s     0.888912    0.175455    0.098800    0.000000
    95  O2    s     0.512602    0.004126    0.946324    0.000000
    96  O2    s     0.013453    0.015848    0.030954    0.000000
    97  O2    s     0.152649    0.493913    0.292897    0.000000
    98  O3    s     0.363797    0.503228    0.293755    0.000000
    99  O2    s     0.864079    0.512792    0.686217    0.000000
   100  O2    s     0.654279    0.516210    0.684719    0.000000
   101  O2    s     0.259873    0.271337    0.296834    0.000000
   102  O3    s     0.246809    0.744264    0.310514    0.000000
   103  O2    s     0.758282    0.283736    0.678080    0.000000
   104  O2    s     0.759510    0.745392    0.677863    0.000000
   105  O2    s     0.159633    0.260856    0.117167    0.000000
   106  O3    s     0.350659    0.762918    0.105363    0.000000
   107  O2    s     0.853156    0.279694    0.865402    0.000000
   108  O2    s     0.658003    0.753279    0.857469    0.000000
   109  O2    s     0.854921    0.741189    0.865682    0.000000
   110  O2    s     0.655061    0.274070    0.856587    0.000000
   111  O2    s     0.155676    0.736532    0.120239    0.000000
   112  O2    s     0.357355    0.283777    0.110239    0.000000
   113  O2    s     0.643047    0.511623    0.029085    0.000000
   114  O2    s     0.860451    0.507789    0.043614    0.000000
   115  O2    s     0.362999    0.521727    0.937620    0.000000
   116  O2    s     0.143732    0.501931    0.946062    0.000000
   117  O2    s     0.750151    0.288624    0.043258    0.000000
   118  O2    s     0.753023    0.730505    0.044636    0.000000
   119  O2    s     0.256494    0.293081    0.931200    0.000000
   120  O2    s     0.249772    0.730037    0.930687    0.000000
--------------------------------------------------------------------------------

  Final Cartesian lattice vectors (Angstroms) :

       17.317081   -0.025581    0.067841
       -0.011285    7.657212    0.030304
        0.041240    0.043085   10.196570


  Final cell parameters and derivatives :

--------------------------------------------------------------------------------
       a           17.317233 Angstrom     dE/de1(xx)     0.009658 eV/strain
       b            7.657281 Angstrom     dE/de2(yy)     0.010602 eV/strain
       c           10.196744 Angstrom     dE/de3(zz)     0.006184 eV/strain
       alpha       89.531494 Degrees      dE/de4(yz)    -0.000238 eV/strain
       beta        89.544169 Degrees      dE/de5(xz)    -0.000288 eV/strain
       gamma       90.168191 Degrees      dE/de6(xy)    -0.000761 eV/strain
--------------------------------------------------------------------------------

  Primitive cell volume =          1352.023911 Angs**3

  Density of cell =      1.935311 g/cm**3

  Non-primitive cell volume =          1352.023911 Angs**3


  Final internal derivatives :

--------------------------------------------------------------------------------
   No.  Atomic          a             b             c           Radius
        Label          (eV)          (eV)          (eV)        (eV/Angs)
--------------------------------------------------------------------------------
      1 Ge    c       0.000000      0.000000      0.000000      0.000000
      2 Ge    c      -0.000822     -0.000063     -0.000192      0.000000
      3 Ge    c       0.007359      0.004194     -0.002589      0.000000
      4 Si    c       0.002434      0.000218     -0.000591      0.000000
      5 Si    c      -0.000104     -0.000005     -0.000088      0.000000
      6 Si    c      -0.000954      0.000138     -0.000029      0.000000
      7 Si    c       0.000466     -0.000186     -0.000026      0.000000
      8 Si    c      -0.000075     -0.000564     -0.000455      0.000000
      9 Si    c      -0.000836      0.000681      0.000007      0.000000
     10 Si    c      -0.003679     -0.001810     -0.004509      0.000000
     11 Si    c       0.000114      0.000098     -0.000027      0.000000
     12 Si    c      -0.000003     -0.000115      0.000013      0.000000
     13 Si    c       0.000139     -0.000087     -0.000054      0.000000
     14 Si    c       0.000147      0.000105      0.000040      0.000000
     15 Si    c      -0.001775     -0.000201     -0.000426      0.000000
     16 Si    c       0.000609     -0.001116      0.000111      0.000000
     17 Si    c      -0.000079      0.000016     -0.000093      0.000000
     18 Si    c       0.000211      0.000009     -0.000030      0.000000
     19 Si    c      -0.000732     -0.000220     -0.000231      0.000000
     20 Si    c       0.000603     -0.000885      0.000701      0.000000
     21 Si    c       0.001421      0.001039     -0.001239      0.000000
     22 Si    c      -0.001785     -0.000790      0.000920      0.000000
     23 Si    c       0.000138     -0.000038     -0.000195      0.000000
     24 Si    c      -0.000058      0.000057     -0.000132      0.000000
     25 O3    c       0.002731      0.002287      0.003332      0.000000
     26 O3    c      -0.004470     -0.003332      0.002007      0.000000
     27 O2    c       0.000053      0.000055     -0.000048      0.000000
     28 O3    c      -0.000250      0.000081     -0.000102      0.000000
     29 O2    c       0.000157      0.000003     -0.000047      0.000000
     30 O3    c      -0.000419     -0.000174     -0.000175      0.000000
     31 O3    c       0.001808     -0.002074     -0.000327      0.000000
     32 O2    c      -0.003538      0.002029      0.000296      0.000000
     33 O3    c      -0.000097      0.000202      0.001158      0.000000
     34 O3    c       0.001932      0.000134      0.001633      0.000000
     35 O3    c      -0.003213      0.000074     -0.001210      0.000000
     36 O2    c      -0.000143     -0.000237     -0.001246      0.000000
     37 O2    c       0.000101     -0.000061     -0.000472      0.000000
     38 O3    c      -0.000324     -0.000074     -0.000413      0.000000
     39 O2    c       0.000024      0.000076      0.000095      0.000000
     40 O2    c      -0.000090     -0.000153      0.000038      0.000000
     41 O2    c      -0.001042      0.001403      0.000281      0.000000
     42 O2    c       0.001840     -0.001487     -0.000628      0.000000
     43 O2    c      -0.001902     -0.001039      0.000131      0.000000
     44 O2    c       0.001964      0.001142     -0.000484      0.000000
     45 O2    c       0.000120      0.000012      0.000059      0.000000
     46 O2    c      -0.000239      0.000149      0.000030      0.000000
     47 O2    c       0.001698      0.000010      0.001091      0.000000
     48 O2    c       0.000293      0.000139      0.001148      0.000000
     49 O2    c      -0.002886      0.006454      0.002067      0.000000
     50 O3    c       0.005723     -0.008210      0.003995      0.000000
     51 O2    c      -0.000051      0.000001      0.000087      0.000000
     52 O2    c       0.000094      0.000034      0.000113      0.000000
     53 O2    c       0.012284     -0.001690      0.001975      0.000000
     54 O3    c      -0.017222      0.001785      0.002705      0.000000
     55 O2    c      -0.000134      0.000030      0.000034      0.000000
     56 O2    c      -0.000009     -0.000025      0.000017      0.000000
     57 O2    c       0.000139     -0.000084      0.000739      0.000000
     58 O3    c       0.001175      0.000918      0.002202      0.000000
     59 O2    c      -0.000079      0.000003     -0.000067      0.000000
     60 O2    c       0.000020     -0.000000      0.000032      0.000000
     61 O2    c       0.000082      0.000015     -0.000031      0.000000
     62 O2    c      -0.000022     -0.000017      0.000020      0.000000
     63 O2    c       0.000442      0.000306     -0.001586      0.000000
     64 O2    c       0.001284     -0.000457     -0.001801      0.000000
     65 O2    c       0.000193     -0.000061     -0.000050      0.000000
     66 O2    c      -0.000120     -0.000013     -0.000063      0.000000
     67 O2    c       0.001890     -0.002102     -0.000579      0.000000
     68 O2    c      -0.001161      0.003123     -0.000134      0.000000
     69 O2    c       0.000011     -0.000057     -0.000094      0.000000
     70 O2    c       0.000039      0.000075     -0.000081      0.000000
     71 O2    c       0.005680     -0.000259     -0.000758      0.000000
     72 O2    c      -0.006923      0.000106     -0.000640      0.000000
     73 O3    s      -0.005720     -0.001943     -0.000506      0.000000
     74 O3    s       0.003741      0.001153      0.000065      0.000000
     75 O2    s      -0.000643      0.000104      0.000120      0.000000
     76 O3    s       0.000396     -0.000086      0.000047      0.000000
     77 O2    s      -0.000645     -0.000118      0.000104      0.000000
     78 O3    s       0.000384      0.000128      0.000125      0.000000
     79 O3    s       0.000643     -0.000427      0.000531      0.000000
     80 O2    s      -0.001028      0.000869      0.000770      0.000000
     81 O3    s      -0.001085     -0.000137      0.000054      0.000000
     82 O3    s       0.002542      0.000059     -0.000166      0.000000
     83 O3    s      -0.001707      0.000049      0.000583      0.000000
     84 O2    s       0.003543      0.000167     -0.000629      0.000000
     85 O2    s      -0.001967      0.000102     -0.000377      0.000000
     86 O3    s       0.001583      0.000221     -0.000276      0.000000
     87 O2    s       0.000282      0.000104     -0.000096      0.000000
     88 O2    s      -0.000549     -0.000117     -0.000005      0.000000
     89 O2    s      -0.000627      0.000371     -0.000731      0.000000
     90 O2    s       0.001040     -0.000651     -0.000360      0.000000
     91 O2    s       0.001027      0.000335     -0.000328      0.000000
     92 O2    s      -0.001014     -0.000202     -0.000552      0.000000
     93 O2    s      -0.000175     -0.000274     -0.000010      0.000000
     94 O2    s      -0.000288      0.000207      0.000076      0.000000
     95 O2    s       0.001728     -0.000063     -0.000237      0.000000
     96 O2    s      -0.002525     -0.000234      0.000076      0.000000
     97 O2    s      -0.001679      0.001484      0.000852      0.000000
     98 O3    s      -0.000866      0.002329      0.000286      0.000000
     99 O2    s      -0.000253     -0.000016      0.000151      0.000000
    100 O2    s       0.000207     -0.000006      0.000144      0.000000
    101 O2    s       0.003631     -0.001710      0.001033      0.000000
    102 O3    s       0.004127      0.000935      0.000786      0.000000
    103 O2    s       0.000094      0.000119      0.000110      0.000000
    104 O2    s      -0.000030     -0.000125      0.000108      0.000000
    105 O2    s      -0.004462     -0.001898     -0.001987      0.000000
    106 O3    s       0.003376      0.001471     -0.001936      0.000000
    107 O2    s      -0.000174      0.000082      0.000064      0.000000
    108 O2    s       0.000164     -0.000134      0.000043      0.000000
    109 O2    s      -0.000303     -0.000089      0.000037      0.000000
    110 O2    s       0.000270      0.000141      0.000020      0.000000
    111 O2    s      -0.000085     -0.000051      0.000241      0.000000
    112 O2    s      -0.000332     -0.000301      0.000085      0.000000
    113 O2    s      -0.000003      0.000077      0.000000      0.000000
    114 O2    s      -0.000111     -0.000052     -0.000004      0.000000
    115 O2    s       0.001938     -0.000814     -0.001030      0.000000
    116 O2    s      -0.001204      0.000755     -0.000626      0.000000
    117 O2    s       0.000032      0.000135     -0.000088      0.000000
    118 O2    s      -0.000096     -0.000117     -0.000079      0.000000
    119 O2    s       0.001279     -0.000532     -0.000931      0.000000
    120 O2    s      -0.002108      0.000420     -0.001039      0.000000
--------------------------------------------------------------------------------
  Maximum abs         0.017222      0.008210      0.004509      0.000000
--------------------------------------------------------------------------------


  Born effective charge tensors : 

-------------------------------------------------------------------------------
  Atom             x           y             z
-------------------------------------------------------------------------------
    1 Ge    x       4.1998     -0.1022     -0.4238
            y       0.1028      3.9190      0.0402
            z      -0.2505      0.0674      4.6687
-------------------------------------------------------------------------------
    2 Ge    x       4.2472     -0.0110      0.4076
            y      -0.0130      3.9389      0.0011
            z       0.2838     -0.0023      4.6051
-------------------------------------------------------------------------------
    3 Ge    x       3.9530      0.3122      0.1358
            y       0.2988      4.1673      0.2086
            z       0.1407      0.0535      3.4266
-------------------------------------------------------------------------------
    4 Si    x       3.8803      0.1462      0.0883
            y       0.1919      3.4640     -0.0504
            z       0.9700      0.0710      3.9894
-------------------------------------------------------------------------------
    5 Si    x       3.6836     -0.0042     -0.1440
            y      -0.0205      3.3091      0.0053
            z      -0.9348      0.0128      3.9993
-------------------------------------------------------------------------------
    6 Si    x       3.5247      0.0313      0.0120
            y      -0.0438      3.2848     -0.0045
            z      -0.5932     -0.0244      2.9245
-------------------------------------------------------------------------------
    7 Si    x       3.6211      0.0328      0.4809
            y      -0.0341      3.3376      0.0021
            z       0.4834      0.0328      3.5805
-------------------------------------------------------------------------------
    8 Si    x       3.6488     -0.0698     -0.4633
            y       0.0473      3.3193      0.0252
            z      -0.4791      0.0274      3.5474
-------------------------------------------------------------------------------
    9 Si    x       3.5508     -0.0505      0.0167
            y       0.0511      3.2809     -0.0112
            z       0.6061     -0.0091      2.9189
-------------------------------------------------------------------------------
   10 Si    x       3.3972      0.4004     -0.2589
            y       0.3596      3.5791     -0.3089
            z      -0.2598     -0.2165      3.0135
-------------------------------------------------------------------------------
   11 Si    x       3.1632     -0.2600     -0.0925
            y      -0.2528      3.4405      0.1432
            z      -0.0855      0.0610      2.7810
-------------------------------------------------------------------------------
   12 Si    x       3.4097     -0.3899      0.2619
            y      -0.4062      3.5623     -0.3198
            z       0.2802     -0.1913      2.9941
-------------------------------------------------------------------------------
   13 Si    x       3.1611      0.2488     -0.0803
            y       0.2521      3.4288     -0.1361
            z      -0.0816     -0.0618      2.7854
-------------------------------------------------------------------------------
   14 Si    x       3.4029      0.3745      0.2659
            y       0.3971      3.5463      0.3316
            z       0.2737      0.1965      3.0064
-------------------------------------------------------------------------------
   15 Si    x       3.7742     -0.2578     -0.1349
            y      -0.3977      3.5960      0.2993
            z      -0.2366      0.1711      3.0407
-------------------------------------------------------------------------------
   16 Si    x       3.2699     -0.1646      0.1231
            y      -0.1605      3.7296     -0.0435
            z       0.1209      0.0199      2.8804
-------------------------------------------------------------------------------
   17 Si    x       3.2628      0.2923     -0.1376
            y       0.2280      3.4213     -0.1733
            z      -0.1309     -0.0369      2.6620
-------------------------------------------------------------------------------
   18 Si    x       3.2330      0.2658      0.1488
            y       0.2157      3.4183      0.1786
            z       0.1395      0.0874      2.7370
-------------------------------------------------------------------------------
   19 Si    x       3.2775     -0.2583     -0.1395
            y      -0.2194      3.4113      0.1849
            z      -0.1401      0.0647      2.7186
-------------------------------------------------------------------------------
   20 Si    x       3.2575     -0.2946      0.1069
            y      -0.2306      3.4289     -0.1719
            z       0.1320     -0.0448      2.6609
-------------------------------------------------------------------------------
   21 Si    x       3.3171      0.3327     -0.0977
            y       0.1892      3.5368     -0.1029
            z      -0.0888      0.0096      3.0101
-------------------------------------------------------------------------------
   22 Si    x       3.2741      0.3229      0.1384
            y       0.1771      3.4283      0.1682
            z       0.1191      0.0358      2.6651
-------------------------------------------------------------------------------
   23 Si    x       3.2475     -0.2941     -0.1399
            y      -0.1957      3.4309      0.1785
            z      -0.1249      0.0407      2.6615
-------------------------------------------------------------------------------
   24 Si    x       3.2213     -0.2702      0.1513
            y      -0.1829      3.4303     -0.1714
            z       0.1249     -0.0891      2.7356
-------------------------------------------------------------------------------
   25 O3    x      -2.1304     -0.9905      0.5540
            y      -1.0183     -2.3271      0.5439
            z       0.5876      0.5669     -1.6379
-------------------------------------------------------------------------------
   26 O3    x      -2.0778     -0.9474     -0.2348
            y      -0.9965     -2.3882     -0.2578
            z      -0.3657     -0.2466     -1.5259
-------------------------------------------------------------------------------
   27 O2    x      -1.6981      0.7298      0.2225
            y       0.7254     -1.9940     -0.2521
            z       0.3227     -0.2544     -1.3233
-------------------------------------------------------------------------------
   28 O3    x      -2.0886      0.9757     -0.5600
            y       1.0023     -2.3540      0.5564
            z      -0.5835      0.5496     -1.6364
-------------------------------------------------------------------------------
   29 O2    x      -1.6844     -0.7210      0.2212
            y      -0.7073     -1.9898      0.2425
            z       0.3222      0.2485     -1.3255
-------------------------------------------------------------------------------
   30 O3    x      -2.0728     -0.9630     -0.5661
            y      -0.9776     -2.3338     -0.5596
            z      -0.5866     -0.5579     -1.6545
-------------------------------------------------------------------------------
   31 O3    x      -2.0834      0.9515      0.5430
            y       0.9489     -2.3413     -0.5071
            z       0.5640     -0.5036     -1.6080
-------------------------------------------------------------------------------
   32 O2    x      -1.7377      0.6827     -0.2464
            y       0.6947     -1.8968      0.2623
            z      -0.3460      0.2367     -1.3522
-------------------------------------------------------------------------------
   33 O3    x      -2.0274      0.0468      1.1126
            y      -0.0027     -1.2157     -0.0293
            z       1.3582     -0.0880     -3.3779
-------------------------------------------------------------------------------
   34 O3    x      -2.0795     -0.0045     -1.0830
            y      -0.0119     -1.2013     -0.0100
            z      -1.3674     -0.0221     -3.2819
-------------------------------------------------------------------------------
   35 O3    x      -2.0381      0.0301     -0.8935
            y       0.0254     -1.2176      0.0178
            z      -0.9408      0.0048     -2.8440
-------------------------------------------------------------------------------
   36 O2    x      -1.7326      0.0093      0.6962
            y       0.0119     -1.1527     -0.0312
            z       0.6573     -0.0393     -2.1614
-------------------------------------------------------------------------------
   37 O2    x      -1.7749      0.0215     -0.7407
            y       0.0051     -1.1402      0.0134
            z      -0.7099      0.0169     -2.1350
-------------------------------------------------------------------------------
   38 O3    x      -2.0825      0.0197      0.9108
            y      -0.0035     -1.2142     -0.0105
            z       0.9540     -0.0169     -2.8048
-------------------------------------------------------------------------------
   39 O2    x      -1.7314     -0.7422      0.2577
            y      -0.6872     -1.9931      0.2744
            z       0.3313      0.2663     -1.1905
-------------------------------------------------------------------------------
   40 O2    x      -1.6704     -0.7039     -0.3834
            y      -0.6537     -2.0171     -0.4073
            z      -0.3613     -0.3800     -1.2868
-------------------------------------------------------------------------------
   41 O2    x      -1.6786      0.7130      0.3873
            y       0.6348     -2.0160     -0.4086
            z       0.3572     -0.3756     -1.2849
-------------------------------------------------------------------------------
   42 O2    x      -1.7273      0.7474     -0.2561
            y       0.6807     -2.0094      0.2753
            z      -0.3347      0.2686     -1.1784
-------------------------------------------------------------------------------
   43 O2    x      -1.7096     -0.7135      0.3541
            y      -0.6660     -1.9885      0.3702
            z       0.3356      0.3486     -1.2712
-------------------------------------------------------------------------------
   44 O2    x      -1.7615     -0.7473     -0.2481
            y      -0.7064     -1.9612     -0.2711
            z      -0.3302     -0.2740     -1.1988
-------------------------------------------------------------------------------
   45 O2    x      -1.7472      0.7442      0.2507
            y       0.7052     -1.9691     -0.2731
            z       0.3325     -0.2693     -1.1963
-------------------------------------------------------------------------------
   46 O2    x      -1.6830      0.7125     -0.3805
            y       0.6726     -2.0020      0.4025
            z      -0.3561      0.3740     -1.2831
-------------------------------------------------------------------------------
   47 O2    x      -1.8999      0.0308     -0.6033
            y       0.0189     -1.1643      0.0068
            z      -0.3253      0.0115     -1.6829
-------------------------------------------------------------------------------
   48 O2    x      -1.9101      0.0025      0.5810
            y      -0.0054     -1.1611     -0.0104
            z       0.3173     -0.0116     -1.6720
-------------------------------------------------------------------------------
   49 O2    x      -1.1751      0.0683      0.0610
            y       0.0964     -2.4987     -0.0197
            z       0.0809     -0.0172     -1.1079
-------------------------------------------------------------------------------
   50 O3    x      -1.3059     -0.0399     -0.0882
            y      -0.0015     -3.2031     -0.1078
            z      -0.0976     -0.1113     -1.2066
-------------------------------------------------------------------------------
   51 O2    x      -1.1489     -0.0062      0.0629
            y      -0.0057     -2.5488     -0.0063
            z       0.0738     -0.0061     -1.0673
-------------------------------------------------------------------------------
   52 O2    x      -1.1745     -0.0060     -0.0650
            y      -0.0050     -2.4833     -0.0073
            z      -0.0830     -0.0057     -1.0899
-------------------------------------------------------------------------------
   53 O2    x      -2.3863     -0.0050      0.0042
            y       0.0167     -1.2400      0.0663
            z       0.0129      0.0472     -1.1005
-------------------------------------------------------------------------------
   54 O3    x      -2.9430     -0.1442     -0.0722
            y      -0.1430     -1.4100     -0.1069
            z      -0.0772     -0.0772     -1.2496
-------------------------------------------------------------------------------
   55 O2    x      -2.3498      0.0235     -0.0189
            y       0.0183     -1.2480     -0.0727
            z      -0.0376     -0.0526     -1.0842
-------------------------------------------------------------------------------
   56 O2    x      -2.3489      0.0037     -0.0199
            y      -0.0085     -1.2478      0.0711
            z      -0.0302      0.0533     -1.0851
-------------------------------------------------------------------------------
   57 O2    x      -1.2035     -0.1362     -0.0548
            y      -0.1045     -1.2897      0.0038
            z      -0.0613     -0.0008     -2.0307
-------------------------------------------------------------------------------
   58 O3    x      -1.3372     -0.1587     -0.0648
            y      -0.1263     -1.4500     -0.0954
            z      -0.0374     -0.0631     -2.5887
-------------------------------------------------------------------------------
   59 O2    x      -1.1781      0.1233      0.0167
            y       0.1053     -1.2687     -0.0001
            z       0.0183      0.0039     -2.0580
-------------------------------------------------------------------------------
   60 O2    x      -1.1981      0.1348      0.0686
            y       0.1140     -1.2959     -0.0053
            z       0.0644     -0.0084     -2.0163
-------------------------------------------------------------------------------
   61 O2    x      -1.1825     -0.1234      0.0106
            y      -0.1097     -1.2654      0.0030
            z       0.0044      0.0073     -2.0639
-------------------------------------------------------------------------------
   62 O2    x      -1.2060     -0.1379      0.0684
            y      -0.1210     -1.2929      0.0160
            z       0.0757      0.0195     -2.0176
-------------------------------------------------------------------------------
   63 O2    x      -1.1963      0.1207     -0.0139
            y       0.1104     -1.3010      0.0156
            z      -0.0209      0.0279     -2.0501
-------------------------------------------------------------------------------
   64 O2    x      -1.2126      0.1190     -0.0080
            y       0.1082     -1.2550      0.0446
            z       0.0024      0.0434     -2.0744
-------------------------------------------------------------------------------
   65 O2    x      -1.2194     -0.0102      0.0789
            y      -0.0251     -2.5301     -0.0088
            z       0.0916     -0.0071     -1.0015
-------------------------------------------------------------------------------
   66 O2    x      -1.2039     -0.0080     -0.0855
            y      -0.0216     -2.5230     -0.0081
            z      -0.0946     -0.0070     -1.0344
-------------------------------------------------------------------------------
   67 O2    x      -1.2384      0.0214      0.0713
            y       0.0506     -2.5495      0.0229
            z       0.0879      0.0289     -1.0140
-------------------------------------------------------------------------------
   68 O2    x      -1.2279      0.0298     -0.0751
            y       0.0487     -2.5205     -0.0150
            z      -0.0923     -0.0062     -1.0038
-------------------------------------------------------------------------------
   69 O2    x      -2.4194      0.0039     -0.0422
            y       0.0054     -1.2331      0.0657
            z      -0.0314      0.0382     -1.0375
-------------------------------------------------------------------------------
   70 O2    x      -2.4126      0.0132     -0.0424
            y       0.0112     -1.2315     -0.0677
            z      -0.0289     -0.0389     -1.0406
-------------------------------------------------------------------------------
   71 O2    x      -2.4500     -0.0527      0.0253
            y      -0.0207     -1.2287     -0.0637
            z       0.0273     -0.0319     -1.0389
-------------------------------------------------------------------------------
   72 O2    x      -2.4324     -0.0504      0.0630
            y      -0.0356     -1.2467      0.0654
            z       0.0519      0.0352     -1.0374
-------------------------------------------------------------------------------




  Elastic Constant Matrix: (Units=GPa)

-------------------------------------------------------------------------------
  Indices      1         2         3         4         5         6    
-------------------------------------------------------------------------------
       1     61.3525   39.9116   19.5162    0.9425    4.9517   -8.3734
       2     39.9116   91.3734   19.7577    0.9613    5.2459   -7.9740
       3     19.5162   19.7577   24.4824    0.1739    1.1180   -3.2584
       4      0.9425    0.9613    0.1739    9.9696   -0.3871    0.0479
       5      4.9517    5.2459    1.1180   -0.3871   23.0444    2.2959
       6     -8.3734   -7.9740   -3.2584    0.0479    2.2959   15.6915
-------------------------------------------------------------------------------


  Elastic Compliance Matrix: (Units=1/GPa)

-------------------------------------------------------------------------------
  Indices      1         2         3         4         5         6    
-------------------------------------------------------------------------------
       1    0.027490 -0.007951 -0.014183 -0.001790 -0.004267  0.008313
       2   -0.007951  0.016137 -0.006194 -0.000787 -0.001973  0.002962
       3   -0.014183 -0.006194  0.057192  0.000999  0.001608  0.000922
       4   -0.001790 -0.000787  0.000999  0.100634  0.002386 -0.001804
       5   -0.004267 -0.001973  0.001608  0.002386  0.045683 -0.009637
       6    0.008313  0.002962  0.000922 -0.001804 -0.009637  0.071277
-------------------------------------------------------------------------------

  Mechanical properties :

-------------------------------------------------------------------------------
  Convention :                    Reuss         Voigt         Hill
-------------------------------------------------------------------------------
  Bulk  Modulus (GPa)     =      22.64368      37.28657      29.96512
  Shear Modulus (GPa)     =      12.82742      16.27595      14.55169
-------------------------------------------------------------------------------
  Velocity S-wave (km/s)  =       2.57451       2.90000       2.74209
  Velocity P-wave (km/s)  =       4.53186       5.52085       5.05062
-------------------------------------------------------------------------------
  Compressibility (1/GPa) =    0.04416244
-------------------------------------------------------------------------------
  Stress axis :                     x             y             z
-------------------------------------------------------------------------------
  Youngs Moduli (GPa)     =      36.37699      61.97077      17.48483
-------------------------------------------------------------------------------
  Poissons Ratio (x)      =                     0.49276       0.24798
  Poissons Ratio (y)      =       0.28925                     0.10830
  Poissons Ratio (z)      =       0.51592       0.38385
-------------------------------------------------------------------------------


  Piezoelectric Strain Matrix: (Units=C/m**2)

-------------------------------------------------------------------------------
  Indices      1         2         3         4         5         6    
-------------------------------------------------------------------------------
       x    -0.08497   0.32253  -0.26423   0.13070   0.02475   0.35391
       y    -0.67969  -0.99126  -0.28268  -0.01904   0.19097   0.06251
       z    -0.11894  -0.14175  -0.12031   0.07888  -0.21163   0.01384
-------------------------------------------------------------------------------


  Piezoelectric Stress Matrix: (Units=10**-11 C/N)

-------------------------------------------------------------------------------
  Indices      1         2         3         4         5         6    
-------------------------------------------------------------------------------
       x     0.14497   0.84134  -1.54082   1.22076  -0.26667   2.47567
       y    -0.70546  -0.90167  -0.00416   0.01413   1.24772  -0.61973
       z     0.04406  -0.01999  -0.45649   0.76123  -0.90194   0.13640
-------------------------------------------------------------------------------


  Static dielectric constant tensor : 

-------------------------------------------------------------------------------
              x         y         z
-------------------------------------------------------------------------------
       x     3.96876   0.00018   0.01332
       y     0.00018   4.03966   0.03565
       z     0.01332   0.03565   3.39876
--------------------------------------------------------------------------------

  High frequency dielectric constant tensor : 

-------------------------------------------------------------------------------
              x         y         z
-------------------------------------------------------------------------------
       x     1.67273  -0.00054   0.00053
       y    -0.00054   1.67986   0.00061
       z     0.00053   0.00061   1.60814
-------------------------------------------------------------------------------

  Static refractive indices : 

-------------------------------------------------------------------------------
    1 =    1.84295      2 =    1.99225      3 =    2.01039
-------------------------------------------------------------------------------

  High frequency refractive indices : 

-------------------------------------------------------------------------------
    1 =    1.26812      2 =    1.29333      3 =    1.29611
-------------------------------------------------------------------------------


  Time to end of optimisation =       8.1729 seconds


  Peak dynamic memory used =       5.01 MB 


  Timing analysis for GULP :

--------------------------------------------------------------------------------
  Task / Subroutine                                          Time (Seconds)
--------------------------------------------------------------------------------
  Calculation of reciprocal space energy and derivatives          0.4665
  Calculation of real space energy and derivatives                5.0136
  Calculation of three-body energy and derivatives                0.4762
  Calculation and manipulation of Hessian matrix                  2.3253
  Calculation of matrix inversion                                 0.0202
  Global summation overhead                                       0.0001
--------------------------------------------------------------------------------
  Total CPU time                                                  8.1729
--------------------------------------------------------------------------------


  Dump file written as POSCAR_N0003.vasp.grs
  CIF file written as POSCAR_N0003.vasp.cif


  Job Finished at 07:45.44 31st October    2025                               

