********************************************************************************
*                       GENERAL UTILITY LATTICE PROGRAM                        *
*                                 Julian Gale                                  *
*                       Curtin Institute for Computation                       *
*                    School of Molecular and Life Sciences                     *
*                    Curtin University, Western Australia                      *
********************************************************************************
* Version = 6.1.2 * Last modified =   3rd November 2022                        *
********************************************************************************
*  optimise     - perform optimisation run                                     *
*  conp         - constant pressure calculation                                *
*  property     - calculate properties for final geometry                      *
********************************************************************************

  Job Started  at 07:45.44 31st October    2025                               

  Number of CPUs =     1


  Total number of configurations input =      1

********************************************************************************
*  Input for Configuration =   1 : POSCAR_N0004.vasp                           *
********************************************************************************

  Formula = Ge4Si20O48                                                  

  Number of irreducible atoms/shells =     120


  Total number atoms/shells =     120

  Dimensionality = 3               :  Bulk   



  Cartesian lattice vectors (Angstroms) :

       17.182800    0.000000    0.000000
        0.000000    7.513760    0.000000
        0.000000    0.000000   10.447700

  Cell parameters (Angstroms/Degrees):

  a =      17.1828    alpha =  90.0000
  b =       7.5138    beta  =  90.0000
  c =      10.4477    gamma =  90.0000

  Initial cell volume =        1348.875752 Angs**3

  Temperature of configuration =   0.00     K 

  Pressure of configuration =         0.000 GPa 

  Fractional coordinates of asymmetric unit :

--------------------------------------------------------------------------------
   No.  Atomic       x           y          z         Charge      Occupancy
        Label      (Frac)      (Frac)     (Frac)        (e)         (Frac)  
--------------------------------------------------------------------------------
      1 Ge    c    0.052090    0.000000    0.372270     4.00000    1.000000    
      2 Ge    c    0.552090 *  0.000000 *  0.627730 *   4.00000    1.000000    
      3 Ge    c    0.339810 *  0.706090 *  0.273440 *   4.00000    1.000000    
      4 Ge    c    0.660660 *  0.294090 *  0.017440 *   4.00000    1.000000    
      5 Si    c    0.447910 *  0.000000 *  0.372270 *   4.00000    1.000000    
      6 Si    c    0.947910 *  0.000000 *  0.627730 *   4.00000    1.000000    
      7 Si    c    0.556730 *  0.000000 *  0.122130 *   4.00000    1.000000    
      8 Si    c    0.943270 *  0.000000 *  0.122130 *   4.00000    1.000000    
      9 Si    c    0.443270 *  0.000000 *  0.877870 *   4.00000    1.000000    
     10 Si    c    0.056730 *  0.000000 *  0.877870 *   4.00000    1.000000    
     11 Si    c    0.160190 *  0.293910 *  0.273440 *   4.00000    1.000000    
     12 Si    c    0.839810 *  0.293910 *  0.726560 *   4.00000    1.000000    
     13 Si    c    0.660190 *  0.706090 *  0.726560 *   4.00000    1.000000    
     14 Si    c    0.839810 *  0.706090 *  0.726560 *   4.00000    1.000000    
     15 Si    c    0.660190 *  0.293910 *  0.726560 *   4.00000    1.000000    
     16 Si    c    0.160190 *  0.706090 *  0.273440 *   4.00000    1.000000    
     17 Si    c    0.339810 *  0.293910 *  0.273440 *   4.00000    1.000000    
     18 Si    c    0.839340 *  0.705910 *  0.017440 *   4.00000    1.000000    
     19 Si    c    0.339340 *  0.294090 *  0.982560 *   4.00000    1.000000    
     20 Si    c    0.160660 *  0.705910 *  0.982560 *   4.00000    1.000000    
     21 Si    c    0.339340 *  0.705910 *  0.982560 *   4.00000    1.000000    
     22 Si    c    0.160660 *  0.294090 *  0.982560 *   4.00000    1.000000    
     23 Si    c    0.660660 *  0.705910 *  0.017440 *   4.00000    1.000000    
     24 Si    c    0.839340 *  0.294090 *  0.017440 *   4.00000    1.000000    
     25 O3    c    0.106570 *  0.174340 *  0.366200 *   1.33043    1.000000    
     26 O3    c    0.393430 *  0.825660 *  0.366200 *   1.33043    1.000000    
     27 O2    c    0.893430 *  0.174340 *  0.633800 *   0.87073    1.000000    
     28 O3    c    0.606570 *  0.825660 *  0.633800 *   1.33043    1.000000    
     29 O2    c    0.893430 *  0.825660 *  0.633800 *   0.87073    1.000000    
     30 O3    c    0.606570 *  0.174340 *  0.633800 *   1.33043    1.000000    
     31 O3    c    0.106570 *  0.825660 *  0.366200 *   1.33043    1.000000    
     32 O2    c    0.393430 *  0.174340 *  0.366200 *   0.87073    1.000000    
     33 O3    c    0.000000 *  0.000000 *  0.500000 *   1.33043    1.000000    
     34 O3    c    0.500000 *  0.000000 *  0.500000 *   1.33043    1.000000    
     35 O3    c    0.994520 *  0.000000 *  0.250840 *   1.33043    1.000000    
     36 O2    c    0.505480 *  0.000000 *  0.250840 *   0.87073    1.000000    
     37 O2    c    0.005480 *  0.000000 *  0.749160 *   0.87073    1.000000    
     38 O3    c    0.494520 *  0.000000 *  0.749160 *   1.33043    1.000000    
     39 O3    c    0.610230 *  0.175520 *  0.115390 *   1.33043    1.000000    
     40 O2    c    0.889770 *  0.824480 *  0.115390 *   0.87073    1.000000    
     41 O2    c    0.389770 *  0.175520 *  0.884610 *   0.87073    1.000000    
     42 O2    c    0.110230 *  0.824480 *  0.884610 *   0.87073    1.000000    
     43 O2    c    0.389770 *  0.824480 *  0.884610 *   0.87073    1.000000    
     44 O2    c    0.110230 *  0.175520 *  0.884610 *   0.87073    1.000000    
     45 O2    c    0.610230 *  0.824480 *  0.115390 *   0.87073    1.000000    
     46 O2    c    0.889770 *  0.175520 *  0.115390 *   0.87073    1.000000    
     47 O2    c    0.500000 *  0.000000 *  0.000000 *   0.87073    1.000000    
     48 O2    c    0.000000 *  0.000000 *  0.000000 *   0.87073    1.000000    
     49 O2    c    0.151750 *  0.500000 *  0.313330 *   0.87073    1.000000    
     50 O3    c    0.348250 *  0.500000 *  0.313330 *   1.33043    1.000000    
     51 O2    c    0.848250 *  0.500000 *  0.686670 *   0.87073    1.000000    
     52 O2    c    0.651750 *  0.500000 *  0.686670 *   0.87073    1.000000    
     53 O2    c    0.250000 *  0.234950 *  0.285720 *   0.87073    1.000000    
     54 O3    c    0.250000 *  0.765050 *  0.285720 *   1.33043    1.000000    
     55 O2    c    0.750000 *  0.234950 *  0.714280 *   0.87073    1.000000    
     56 O2    c    0.750000 *  0.765050 *  0.714280 *   0.87073    1.000000    
     57 O2    c    0.131410 *  0.268650 *  0.127790 *   0.87073    1.000000    
     58 O3    c    0.368590 *  0.731350 *  0.127790 *   1.33043    1.000000    
     59 O2    c    0.868590 *  0.268650 *  0.872210 *   0.87073    1.000000    
     60 O2    c    0.631410 *  0.731350 *  0.872210 *   0.87073    1.000000    
     61 O2    c    0.868590 *  0.731350 *  0.872210 *   0.87073    1.000000    
     62 O3    c    0.631410 *  0.268650 *  0.872210 *   1.33043    1.000000    
     63 O2    c    0.131410 *  0.731350 *  0.127790 *   0.87073    1.000000    
     64 O2    c    0.368590 *  0.268650 *  0.127790 *   0.87073    1.000000    
     65 O3    c    0.653920 *  0.500000 *  0.058200 *   1.33043    1.000000    
     66 O2    c    0.846080 *  0.500000 *  0.058200 *   0.87073    1.000000    
     67 O2    c    0.346080 *  0.500000 *  0.941800 *   0.87073    1.000000    
     68 O2    c    0.153920 *  0.500000 *  0.941800 *   0.87073    1.000000    
     69 O3    c    0.750000 *  0.231060 *  0.027050 *   1.33043    1.000000    
     70 O2    c    0.750000 *  0.768940 *  0.027050 *   0.87073    1.000000    
     71 O2    c    0.250000 *  0.231060 *  0.972950 *   0.87073    1.000000    
     72 O2    c    0.250000 *  0.768940 *  0.972950 *   0.87073    1.000000    
     73 O3    s    0.106570 *  0.174340 *  0.366200 *  -3.33043    1.000000    
     74 O3    s    0.393430 *  0.825660 *  0.366200 *  -3.33043    1.000000    
     75 O2    s    0.893430 *  0.174340 *  0.633800 *  -2.87073    1.000000    
     76 O3    s    0.606570 *  0.825660 *  0.633800 *  -3.33043    1.000000    
     77 O2    s    0.893430 *  0.825660 *  0.633800 *  -2.87073    1.000000    
     78 O3    s    0.606570 *  0.174340 *  0.633800 *  -3.33043    1.000000    
     79 O3    s    0.106570 *  0.825660 *  0.366200 *  -3.33043    1.000000    
     80 O2    s    0.393430 *  0.174340 *  0.366200 *  -2.87073    1.000000    
     81 O3    s    0.000000 *  0.000000 *  0.500000 *  -3.33043    1.000000    
     82 O3    s    0.500000 *  0.000000 *  0.500000 *  -3.33043    1.000000    
     83 O3    s    0.994520 *  0.000000 *  0.250840 *  -3.33043    1.000000    
     84 O2    s    0.505480 *  0.000000 *  0.250840 *  -2.87073    1.000000    
     85 O2    s    0.005480 *  0.000000 *  0.749160 *  -2.87073    1.000000    
     86 O3    s    0.494520 *  0.000000 *  0.749160 *  -3.33043    1.000000    
     87 O3    s    0.610230 *  0.175520 *  0.115390 *  -3.33043    1.000000    
     88 O2    s    0.889770 *  0.824480 *  0.115390 *  -2.87073    1.000000    
     89 O2    s    0.389770 *  0.175520 *  0.884610 *  -2.87073    1.000000    
     90 O2    s    0.110230 *  0.824480 *  0.884610 *  -2.87073    1.000000    
     91 O2    s    0.389770 *  0.824480 *  0.884610 *  -2.87073    1.000000    
     92 O2    s    0.110230 *  0.175520 *  0.884610 *  -2.87073    1.000000    
     93 O2    s    0.610230 *  0.824480 *  0.115390 *  -2.87073    1.000000    
     94 O2    s    0.889770 *  0.175520 *  0.115390 *  -2.87073    1.000000    
     95 O2    s    0.500000 *  0.000000 *  0.000000 *  -2.87073    1.000000    
     96 O2    s    0.000000 *  0.000000 *  0.000000 *  -2.87073    1.000000    
     97 O2    s    0.151750 *  0.500000 *  0.313330 *  -2.87073    1.000000    
     98 O3    s    0.348250 *  0.500000 *  0.313330 *  -3.33043    1.000000    
     99 O2    s    0.848250 *  0.500000 *  0.686670 *  -2.87073    1.000000    
    100 O2    s    0.651750 *  0.500000 *  0.686670 *  -2.87073    1.000000    
    101 O2    s    0.250000 *  0.234950 *  0.285720 *  -2.87073    1.000000    
    102 O3    s    0.250000 *  0.765050 *  0.285720 *  -3.33043    1.000000    
    103 O2    s    0.750000 *  0.234950 *  0.714280 *  -2.87073    1.000000    
    104 O2    s    0.750000 *  0.765050 *  0.714280 *  -2.87073    1.000000    
    105 O2    s    0.131410 *  0.268650 *  0.127790 *  -2.87073    1.000000    
    106 O3    s    0.368590 *  0.731350 *  0.127790 *  -3.33043    1.000000    
    107 O2    s    0.868590 *  0.268650 *  0.872210 *  -2.87073    1.000000    
    108 O2    s    0.631410 *  0.731350 *  0.872210 *  -2.87073    1.000000    
    109 O2    s    0.868590 *  0.731350 *  0.872210 *  -2.87073    1.000000    
    110 O3    s    0.631410 *  0.268650 *  0.872210 *  -3.33043    1.000000    
    111 O2    s    0.131410 *  0.731350 *  0.127790 *  -2.87073    1.000000    
    112 O2    s    0.368590 *  0.268650 *  0.127790 *  -2.87073    1.000000    
    113 O3    s    0.653920 *  0.500000 *  0.058200 *  -3.33043    1.000000    
    114 O2    s    0.846080 *  0.500000 *  0.058200 *  -2.87073    1.000000    
    115 O2    s    0.346080 *  0.500000 *  0.941800 *  -2.87073    1.000000    
    116 O2    s    0.153920 *  0.500000 *  0.941800 *  -2.87073    1.000000    
    117 O3    s    0.750000 *  0.231060 *  0.027050 *  -3.33043    1.000000    
    118 O2    s    0.750000 *  0.768940 *  0.027050 *  -2.87073    1.000000    
    119 O2    s    0.250000 *  0.231060 *  0.972950 *  -2.87073    1.000000    
    120 O2    s    0.250000 *  0.768940 *  0.972950 *  -2.87073    1.000000    
--------------------------------------------------------------------------------



********************************************************************************
*  General input information                                                   *
********************************************************************************

  Species output for all configurations : 

--------------------------------------------------------------------------------
  Species    Type    Atomic    Atomic    Charge       Radii (Angs)     Library
                     Number     Mass       (e)     Cova   Ionic  VDW   Symbol
--------------------------------------------------------------------------------
    Ge       Core       32      72.61   4.000000   1.170  0.000  1.750 Ge       
    Si       Core       14      28.09   4.000000   1.200  0.000  2.100 Si       
    O1       Core        8      16.00   1.733957   0.730  0.000  0.000 O1       
    O2       Core        8      16.00   0.870733   0.730  0.000  1.360 O2       
    O3       Core        8      16.00   1.330431   0.730  0.000  1.360 O3       
    O1       Shell       8       0.00  -3.733957   0.730  0.000  0.000 O1       
    O2       Shell       8       0.00  -2.870733   0.730  0.000  0.000 O2       
    O3       Shell       8       0.00  -3.330431   0.730  0.000  0.000 O3       
--------------------------------------------------------------------------------


  Lattice summation method               =    Ewald          (3-D)
                                         =    Parry          (2-D)
                                         =    Saunders et al (1-D)
  Accuracy factor for lattice sums       =   12.000


  Analytic derivatives to be used

  Time limit = Infinity

  Maximum range for interatomic potentials =    100000.000000 Angstroms

  General interatomic potentials :

--------------------------------------------------------------------------------
Atom  Types   Potential      Parameter       Value         Units   Cutoffs(Ang)
  1     2                                                            Min /  Max 
--------------------------------------------------------------------------------
Si   c O1   s Buckingham    Buckingham A     1315.2478    eV        0.000 16.000
                            Buckingham rho  0.31775900    Ang       
                            Buckingham C     10.141118    eV*Ang^6  
--------------------------------------------------------------------------------
Si   c O2   s Buckingham    Buckingham A     1315.2478    eV        0.000 16.000
                            Buckingham rho  0.31775900    Ang       
                            Buckingham C     10.141118    eV*Ang^6  
--------------------------------------------------------------------------------
Si   c O3   s Buckingham    Buckingham A     1315.2478    eV        0.000 16.000
                            Buckingham rho  0.31775900    Ang       
                            Buckingham C     10.141118    eV*Ang^6  
--------------------------------------------------------------------------------
Ge   c O1   s Buckingham    Buckingham A     1497.3996    eV        0.000 16.000
                            Buckingham rho  0.32564600    Ang       
                            Buckingham C     16.808599    eV*Ang^6  
--------------------------------------------------------------------------------
Ge   c O2   s Buckingham    Buckingham A     1497.3996    eV        0.000 16.000
                            Buckingham rho  0.32564600    Ang       
                            Buckingham C     16.808599    eV*Ang^6  
--------------------------------------------------------------------------------
Ge   c O3   s Buckingham    Buckingham A     1497.3996    eV        0.000 16.000
                            Buckingham rho  0.32564600    Ang       
                            Buckingham C     16.808599    eV*Ang^6  
--------------------------------------------------------------------------------
O1   s O1   s Buckingham    Buckingham A     22764.000    eV        0.000 16.000
                            Buckingham rho  0.14900000    Ang       
                            Buckingham C     10.937044    eV*Ang^6  
--------------------------------------------------------------------------------
O1   s O2   s Buckingham    Buckingham A     22764.000    eV        0.000 16.000
                            Buckingham rho  0.14900000    Ang       
                            Buckingham C     10.937044    eV*Ang^6  
--------------------------------------------------------------------------------
O1   s O3   s Buckingham    Buckingham A     22764.000    eV        0.000 16.000
                            Buckingham rho  0.14900000    Ang       
                            Buckingham C     10.937044    eV*Ang^6  
--------------------------------------------------------------------------------
O2   s O2   s Buckingham    Buckingham A     22764.000    eV        0.000 16.000
                            Buckingham rho  0.14900000    Ang       
                            Buckingham C     10.937044    eV*Ang^6  
--------------------------------------------------------------------------------
O2   s O3   s Buckingham    Buckingham A     22764.000    eV        0.000 16.000
                            Buckingham rho  0.14900000    Ang       
                            Buckingham C     10.937044    eV*Ang^6  
--------------------------------------------------------------------------------
O3   s O3   s Buckingham    Buckingham A     22764.000    eV        0.000 16.000
                            Buckingham rho  0.14900000    Ang       
                            Buckingham C     10.937044    eV*Ang^6  
--------------------------------------------------------------------------------
O1   c O1   s Spring (c-s)  Spring k 2       180.31577    eV*Ang^-2 0.000  0.800
                            Spring k 4       0.0000000    eV*Ang^-4 
--------------------------------------------------------------------------------
O2   c O2   s Spring (c-s)  Spring k 2       75.969800    eV*Ang^-2 0.000  0.800
                            Spring k 4       0.0000000    eV*Ang^-4 
--------------------------------------------------------------------------------
O3   c O3   s Spring (c-s)  Spring k 2       128.14270    eV*Ang^-2 0.000  0.800
                            Spring k 4       0.0000000    eV*Ang^-4 
--------------------------------------------------------------------------------

  General Three-body potentials :

--------------------------------------------------------------------------------
  Atoms       Potential      Parameter       Value         Units   Cutoffs(Ang)
  1 / 2 / 3                                                          Min /  Max 
--------------------------------------------------------------------------------
Si    core    Harmonic      Three-body cnst  1.2614000    eV*rad^-2 0.000  1.900
O1    shel                  Three-body angl  109.47000    degrees   0.000  1.900
O1    shel                  Three-body k4    0.0000000    eV*rad^-4 0.000  3.500
                            Three-body k3    0.0000000    eV*rad^-3 
--------------------------------------------------------------------------------
Si    core    Harmonic      Three-body cnst  1.2614000    eV*rad^-2 0.000  1.900
O1    shel                  Three-body angl  109.47000    degrees   0.000  1.900
õ(1   shel                  Three-body k4    0.0000000    eV*rad^-4 0.000  3.500
                            Three-body k3    0.0000000    eV*rad^-3 
--------------------------------------------------------------------------------
Si    core    Harmonic      Three-body cnst  1.2614000    eV*rad^-2 0.000  1.900
õ(1   shel                  Three-body angl  109.47000    degrees   0.000  1.900
õ(1   shel                  Three-body k4    0.0000000    eV*rad^-4 0.000  3.500
                            Three-body k3    0.0000000    eV*rad^-3 
--------------------------------------------------------------------------------
Si    core    Harmonic      Three-body cnst  1.2614000    eV*rad^-2 0.000  1.900
O1    shel                  Three-body angl  109.47000    degrees   0.000  1.900
O2    shel                  Three-body k4    0.0000000    eV*rad^-4 0.000  3.500
                            Three-body k3    0.0000000    eV*rad^-3 
--------------------------------------------------------------------------------
Si    core    Harmonic      Three-body cnst  1.2614000    eV*rad^-2 0.000  1.900
O1    shel                  Three-body angl  109.47000    degrees   0.000  1.900
õ(2   shel                  Three-body k4    0.0000000    eV*rad^-4 0.000  3.500
                            Three-body k3    0.0000000    eV*rad^-3 
--------------------------------------------------------------------------------
Si    core    Harmonic      Three-body cnst  1.2614000    eV*rad^-2 0.000  1.900
O2    shel                  Three-body angl  109.47000    degrees   0.000  1.900
õ(1   shel                  Three-body k4    0.0000000    eV*rad^-4 0.000  3.500
                            Three-body k3    0.0000000    eV*rad^-3 
--------------------------------------------------------------------------------
Si    core    Harmonic      Three-body cnst  1.2614000    eV*rad^-2 0.000  1.900
õ(1   shel                  Three-body angl  109.47000    degrees   0.000  1.900
õ(2   shel                  Three-body k4    0.0000000    eV*rad^-4 0.000  3.500
                            Three-body k3    0.0000000    eV*rad^-3 
--------------------------------------------------------------------------------
Si    core    Harmonic      Three-body cnst  1.2614000    eV*rad^-2 0.000  1.900
O2    shel                  Three-body angl  109.47000    degrees   0.000  1.900
O2    shel                  Three-body k4    0.0000000    eV*rad^-4 0.000  3.500
                            Three-body k3    0.0000000    eV*rad^-3 
--------------------------------------------------------------------------------
Si    core    Harmonic      Three-body cnst  1.2614000    eV*rad^-2 0.000  1.900
O2    shel                  Three-body angl  109.47000    degrees   0.000  1.900
õ(2   shel                  Three-body k4    0.0000000    eV*rad^-4 0.000  3.500
                            Three-body k3    0.0000000    eV*rad^-3 
--------------------------------------------------------------------------------
Si    core    Harmonic      Three-body cnst  1.2614000    eV*rad^-2 0.000  1.900
õ(2   shel                  Three-body angl  109.47000    degrees   0.000  1.900
õ(2   shel                  Three-body k4    0.0000000    eV*rad^-4 0.000  3.500
                            Three-body k3    0.0000000    eV*rad^-3 
--------------------------------------------------------------------------------

********************************************************************************
*  Output for configuration   1 : POSCAR_N0004.vasp                            *
********************************************************************************


  Components of energy : 

--------------------------------------------------------------------------------
  Interatomic potentials     =         768.32008182 eV    
  Three-body potentials      =           0.01138956 eV    
  Monopole - monopole (real) =       -2676.00317478 eV    
  Monopole - monopole (recip)=       -1115.35404472 eV    
  Monopole - monopole (total)=       -3791.35721950 eV    
--------------------------------------------------------------------------------
  Total lattice energy       =       -3023.02574812 eV    
--------------------------------------------------------------------------------
  Total lattice energy       =         -291675.7735 kJ/(mole unit cells)
--------------------------------------------------------------------------------


  Number of variables =      363

  Maximum number of calculations  =          1000
  Maximum Hessian update interval =            10
  Maximum step size               =   0.100000000
  Maximum parameter tolerance     =   0.000010000
  Maximum function  tolerance     =   0.000010000
  Maximum gradient  tolerance     =   0.001000000
  Maximum gradient  component     =   0.010000000

  Symmetry not applied to optimisation

  Cell parameters to be optimised using strains

  Newton-Raphson optimiser to be used

  BFGS hessian update to be used

  Lower half triangular hessian to be used

  Minimiser to switch to RFO
  When gradient norm is less than     0.050000

  Dumpfile to be written after every cycle

  Start of bulk optimisation :

  Cycle:      0 Energy:     -3023.025748  Gnorm:      4.463581  CPU:    0.117
  ** Hessian calculated **
  Cycle:      1 Energy:     -3054.380372  Gnorm:      1.024082  CPU:    0.252
  ** Hessian calculated **
  Cycle:      2 Energy:     -3059.465589  Gnorm:      0.444126  CPU:    0.518
  ** Hessian calculated **
  Cycle:      3 Energy:     -3059.942865  Gnorm:      0.263065  CPU:    0.724
  Cycle:      4 Energy:     -3060.138020  Gnorm:      0.184496  CPU:    0.844
  Cycle:      5 Energy:     -3060.341656  Gnorm:      0.146482  CPU:    0.972
  Cycle:      6 Energy:     -3060.532061  Gnorm:      0.114452  CPU:    1.100
  Cycle:      7 Energy:     -3060.639086  Gnorm:      0.092659  CPU:    1.208
  Cycle:      8 Energy:     -3060.700813  Gnorm:      0.069074  CPU:    1.316
  Cycle:      9 Energy:     -3060.734834  Gnorm:      0.055613  CPU:    1.426
  Cycle:     10 Energy:     -3060.756908  Gnorm:      0.047126  CPU:    1.554
  ** Hessian has required structure
  Cycle:     11 Energy:     -3060.775178  Gnorm:      0.106096  CPU:    1.710
  ** Hessian has required structure
  Cycle:     12 Energy:     -3060.803276  Gnorm:      0.079839  CPU:    1.886
  ** Hessian has wrong structure
  ** Imaginary eigenvectors =   4
  ** Hessian has wrong structure
  ** Imaginary eigenvectors =   4
  Cycle:     13 Energy:     -3060.813036  Gnorm:      0.079710  CPU:    2.509
  ** Hessian has wrong structure
  ** Imaginary eigenvectors =   4
  ** Hessian has wrong structure
  ** Imaginary eigenvectors =   3
  Cycle:     14 Energy:     -3060.829917  Gnorm:      0.079696  CPU:    3.035
  ** Hessian has wrong structure
  ** Imaginary eigenvectors =   3
  ** Hessian has wrong structure
  ** Imaginary eigenvectors =   3
  Cycle:     15 Energy:     -3060.841524  Gnorm:      0.080708  CPU:    3.557
  ** Hessian has wrong structure
  ** Imaginary eigenvectors =   2
  ** Hessian has wrong structure
  ** Imaginary eigenvectors =   2
  Cycle:     16 Energy:     -3060.867941  Gnorm:      0.083493  CPU:    4.150
  ** Hessian has wrong structure
  ** Imaginary eigenvectors =   1
  ** Hessian has required structure
  Cycle:     17 Energy:     -3061.088487  Gnorm:      0.066620  CPU:    4.612
  ** Hessian has required structure
  Cycle:     18 Energy:     -3061.306895  Gnorm:      0.045219  CPU:    4.803
  ** Hessian has required structure
  Cycle:     19 Energy:     -3061.401213  Gnorm:      0.049353  CPU:    4.975
  ** Hessian has required structure
  Cycle:     20 Energy:     -3061.465224  Gnorm:      0.032726  CPU:    5.127
  ** Hessian has required structure
  Cycle:     21 Energy:     -3061.491349  Gnorm:      0.039351  CPU:    5.318
  ** Hessian has required structure
  Cycle:     22 Energy:     -3061.536711  Gnorm:      0.031795  CPU:    5.468
  ** Hessian has required structure
  Cycle:     23 Energy:     -3061.551123  Gnorm:      0.027759  CPU:    5.639
  ** Hessian has required structure
  Cycle:     24 Energy:     -3061.573385  Gnorm:      0.020689  CPU:    5.829
  ** Hessian has required structure
  Cycle:     25 Energy:     -3061.588008  Gnorm:      0.020097  CPU:    5.999
  ** Hessian has required structure
  Cycle:     26 Energy:     -3061.599339  Gnorm:      0.020121  CPU:    6.169
  ** Hessian has required structure
  Cycle:     27 Energy:     -3061.629233  Gnorm:      0.019618  CPU:    6.427
  ** Hessian has required structure
  Cycle:     28 Energy:     -3061.639746  Gnorm:      0.014025  CPU:    6.599
  ** Hessian has required structure
  Cycle:     29 Energy:     -3061.644978  Gnorm:      0.008700  CPU:    6.770
  ** Hessian has required structure
  Cycle:     30 Energy:     -3061.647628  Gnorm:      0.004714  CPU:    6.942
  ** Hessian has required structure
  Cycle:     31 Energy:     -3061.648556  Gnorm:      0.003417  CPU:    7.115
  ** Hessian has required structure
  Cycle:     32 Energy:     -3061.648878  Gnorm:      0.000948  CPU:    7.287
  ** Hessian has required structure
  Cycle:     33 Energy:     -3061.648982  Gnorm:      0.000911  CPU:    7.459
  ** Hessian has required structure
  Cycle:     34 Energy:     -3061.649006  Gnorm:      0.000420  CPU:    7.631
  ** Hessian has required structure
  Cycle:     35 Energy:     -3061.649015  Gnorm:      0.000330  CPU:    7.803
  ** Hessian has required structure
  Cycle:     36 Energy:     -3061.649018  Gnorm:      0.000230  CPU:    7.955
  ** Hessian has required structure
  Cycle:     37 Energy:     -3061.649019  Gnorm:      0.000183  CPU:    8.200
  ** Hessian has required structure
  Cycle:     38 Energy:     -3061.649020  Gnorm:      0.000142  CPU:    8.352
  ** Hessian has required structure
  Cycle:     39 Energy:     -3061.649020  Gnorm:      0.000107  CPU:    8.504
  ** Hessian has required structure
  Cycle:     40 Energy:     -3061.649020  Gnorm:      0.000079  CPU:    8.657
  ** Hessian has required structure


  **** Optimisation achieved ****


  Final energy =   -3061.64902054 eV      
  Final Gnorm  =       0.00005682

  Components of energy : 

--------------------------------------------------------------------------------
  Interatomic potentials     =         814.41019190 eV    
  Three-body potentials      =           0.16413424 eV    
  Monopole - monopole (real) =       -2174.01188512 eV    
  Monopole - monopole (recip)=       -1702.21146157 eV    
  Monopole - monopole (total)=       -3876.22334669 eV    
--------------------------------------------------------------------------------
  Total lattice energy       =       -3061.64902054 eV    
--------------------------------------------------------------------------------
  Total lattice energy       =         -295402.3289 kJ/(mole unit cells)
--------------------------------------------------------------------------------

  Final fractional coordinates of atoms :

--------------------------------------------------------------------------------
   No.  Atomic        x           y          z          Radius
        Label       (Frac)      (Frac)     (Frac)       (Angs) 
--------------------------------------------------------------------------------
     1  Ge    c     0.052090    0.000000    0.372270    0.000000
     2  Ge    c     0.558451    0.019397    0.603718    0.000000
     3  Ge    c     0.340272    0.720775    0.274600    0.000000
     4  Ge    c     0.658165    0.325349    0.015144    0.000000
     5  Si    c     0.455737    0.009095    0.345734    0.000000
     6  Si    c     0.956810    0.013285    0.642178    0.000000
     7  Si    c     0.554264    0.017497    0.089534    0.000000
     8  Si    c     0.943881    0.015546    0.127762    0.000000
     9  Si    c     0.444438    0.017199    0.848718    0.000000
    10  Si    c     0.060344    0.007660    0.894186    0.000000
    11  Si    c     0.171046    0.290632    0.269452    0.000000
    12  Si    c     0.843964    0.310325    0.712989    0.000000
    13  Si    c     0.672063    0.724886    0.705283    0.000000
    14  Si    c     0.849629    0.710513    0.709973    0.000000
    15  Si    c     0.666924    0.317546    0.705974    0.000000
    16  Si    c     0.159992    0.695243    0.275907    0.000000
    17  Si    c     0.349527    0.311146    0.265670    0.000000
    18  Si    c     0.845363    0.711179    0.016335    0.000000
    19  Si    c     0.347439    0.322742    0.959258    0.000000
    20  Si    c     0.161903    0.699892    0.968153    0.000000
    21  Si    c     0.339632    0.722845    0.961094    0.000000
    22  Si    c     0.168947    0.302409    0.964555    0.000000
    23  Si    c     0.666736    0.731686    0.008476    0.000000
    24  Si    c     0.839202    0.314779    0.021995    0.000000
    25  O3    c     0.120266    0.161882    0.354551    0.000000
    26  O3    c     0.397689    0.849342    0.370588    0.000000
    27  O2    c     0.899407    0.179302    0.634559    0.000000
    28  O3    c     0.618584    0.840808    0.615661    0.000000
    29  O2    c     0.906667    0.835581    0.627820    0.000000
    30  O3    c     0.611299    0.208894    0.614653    0.000000
    31  O3    c     0.095434    0.799271    0.354293    0.000000
    32  O2    c     0.405328    0.186440    0.347657    0.000000
    33  O3    c     0.020623    0.021218    0.531630    0.000000
    34  O3    c     0.523997    0.017842    0.446361    0.000000
    35  O3    c     0.972015    0.020062    0.275261    0.000000
    36  O2    c     0.492213    0.977918    0.201378    0.000000
    37  O2    c     0.998047    0.016035    0.782053    0.000000
    38  O3    c     0.478010    0.011327    0.703553    0.000000
    39  O3    c     0.593538    0.204863    0.107025    0.000000
    40  O2    c     0.896120    0.838430    0.103877    0.000000
    41  O2    c     0.400664    0.201569    0.868640    0.000000
    42  O2    c     0.106389    0.824882    0.885119    0.000000
    43  O2    c     0.386533    0.854562    0.867735    0.000000
    44  O2    c     0.119726    0.169397    0.877524    0.000000
    45  O2    c     0.621874    0.872672    0.095603    0.000000
    46  O2    c     0.891365    0.184563    0.104579    0.000000
    47  O2    c     0.515392    0.003220    0.947604    0.000000
    48  O2    c     0.019322    0.021827    0.035402    0.000000
    49  O2    c     0.146666    0.489390    0.298273    0.000000
    50  O3    c     0.368748    0.507954    0.299583    0.000000
    51  O2    c     0.871057    0.508695    0.683087    0.000000
    52  O2    c     0.648218    0.522733    0.692965    0.000000
    53  O2    c     0.261054    0.266199    0.303727    0.000000
    54  O3    c     0.245122    0.746839    0.321621    0.000000
    55  O2    c     0.756331    0.283385    0.665547    0.000000
    56  O2    c     0.762078    0.747547    0.665640    0.000000
    57  O2    c     0.158744    0.248493    0.116193    0.000000
    58  O3    c     0.350381    0.774810    0.110809    0.000000
    59  O2    c     0.846069    0.270838    0.867915    0.000000
    60  O2    c     0.660455    0.785275    0.855641    0.000000
    61  O2    c     0.858953    0.754576    0.863475    0.000000
    62  O3    c     0.652012    0.257069    0.854648    0.000000
    63  O2    c     0.153320    0.742786    0.121690    0.000000
    64  O2    c     0.362216    0.275440    0.110620    0.000000
    65  O3    c     0.632213    0.541181    0.031688    0.000000
    66  O2    c     0.869466    0.511990    0.046828    0.000000
    67  O2    c     0.369643    0.525160    0.935318    0.000000
    68  O2    c     0.138765    0.499235    0.940214    0.000000
    69  O3    c     0.751480    0.296661    0.068258    0.000000
    70  O2    c     0.755654    0.735195    0.052814    0.000000
    71  O2    c     0.258494    0.289345    0.922802    0.000000
    72  O2    c     0.249724    0.734030    0.923029    0.000000
    73  O3    s     0.120086    0.162337    0.346683    0.000000
    74  O3    s     0.398643    0.854353    0.360233    0.000000
    75  O2    s     0.899289    0.176405    0.644076    0.000000
    76  O3    s     0.619351    0.843108    0.624282    0.000000
    77  O2    s     0.905600    0.840208    0.638258    0.000000
    78  O3    s     0.612757    0.204589    0.623366    0.000000
    79  O3    s     0.098606    0.804999    0.347574    0.000000
    80  O2    s     0.404481    0.181627    0.338395    0.000000
    81  O3    s     0.016249    0.018500    0.530256    0.000000
    82  O3    s     0.519471    0.017023    0.448716    0.000000
    83  O3    s     0.975762    0.017903    0.267954    0.000000
    84  O2    s     0.495478    0.985753    0.203704    0.000000
    85  O2    s     0.000833    0.014745    0.779847    0.000000
    86  O3    s     0.481226    0.012616    0.710433    0.000000
    87  O3    s     0.594945    0.196272    0.097823    0.000000
    88  O2    s     0.895518    0.843137    0.096466    0.000000
    89  O2    s     0.399343    0.195668    0.876694    0.000000
    90  O2    s     0.107602    0.830514    0.895211    0.000000
    91  O2    s     0.387587    0.857525    0.876083    0.000000
    92  O2    s     0.118896    0.167010    0.888851    0.000000
    93  O2    s     0.619752    0.872196    0.085198    0.000000
    94  O2    s     0.891195    0.180691    0.097642    0.000000
    95  O2    s     0.511808    0.006285    0.952047    0.000000
    96  O2    s     0.015599    0.019578    0.030094    0.000000
    97  O2    s     0.150727    0.490073    0.292741    0.000000
    98  O3    s     0.364393    0.504811    0.293993    0.000000
    99  O2    s     0.865918    0.509304    0.689089    0.000000
   100  O2    s     0.652812    0.522573    0.695673    0.000000
   101  O2    s     0.260838    0.273529    0.296031    0.000000
   102  O3    s     0.244435    0.739689    0.313335    0.000000
   103  O2    s     0.756411    0.289831    0.674762    0.000000
   104  O2    s     0.761922    0.741187    0.674515    0.000000
   105  O2    s     0.161144    0.258676    0.116062    0.000000
   106  O3    s     0.348463    0.765193    0.108799    0.000000
   107  O2    s     0.845103    0.279784    0.867683    0.000000
   108  O2    s     0.662336    0.773434    0.855808    0.000000
   109  O2    s     0.856494    0.745272    0.863633    0.000000
   110  O3    s     0.653937    0.268368    0.853052    0.000000
   111  O2    s     0.154929    0.733279    0.121110    0.000000
   112  O2    s     0.359312    0.284158    0.110444    0.000000
   113  O3    s     0.637814    0.542843    0.028014    0.000000
   114  O2    s     0.863779    0.512720    0.040986    0.000000
   115  O2    s     0.364212    0.524119    0.940499    0.000000
   116  O2    s     0.144401    0.499673    0.945739    0.000000
   117  O3    s     0.752776    0.300822    0.059253    0.000000
   118  O2    s     0.755892    0.732116    0.044017    0.000000
   119  O2    s     0.258379    0.294454    0.931288    0.000000
   120  O2    s     0.249795    0.729024    0.932017    0.000000
--------------------------------------------------------------------------------

  Final Cartesian lattice vectors (Angstroms) :

       17.324734   -0.006394    0.085847
       -0.002845    7.662174    0.011064
        0.051772    0.015780   10.198678


  Final cell parameters and derivatives :

--------------------------------------------------------------------------------
       a           17.324948 Angstrom     dE/de1(xx)     0.005381 eV/strain
       b            7.662183 Angstrom     dE/de2(yy)     0.006234 eV/strain
       c           10.198822 Angstrom     dE/de3(zz)     0.003139 eV/strain
       alpha       89.828723 Degrees      dE/de4(yz)    -0.000319 eV/strain
       beta        89.425277 Degrees      dE/de5(xz)    -0.000044 eV/strain
       gamma       90.042010 Degrees      dE/de6(xy)     0.000281 eV/strain
--------------------------------------------------------------------------------

  Primitive cell volume =          1353.787608 Angs**3

  Density of cell =      1.987398 g/cm**3

  Non-primitive cell volume =          1353.787608 Angs**3


  Final internal derivatives :

--------------------------------------------------------------------------------
   No.  Atomic          a             b             c           Radius
        Label          (eV)          (eV)          (eV)        (eV/Angs)
--------------------------------------------------------------------------------
      1 Ge    c       0.000000      0.000000      0.000000      0.000000
      2 Ge    c      -0.000935     -0.000396     -0.000140      0.000000
      3 Ge    c       0.003005      0.001366     -0.000937      0.000000
      4 Ge    c       0.000235      0.000104     -0.000503      0.000000
      5 Si    c       0.001745      0.000015     -0.000531      0.000000
      6 Si    c       0.000476      0.000113      0.000100      0.000000
      7 Si    c      -0.000288     -0.000517      0.000121      0.000000
      8 Si    c       0.000331     -0.000068     -0.000153      0.000000
      9 Si    c       0.000520     -0.000121     -0.000444      0.000000
     10 Si    c      -0.001292      0.000452      0.000033      0.000000
     11 Si    c      -0.001352     -0.000438     -0.001757      0.000000
     12 Si    c       0.000692     -0.000475      0.000258      0.000000
     13 Si    c      -0.001606      0.000209     -0.000489      0.000000
     14 Si    c       0.000443      0.000114     -0.000384      0.000000
     15 Si    c       0.001233     -0.000448      0.001176      0.000000
     16 Si    c      -0.000286      0.000021     -0.000262      0.000000
     17 Si    c       0.000309     -0.000239      0.000084      0.000000
     18 Si    c       0.000216      0.000335      0.000636      0.000000
     19 Si    c       0.000158     -0.000218      0.000036      0.000000
     20 Si    c       0.000051     -0.000240      0.000356      0.000000
     21 Si    c       0.000638      0.000368      0.000202      0.000000
     22 Si    c      -0.001064     -0.000463      0.000459      0.000000
     23 Si    c      -0.001802      0.001387     -0.000352      0.000000
     24 Si    c       0.001243     -0.000581     -0.000920      0.000000
     25 O3    c       0.002070      0.001138      0.001295      0.000000
     26 O3    c      -0.002130     -0.001393      0.000704      0.000000
     27 O2    c      -0.000110      0.000107      0.000096      0.000000
     28 O3    c       0.000518     -0.000135      0.000233      0.000000
     29 O2    c      -0.000054     -0.000068      0.000039      0.000000
     30 O3    c       0.000162      0.000433     -0.000045      0.000000
     31 O3    c       0.000870     -0.000992     -0.000240      0.000000
     32 O2    c      -0.001395      0.000810      0.000015      0.000000
     33 O3    c      -0.000562      0.000059      0.000335      0.000000
     34 O3    c      -0.000513      0.000069      0.000618      0.000000
     35 O3    c      -0.001643      0.000050     -0.000649      0.000000
     36 O2    c       0.000077      0.000113      0.000217      0.000000
     37 O2    c      -0.000329     -0.000057     -0.000601      0.000000
     38 O3    c       0.000652     -0.000015     -0.000290      0.000000
     39 O3    c       0.000610      0.000426     -0.000075      0.000000
     40 O2    c       0.000239     -0.000043     -0.000076      0.000000
     41 O2    c      -0.000665      0.000968      0.000151      0.000000
     42 O2    c       0.001453     -0.001108     -0.000352      0.000000
     43 O2    c      -0.001120     -0.000638     -0.000059      0.000000
     44 O2    c       0.001046      0.000621     -0.000340      0.000000
     45 O2    c       0.000460     -0.000135     -0.000085      0.000000
     46 O2    c       0.000238      0.000065      0.000223      0.000000
     47 O2    c       0.000826     -0.000016      0.000420      0.000000
     48 O2    c      -0.000345      0.000017      0.000760      0.000000
     49 O2    c      -0.001133      0.002234      0.000688      0.000000
     50 O3    c       0.001929     -0.002908      0.000964      0.000000
     51 O2    c       0.000740      0.000379     -0.000859      0.000000
     52 O2    c      -0.000402     -0.000241     -0.000533      0.000000
     53 O2    c       0.005073     -0.000568      0.000741      0.000000
     54 O3    c      -0.007782      0.000411      0.000871      0.000000
     55 O2    c      -0.004596      0.000072      0.000066      0.000000
     56 O2    c       0.002175      0.000406     -0.000437      0.000000
     57 O2    c       0.000142     -0.000001      0.000374      0.000000
     58 O3    c       0.000054      0.000199     -0.000031      0.000000
     59 O2    c      -0.000378      0.000119      0.000597      0.000000
     60 O2    c      -0.000311      0.000230      0.000464      0.000000
     61 O2    c       0.000846      0.000305     -0.000217      0.000000
     62 O3    c       0.000718      0.000418     -0.001384      0.000000
     63 O2    c       0.000370     -0.000058     -0.000141      0.000000
     64 O2    c       0.000318     -0.000122     -0.000335      0.000000
     65 O3    c      -0.001951     -0.003246      0.001140      0.000000
     66 O2    c       0.001266      0.000864      0.000830      0.000000
     67 O2    c       0.000679     -0.000525     -0.000320      0.000000
     68 O2    c      -0.000543      0.001252     -0.000161      0.000000
     69 O3    c      -0.004582     -0.000503      0.000378      0.000000
     70 O2    c       0.004691      0.000116      0.000878      0.000000
     71 O2    c       0.001955     -0.000180     -0.000368      0.000000
     72 O2    c      -0.002051      0.000092     -0.000133      0.000000
     73 O3    s      -0.002390     -0.000876     -0.000224      0.000000
     74 O3    s       0.001850      0.000597      0.000120      0.000000
     75 O2    s       0.000562     -0.000296      0.000104      0.000000
     76 O3    s      -0.000844      0.000319     -0.000234      0.000000
     77 O2    s       0.000073      0.000147     -0.000217      0.000000
     78 O3    s       0.000574     -0.000162      0.000228      0.000000
     79 O3    s       0.000646     -0.000218      0.000000      0.000000
     80 O2    s      -0.000306      0.000299     -0.000034      0.000000
     81 O3    s      -0.000503     -0.000037      0.000254      0.000000
     82 O3    s       0.001203     -0.000031     -0.000212      0.000000
     83 O3    s      -0.000766     -0.000036      0.000370      0.000000
     84 O2    s       0.001258      0.000033     -0.000112      0.000000
     85 O2    s      -0.000853      0.000090     -0.000274      0.000000
     86 O3    s       0.000362      0.000047     -0.000193      0.000000
     87 O3    s      -0.000114      0.000003      0.000162      0.000000
     88 O2    s      -0.000546      0.000127      0.000214      0.000000
     89 O2    s      -0.000563      0.000125     -0.000317      0.000000
     90 O2    s       0.000513     -0.000251      0.000029      0.000000
     91 O2    s       0.000261     -0.000059      0.000032      0.000000
     92 O2    s      -0.000365      0.000057     -0.000286      0.000000
     93 O2    s      -0.001220      0.000452      0.000143      0.000000
     94 O2    s       0.000522     -0.000474     -0.000283      0.000000
     95 O2    s       0.000851      0.000063     -0.000155      0.000000
     96 O2    s      -0.001296     -0.000209      0.000061      0.000000
     97 O2    s      -0.000453      0.000776      0.000028      0.000000
     98 O3    s      -0.000423      0.000624      0.000042      0.000000
     99 O2    s       0.000941      0.000058     -0.000497      0.000000
    100 O2    s      -0.000459     -0.000874     -0.000311      0.000000
    101 O2    s       0.001478     -0.000414      0.000158      0.000000
    102 O3    s       0.001669      0.000309      0.000104      0.000000
    103 O2    s      -0.000240     -0.000533     -0.000179      0.000000
    104 O2    s       0.000271      0.000601     -0.000873      0.000000
    105 O2    s      -0.001471     -0.000627     -0.000620      0.000000
    106 O3    s       0.000930      0.000475     -0.000541      0.000000
    107 O2    s       0.001444     -0.000630     -0.000161      0.000000
    108 O2    s      -0.002317      0.000707     -0.000624      0.000000
    109 O2    s       0.000467      0.000323      0.000193      0.000000
    110 O3    s      -0.000274     -0.000209      0.000379      0.000000
    111 O2    s      -0.000006     -0.000036      0.000241      0.000000
    112 O2    s      -0.000125      0.000008      0.000259      0.000000
    113 O3    s      -0.001244      0.000473      0.000044      0.000000
    114 O2    s       0.000566      0.000151      0.000460      0.000000
    115 O2    s       0.000545     -0.000211     -0.000172      0.000000
    116 O2    s      -0.000367      0.000308     -0.000151      0.000000
    117 O3    s       0.000951     -0.000057      0.000190      0.000000
    118 O2    s       0.000694      0.000494      0.000891      0.000000
    119 O2    s       0.000468     -0.000166     -0.000274      0.000000
    120 O2    s      -0.000674      0.000059     -0.000189      0.000000
--------------------------------------------------------------------------------
  Maximum abs         0.007782      0.003246      0.001757      0.000000
--------------------------------------------------------------------------------


  Born effective charge tensors : 

-------------------------------------------------------------------------------
  Atom             x           y             z
-------------------------------------------------------------------------------
    1 Ge    x       4.1774     -0.1431     -0.4252
            y       0.1281      3.9112      0.0276
            z      -0.2661      0.0828      4.6687
-------------------------------------------------------------------------------
    2 Ge    x       4.2717      0.0255      0.3807
            y      -0.0495      3.9183     -0.0021
            z       0.2925     -0.0148      4.5694
-------------------------------------------------------------------------------
    3 Ge    x       3.9259      0.3293      0.1461
            y       0.2675      4.1729      0.2258
            z       0.1436      0.0537      3.4264
-------------------------------------------------------------------------------
    4 Ge    x       4.0498      0.3515     -0.1542
            y       0.3146      4.1619     -0.2703
            z      -0.2209     -0.0094      3.2601
-------------------------------------------------------------------------------
    5 Si    x       3.8844      0.1140      0.1341
            y       0.2257      3.4492     -0.0750
            z       0.9888      0.0878      3.9336
-------------------------------------------------------------------------------
    6 Si    x       3.6807      0.0425     -0.1443
            y      -0.0414      3.3089      0.0002
            z      -0.9089     -0.0457      4.0081
-------------------------------------------------------------------------------
    7 Si    x       3.6294      0.2861      0.0271
            y       0.0002      3.5050      0.0587
            z      -0.5814     -0.0903      2.9837
-------------------------------------------------------------------------------
    8 Si    x       3.5860      0.0412      0.4744
            y      -0.0354      3.3215      0.0003
            z       0.4642      0.0414      3.5749
-------------------------------------------------------------------------------
    9 Si    x       3.6195     -0.0832     -0.4746
            y       0.0592      3.3221      0.0167
            z      -0.5023      0.0557      3.5473
-------------------------------------------------------------------------------
   10 Si    x       3.5256     -0.0585      0.0268
            y       0.0705      3.2801     -0.0154
            z       0.6139     -0.0147      2.9240
-------------------------------------------------------------------------------
   11 Si    x       3.3683      0.4195     -0.2506
            y       0.3321      3.5981     -0.3167
            z      -0.2450     -0.2303      3.0137
-------------------------------------------------------------------------------
   12 Si    x       3.1540     -0.2880     -0.0599
            y      -0.2183      3.4565      0.1484
            z      -0.1077      0.0596      2.7707
-------------------------------------------------------------------------------
   13 Si    x       3.4187     -0.4212      0.2612
            y      -0.3641      3.5548     -0.3558
            z       0.2907     -0.1696      2.9739
-------------------------------------------------------------------------------
   14 Si    x       3.1679      0.2603     -0.0526
            y       0.2568      3.4271     -0.1482
            z      -0.0769     -0.0462      2.7810
-------------------------------------------------------------------------------
   15 Si    x       3.4756      0.4007      0.1929
            y       0.4022      3.6178      0.2793
            z       0.2524      0.0929      3.2675
-------------------------------------------------------------------------------
   16 Si    x       3.7537     -0.2641     -0.1193
            y      -0.4033      3.5989      0.2990
            z      -0.2337      0.1666      3.0401
-------------------------------------------------------------------------------
   17 Si    x       3.2523     -0.1648      0.1170
            y      -0.1636      3.7282     -0.0511
            z       0.1249      0.0136      2.8856
-------------------------------------------------------------------------------
   18 Si    x       3.2243      0.2781      0.1483
            y       0.1887      3.3847      0.1883
            z       0.1481      0.0758      2.7486
-------------------------------------------------------------------------------
   19 Si    x       3.2568     -0.2550     -0.1292
            y      -0.2229      3.4089      0.1892
            z      -0.1316      0.0559      2.7136
-------------------------------------------------------------------------------
   20 Si    x       3.2400     -0.2916      0.1078
            y      -0.2332      3.4320     -0.1803
            z       0.1355     -0.0531      2.6673
-------------------------------------------------------------------------------
   21 Si    x       3.2969      0.3389     -0.1001
            y       0.1788      3.5457     -0.1025
            z      -0.1014      0.0090      3.0219
-------------------------------------------------------------------------------
   22 Si    x       3.2577      0.3342      0.1418
            y       0.1688      3.4308      0.1664
            z       0.1171      0.0331      2.6649
-------------------------------------------------------------------------------
   23 Si    x       3.3436     -0.2553     -0.1704
            y       0.0139      3.7176      0.1316
            z      -0.1625     -0.0136      2.7387
-------------------------------------------------------------------------------
   24 Si    x       3.5674     -0.2661      0.0184
            y      -0.1445      3.5012     -0.2033
            z       0.0824     -0.0957      2.8185
-------------------------------------------------------------------------------
   25 O3    x      -2.1203     -0.9855      0.5508
            y      -1.0186     -2.3336      0.5581
            z       0.5811      0.5740     -1.6380
-------------------------------------------------------------------------------
   26 O3    x      -2.0806     -0.9398     -0.2317
            y      -0.9979     -2.3576     -0.2586
            z      -0.3518     -0.2464     -1.5325
-------------------------------------------------------------------------------
   27 O2    x      -1.7179      0.7403      0.2142
            y       0.7455     -2.0020     -0.2591
            z       0.3182     -0.2516     -1.3022
-------------------------------------------------------------------------------
   28 O3    x      -2.1003      0.9793     -0.5595
            y       0.9827     -2.3138      0.5514
            z      -0.5848      0.5445     -1.6475
-------------------------------------------------------------------------------
   29 O2    x      -1.6707     -0.7180      0.2175
            y      -0.6915     -1.9960      0.2326
            z       0.3223      0.2467     -1.3305
-------------------------------------------------------------------------------
   30 O3    x      -2.0631     -0.9522     -0.5460
            y      -0.9304     -2.3202     -0.5301
            z      -0.5726     -0.5281     -1.6361
-------------------------------------------------------------------------------
   31 O3    x      -2.0574      0.9451      0.5321
            y       0.9321     -2.3583     -0.5008
            z       0.5551     -0.4976     -1.6000
-------------------------------------------------------------------------------
   32 O2    x      -1.7051      0.6770     -0.2638
            y       0.6781     -1.9157      0.2868
            z      -0.3601      0.2607     -1.3539
-------------------------------------------------------------------------------
   33 O3    x      -2.0102      0.0268      1.1091
            y      -0.0173     -1.2176     -0.0153
            z       1.3547     -0.0639     -3.3868
-------------------------------------------------------------------------------
   34 O3    x      -2.1159     -0.0165     -1.0951
            y      -0.0098     -1.1961     -0.0095
            z      -1.4016     -0.0426     -3.2422
-------------------------------------------------------------------------------
   35 O3    x      -2.0102      0.0473     -0.8837
            y       0.0362     -1.2197      0.0342
            z      -0.9234      0.0233     -2.8485
-------------------------------------------------------------------------------
   36 O2    x      -1.6976     -0.0283      0.6476
            y      -0.0072     -1.1666     -0.0145
            z       0.6108     -0.0189     -2.1242
-------------------------------------------------------------------------------
   37 O2    x      -1.7826      0.0160     -0.7463
            y       0.0052     -1.1372      0.0178
            z      -0.7269      0.0219     -2.1334
-------------------------------------------------------------------------------
   38 O3    x      -2.0867      0.0112      0.9350
            y      -0.0064     -1.2145     -0.0104
            z       0.9792     -0.0180     -2.8111
-------------------------------------------------------------------------------
   39 O3    x      -2.0198     -0.9443      0.2971
            y      -0.8765     -2.5131      0.2792
            z       0.3928      0.2627     -1.3494
-------------------------------------------------------------------------------
   40 O2    x      -1.6629     -0.7057     -0.3809
            y      -0.6401     -2.0091     -0.4069
            z      -0.3559     -0.3810     -1.2866
-------------------------------------------------------------------------------
   41 O2    x      -1.6640      0.7065      0.3739
            y       0.6247     -2.0196     -0.3918
            z       0.3494     -0.3641     -1.2832
-------------------------------------------------------------------------------
   42 O2    x      -1.7061      0.7421     -0.2626
            y       0.6704     -2.0198      0.2882
            z      -0.3373      0.2777     -1.1837
-------------------------------------------------------------------------------
   43 O2    x      -1.7107     -0.7168      0.3567
            y      -0.6727     -1.9896      0.3751
            z       0.3425      0.3509     -1.2715
-------------------------------------------------------------------------------
   44 O2    x      -1.7518     -0.7438     -0.2434
            y      -0.7055     -1.9565     -0.2714
            z      -0.3255     -0.2737     -1.2044
-------------------------------------------------------------------------------
   45 O2    x      -1.8229      0.6859      0.2629
            y       0.6830     -1.8452     -0.2987
            z       0.3395     -0.2610     -1.2253
-------------------------------------------------------------------------------
   46 O2    x      -1.6750      0.7069     -0.3629
            y       0.6641     -2.0107      0.3913
            z      -0.3446      0.3606     -1.2727
-------------------------------------------------------------------------------
   47 O2    x      -1.8573      0.0222     -0.5828
            y       0.0294     -1.1704     -0.0010
            z      -0.3104      0.0164     -1.7118
-------------------------------------------------------------------------------
   48 O2    x      -1.8951      0.0077      0.5710
            y      -0.0045     -1.1611     -0.0205
            z       0.3148     -0.0218     -1.6686
-------------------------------------------------------------------------------
   49 O2    x      -1.1763      0.0751      0.0614
            y       0.1163     -2.4912     -0.0220
            z       0.0828     -0.0188     -1.1069
-------------------------------------------------------------------------------
   50 O3    x      -1.3055     -0.0268     -0.0873
            y       0.0279     -3.1981     -0.1196
            z      -0.0983     -0.1128     -1.2042
-------------------------------------------------------------------------------
   51 O2    x      -1.1582     -0.0168      0.0521
            y      -0.0458     -2.5481      0.0121
            z       0.0743     -0.0005     -1.0602
-------------------------------------------------------------------------------
   52 O2    x      -1.2050     -0.0261     -0.0480
            y      -0.0380     -2.5098     -0.0269
            z      -0.0747     -0.0226     -1.0708
-------------------------------------------------------------------------------
   53 O2    x      -2.3845     -0.0178     -0.0015
            y       0.0075     -1.2372      0.0647
            z       0.0049      0.0463     -1.0992
-------------------------------------------------------------------------------
   54 O3    x      -2.9272     -0.1570     -0.0863
            y      -0.1508     -1.4055     -0.1084
            z      -0.0887     -0.0753     -1.2554
-------------------------------------------------------------------------------
   55 O2    x      -2.3517      0.0420     -0.0515
            y       0.0198     -1.2555     -0.0731
            z      -0.0729     -0.0451     -1.0965
-------------------------------------------------------------------------------
   56 O2    x      -2.3640      0.0310     -0.0155
            y       0.0138     -1.2350      0.0728
            z      -0.0325      0.0435     -1.0941
-------------------------------------------------------------------------------
   57 O2    x      -1.1973     -0.1382     -0.0524
            y      -0.0998     -1.2902      0.0062
            z      -0.0580      0.0041     -2.0301
-------------------------------------------------------------------------------
   58 O3    x      -1.3224     -0.1562     -0.0548
            y      -0.1177     -1.4542     -0.0885
            z      -0.0251     -0.0582     -2.5931
-------------------------------------------------------------------------------
   59 O2    x      -1.1642      0.1105     -0.0301
            y       0.0786     -1.2886     -0.0075
            z      -0.0134     -0.0108     -2.0818
-------------------------------------------------------------------------------
   60 O2    x      -1.2148      0.1409      0.0701
            y       0.0991     -1.3009     -0.0499
            z       0.0519     -0.0567     -2.0097
-------------------------------------------------------------------------------
   61 O2    x      -1.1845     -0.1267      0.0019
            y      -0.1052     -1.2648     -0.0103
            z      -0.0027     -0.0048     -2.0656
-------------------------------------------------------------------------------
   62 O3    x      -1.3508     -0.1659      0.1553
            y      -0.1415     -1.4831      0.1131
            z       0.1288      0.0595     -2.5339
-------------------------------------------------------------------------------
   63 O2    x      -1.1899      0.1193     -0.0050
            y       0.1095     -1.3007      0.0213
            z      -0.0094      0.0372     -2.0557
-------------------------------------------------------------------------------
   64 O2    x      -1.2126      0.1229     -0.0035
            y       0.1139     -1.2578      0.0501
            z       0.0053      0.0484     -2.0724
-------------------------------------------------------------------------------
   65 O3    x      -1.4297     -0.1560      0.1025
            y      -0.1827     -3.1345      0.0743
            z       0.1307      0.0806     -1.1196
-------------------------------------------------------------------------------
   66 O2    x      -1.2108      0.0050     -0.0780
            y      -0.0209     -2.5153      0.0173
            z      -0.0951      0.0195     -1.0397
-------------------------------------------------------------------------------
   67 O2    x      -1.2370      0.0294      0.0689
            y       0.0636     -2.5536      0.0145
            z       0.0877      0.0276     -1.0131
-------------------------------------------------------------------------------
   68 O2    x      -1.2233      0.0361     -0.0755
            y       0.0599     -2.5176     -0.0170
            z      -0.0929     -0.0081     -1.0053
-------------------------------------------------------------------------------
   69 O3    x      -3.0437      0.0175      0.0470
            y      -0.0111     -1.3662      0.0937
            z       0.0684      0.0460     -1.2144
-------------------------------------------------------------------------------
   70 O2    x      -2.4322      0.0957     -0.0430
            y       0.0669     -1.2250     -0.0564
            z      -0.0176     -0.0208     -1.0596
-------------------------------------------------------------------------------
   71 O2    x      -2.4381     -0.0666      0.0167
            y      -0.0248     -1.2278     -0.0634
            z       0.0232     -0.0293     -1.0377
-------------------------------------------------------------------------------
   72 O2    x      -2.4200     -0.0654      0.0512
            y      -0.0425     -1.2485      0.0660
            z       0.0417      0.0360     -1.0390
-------------------------------------------------------------------------------




  Elastic Constant Matrix: (Units=GPa)

-------------------------------------------------------------------------------
  Indices      1         2         3         4         5         6    
-------------------------------------------------------------------------------
       1     51.5299   26.4616   19.8443    0.4988    6.4967   -2.4250
       2     26.4616   69.0304   19.7595    0.5837    7.2012    0.2544
       3     19.8443   19.7595   24.1911    0.3896    0.9470   -2.7027
       4      0.4988    0.5837    0.3896    9.8018   -0.2246    0.1887
       5      6.4967    7.2012    0.9470   -0.2246   22.2249    0.3739
       6     -2.4250    0.2544   -2.7027    0.1887    0.3739   16.3569
-------------------------------------------------------------------------------


  Elastic Compliance Matrix: (Units=1/GPa)

-------------------------------------------------------------------------------
  Indices      1         2         3         4         5         6    
-------------------------------------------------------------------------------
       1    0.030967 -0.005277 -0.020671 -0.000616 -0.006492  0.001413
       2   -0.005277  0.020630 -0.012681 -0.000501 -0.004555 -0.003089
       3   -0.020671 -0.012681  0.069334 -0.000950  0.007045  0.008439
       4   -0.000616 -0.000501 -0.000950  0.102182  0.001440 -0.001452
       5   -0.006492 -0.004555  0.007045  0.001440  0.048097 -0.000843
       6    0.001413 -0.003089  0.008439 -0.001452 -0.000843  0.062824
-------------------------------------------------------------------------------

  Mechanical properties :

-------------------------------------------------------------------------------
  Convention :                    Reuss         Voigt         Hill
-------------------------------------------------------------------------------
  Bulk  Modulus (GPa)     =      22.89664      30.76469      26.83066
  Shear Modulus (GPa)     =      11.74128      14.92244      13.33186
-------------------------------------------------------------------------------
  Velocity S-wave (km/s)  =       2.43061       2.74017       2.59002
  Velocity P-wave (km/s)  =       4.40432       5.04889       4.73758
-------------------------------------------------------------------------------
  Compressibility (1/GPa) =    0.04367453
-------------------------------------------------------------------------------
  Stress axis :                     x             y             z
-------------------------------------------------------------------------------
  Youngs Moduli (GPa)     =      32.29226      48.47408      14.42296
-------------------------------------------------------------------------------
  Poissons Ratio (x)      =                     0.25578       0.29813
  Poissons Ratio (y)      =       0.17039                     0.18289
  Poissons Ratio (z)      =       0.66751       0.61468
-------------------------------------------------------------------------------


  Piezoelectric Strain Matrix: (Units=C/m**2)

-------------------------------------------------------------------------------
  Indices      1         2         3         4         5         6    
-------------------------------------------------------------------------------
       x     0.36842   0.91727  -0.29965   0.10248   0.02305   0.02460
       y    -0.94303  -0.90083  -0.18426  -0.04385   0.15024   0.56592
       z    -0.16411  -0.15507  -0.21927   0.01080  -0.21832   0.03857
-------------------------------------------------------------------------------


  Piezoelectric Stress Matrix: (Units=10**-11 C/N)

-------------------------------------------------------------------------------
  Indices      1         2         3         4         5         6    
-------------------------------------------------------------------------------
       x     1.25847   2.05464  -3.97503   1.00670  -0.74453  -0.34638
       y    -2.07895  -1.36812   2.40165  -0.38786   1.56121   3.53852
       z     0.17337   0.13171  -1.10668   0.11202  -1.02904   0.09881
-------------------------------------------------------------------------------


  Static dielectric constant tensor : 

-------------------------------------------------------------------------------
              x         y         z
-------------------------------------------------------------------------------
       x     4.12748   0.03249   0.00228
       y     0.03249   4.19899  -0.01089
       z     0.00228  -0.01089   3.46444
--------------------------------------------------------------------------------

  High frequency dielectric constant tensor : 

-------------------------------------------------------------------------------
              x         y         z
-------------------------------------------------------------------------------
       x     1.66547  -0.00052   0.00108
       y    -0.00052   1.67235   0.00004
       z     0.00108   0.00004   1.60302
-------------------------------------------------------------------------------

  Static refractive indices : 

-------------------------------------------------------------------------------
    1 =    1.86125      2 =    2.02854      3 =    2.05223
-------------------------------------------------------------------------------

  High frequency refractive indices : 

-------------------------------------------------------------------------------
    1 =    1.26610      2 =    1.29052      3 =    1.29321
-------------------------------------------------------------------------------


  Time to end of optimisation =       9.0076 seconds


  Peak dynamic memory used =       5.01 MB 


  Timing analysis for GULP :

--------------------------------------------------------------------------------
  Task / Subroutine                                          Time (Seconds)
--------------------------------------------------------------------------------
  Calculation of reciprocal space energy and derivatives          0.5581
  Calculation of real space energy and derivatives                5.5722
  Calculation of three-body energy and derivatives                0.4219
  Calculation and manipulation of Hessian matrix                  3.1034
  Calculation of matrix inversion                                 0.0232
  Global summation overhead                                       0.0001
--------------------------------------------------------------------------------
  Total CPU time                                                  9.0076
--------------------------------------------------------------------------------


  Dump file written as POSCAR_N0004.vasp.grs
  CIF file written as POSCAR_N0004.vasp.cif


  Job Finished at 07:45.53 31st October    2025                               

