********************************************************************************
*                       GENERAL UTILITY LATTICE PROGRAM                        *
*                                 Julian Gale                                  *
*                       Curtin Institute for Computation                       *
*                    School of Molecular and Life Sciences                     *
*                    Curtin University, Western Australia                      *
********************************************************************************
* Version = 6.1.2 * Last modified =   3rd November 2022                        *
********************************************************************************
*  optimise     - perform optimisation run                                     *
*  conp         - constant pressure calculation                                *
*  property     - calculate properties for final geometry                      *
********************************************************************************

  Job Started  at 21:29.16  6th October    2025                               

  Number of CPUs =     1


  Total number of configurations input =      1

********************************************************************************
*  Input for Configuration =   1 : c00060.vasp                                 *
********************************************************************************

  Formula = Ge3Si9O24                                                   

  Number of irreducible atoms/shells =      60


  Total number atoms/shells =      60

  Dimensionality = 3               :  Bulk   



  Cartesian lattice vectors (Angstroms) :

        9.086940    0.000000    0.000000
        0.000000    7.554810    0.000000
       -3.295144    0.000000    9.944380

  Cell parameters (Angstroms/Degrees):

  a =       9.0869    alpha =  90.0000
  b =       7.5548    beta  = 108.3330
  c =      10.4761    gamma =  90.0000

  Initial cell volume =         682.682735 Angs**3

  Temperature of configuration =   0.00     K 

  Pressure of configuration =         0.000 GPa 

  Fractional coordinates of asymmetric unit :

--------------------------------------------------------------------------------
   No.  Atomic       x           y          z         Charge      Occupancy
        Label      (Frac)      (Frac)     (Frac)        (e)         (Frac)  
--------------------------------------------------------------------------------
      1 Ge    c    0.879680    0.000000    0.350160     4.00000    1.000000    
      2 Ge    c    0.093070 *  0.000000 *  0.158230 *   4.00000    1.000000    
      3 Ge    c    0.906930 *  0.000000 *  0.841770 *   4.00000    1.000000    
      4 Si    c    0.313820 *  0.296860 *  0.309830 *   4.00000    1.000000    
      5 Si    c    0.686180 *  0.296860 *  0.690170 *   4.00000    1.000000    
      6 Si    c    0.686180 *  0.703140 *  0.690170 *   4.00000    1.000000    
      7 Si    c    0.313820 *  0.703140 *  0.309830 *   4.00000    1.000000    
      8 Si    c    0.331050 *  0.296920 *  0.607380 *   4.00000    1.000000    
      9 Si    c    0.668950 *  0.296920 *  0.392620 *   4.00000    1.000000    
     10 Si    c    0.668950 *  0.703080 *  0.392620 *   4.00000    1.000000    
     11 Si    c    0.331050 *  0.703080 *  0.607380 *   4.00000    1.000000    
     12 Si    c    0.120320 *  0.000000 *  0.649840 *   4.00000    1.000000    
     13 O2    c    0.268740 *  0.279030 *  0.446100 *   0.87073    1.000000    
     14 O2    c    0.731260 *  0.279030 *  0.553900 *   0.87073    1.000000    
     15 O2    c    0.731260 *  0.720970 *  0.553900 *   0.87073    1.000000    
     16 O2    c    0.268740 *  0.720970 *  0.446100 *   0.87073    1.000000    
     17 O2    c    0.295480 *  0.500000 *  0.260860 *   0.87073    1.000000    
     18 O2    c    0.704520 *  0.500000 *  0.739140 *   0.87073    1.000000    
     19 O2    c    0.490600 *  0.234690 *  0.337530 *   0.87073    1.000000    
     20 O2    c    0.509400 *  0.234690 *  0.662470 *   0.87073    1.000000    
     21 O2    c    0.509400 *  0.765310 *  0.662470 *   0.87073    1.000000    
     22 O2    c    0.490600 *  0.765310 *  0.337530 *   0.87073    1.000000    
     23 O3    c    0.200440 *  0.174000 *  0.194980 *   1.33043    1.000000    
     24 O3    c    0.799560 *  0.174000 *  0.805020 *   1.33043    1.000000    
     25 O3    c    0.799560 *  0.826000 *  0.805020 *   1.33043    1.000000    
     26 O3    c    0.200440 *  0.826000 *  0.194980 *   1.33043    1.000000    
     27 O2    c    0.317860 *  0.500000 *  0.649090 *   0.87073    1.000000    
     28 O2    c    0.682140 *  0.500000 *  0.350910 *   0.87073    1.000000    
     29 O2    c    0.227920 *  0.173870 *  0.671620 *   0.87073    1.000000    
     30 O3    c    0.772080 *  0.173870 *  0.328380 *   1.33043    1.000000    
     31 O3    c    0.772080 *  0.826130 *  0.328380 *   1.33043    1.000000    
     32 O2    c    0.227920 *  0.826130 *  0.671620 *   0.87073    1.000000    
     33 O3    c    0.000000 *  0.000000 *  0.500000 *   1.33043    1.000000    
     34 O1    c    0.971960 *  0.000000 *  0.241930 *   1.73396    1.000000    
     35 O3    c    0.028040 *  0.000000 *  0.758070 *   1.33043    1.000000    
     36 O1    c    0.000000 *  0.000000 *  0.000000 *   1.73396    1.000000    
     37 O2    s    0.268740 *  0.279030 *  0.446100 *  -2.87073    1.000000    
     38 O2    s    0.731260 *  0.279030 *  0.553900 *  -2.87073    1.000000    
     39 O2    s    0.731260 *  0.720970 *  0.553900 *  -2.87073    1.000000    
     40 O2    s    0.268740 *  0.720970 *  0.446100 *  -2.87073    1.000000    
     41 O2    s    0.295480 *  0.500000 *  0.260860 *  -2.87073    1.000000    
     42 O2    s    0.704520 *  0.500000 *  0.739140 *  -2.87073    1.000000    
     43 O2    s    0.490600 *  0.234690 *  0.337530 *  -2.87073    1.000000    
     44 O2    s    0.509400 *  0.234690 *  0.662470 *  -2.87073    1.000000    
     45 O2    s    0.509400 *  0.765310 *  0.662470 *  -2.87073    1.000000    
     46 O2    s    0.490600 *  0.765310 *  0.337530 *  -2.87073    1.000000    
     47 O3    s    0.200440 *  0.174000 *  0.194980 *  -3.33043    1.000000    
     48 O3    s    0.799560 *  0.174000 *  0.805020 *  -3.33043    1.000000    
     49 O3    s    0.799560 *  0.826000 *  0.805020 *  -3.33043    1.000000    
     50 O3    s    0.200440 *  0.826000 *  0.194980 *  -3.33043    1.000000    
     51 O2    s    0.317860 *  0.500000 *  0.649090 *  -2.87073    1.000000    
     52 O2    s    0.682140 *  0.500000 *  0.350910 *  -2.87073    1.000000    
     53 O2    s    0.227920 *  0.173870 *  0.671620 *  -2.87073    1.000000    
     54 O3    s    0.772080 *  0.173870 *  0.328380 *  -3.33043    1.000000    
     55 O3    s    0.772080 *  0.826130 *  0.328380 *  -3.33043    1.000000    
     56 O2    s    0.227920 *  0.826130 *  0.671620 *  -2.87073    1.000000    
     57 O3    s    0.000000 *  0.000000 *  0.500000 *  -3.33043    1.000000    
     58 O1    s    0.971960 *  0.000000 *  0.241930 *  -3.73396    1.000000    
     59 O3    s    0.028040 *  0.000000 *  0.758070 *  -3.33043    1.000000    
     60 O1    s    0.000000 *  0.000000 *  0.000000 *  -3.73396    1.000000    
--------------------------------------------------------------------------------



********************************************************************************
*  General input information                                                   *
********************************************************************************

  Species output for all configurations : 

--------------------------------------------------------------------------------
  Species    Type    Atomic    Atomic    Charge       Radii (Angs)     Library
                     Number     Mass       (e)     Cova   Ionic  VDW   Symbol
--------------------------------------------------------------------------------
    Ge       Core       32      72.61   4.000000   1.170  0.000  1.750 Ge       
    Si       Core       14      28.09   4.000000   1.200  0.000  2.100 Si       
    O1       Core        8      16.00   1.733957   0.730  0.000  1.360 O1       
    O2       Core        8      16.00   0.870733   0.730  0.000  1.360 O2       
    O3       Core        8      16.00   1.330431   0.730  0.000  1.360 O3       
    O1       Shell       8       0.00  -3.733957   0.730  0.000  0.000 O1       
    O2       Shell       8       0.00  -2.870733   0.730  0.000  0.000 O2       
    O3       Shell       8       0.00  -3.330431   0.730  0.000  0.000 O3       
--------------------------------------------------------------------------------


  Lattice summation method               =    Ewald          (3-D)
                                         =    Parry          (2-D)
                                         =    Saunders et al (1-D)
  Accuracy factor for lattice sums       =   12.000


  Analytic derivatives to be used

  Time limit = Infinity

  Maximum range for interatomic potentials =    100000.000000 Angstroms

  General interatomic potentials :

--------------------------------------------------------------------------------
Atom  Types   Potential      Parameter       Value         Units   Cutoffs(Ang)
  1     2                                                            Min /  Max 
--------------------------------------------------------------------------------
Si   c O1   s Buckingham    Buckingham A     1315.2478    eV        0.000 16.000
                            Buckingham rho  0.31775900    Ang       
                            Buckingham C     10.141118    eV*Ang^6  
--------------------------------------------------------------------------------
Si   c O2   s Buckingham    Buckingham A     1315.2478    eV        0.000 16.000
                            Buckingham rho  0.31775900    Ang       
                            Buckingham C     10.141118    eV*Ang^6  
--------------------------------------------------------------------------------
Si   c O3   s Buckingham    Buckingham A     1315.2478    eV        0.000 16.000
                            Buckingham rho  0.31775900    Ang       
                            Buckingham C     10.141118    eV*Ang^6  
--------------------------------------------------------------------------------
Ge   c O1   s Buckingham    Buckingham A     1497.3996    eV        0.000 16.000
                            Buckingham rho  0.32564600    Ang       
                            Buckingham C     16.808599    eV*Ang^6  
--------------------------------------------------------------------------------
Ge   c O2   s Buckingham    Buckingham A     1497.3996    eV        0.000 16.000
                            Buckingham rho  0.32564600    Ang       
                            Buckingham C     16.808599    eV*Ang^6  
--------------------------------------------------------------------------------
Ge   c O3   s Buckingham    Buckingham A     1497.3996    eV        0.000 16.000
                            Buckingham rho  0.32564600    Ang       
                            Buckingham C     16.808599    eV*Ang^6  
--------------------------------------------------------------------------------
O1   s O1   s Buckingham    Buckingham A     22764.000    eV        0.000 16.000
                            Buckingham rho  0.14900000    Ang       
                            Buckingham C     10.937044    eV*Ang^6  
--------------------------------------------------------------------------------
O1   s O2   s Buckingham    Buckingham A     22764.000    eV        0.000 16.000
                            Buckingham rho  0.14900000    Ang       
                            Buckingham C     10.937044    eV*Ang^6  
--------------------------------------------------------------------------------
O1   s O3   s Buckingham    Buckingham A     22764.000    eV        0.000 16.000
                            Buckingham rho  0.14900000    Ang       
                            Buckingham C     10.937044    eV*Ang^6  
--------------------------------------------------------------------------------
O2   s O2   s Buckingham    Buckingham A     22764.000    eV        0.000 16.000
                            Buckingham rho  0.14900000    Ang       
                            Buckingham C     10.937044    eV*Ang^6  
--------------------------------------------------------------------------------
O2   s O3   s Buckingham    Buckingham A     22764.000    eV        0.000 16.000
                            Buckingham rho  0.14900000    Ang       
                            Buckingham C     10.937044    eV*Ang^6  
--------------------------------------------------------------------------------
O3   s O3   s Buckingham    Buckingham A     22764.000    eV        0.000 16.000
                            Buckingham rho  0.14900000    Ang       
                            Buckingham C     10.937044    eV*Ang^6  
--------------------------------------------------------------------------------
O1   c O1   s Spring (c-s)  Spring k 2       180.31577    eV*Ang^-2 0.000  0.800
                            Spring k 4       0.0000000    eV*Ang^-4 
--------------------------------------------------------------------------------
O2   c O2   s Spring (c-s)  Spring k 2       75.969800    eV*Ang^-2 0.000  0.800
                            Spring k 4       0.0000000    eV*Ang^-4 
--------------------------------------------------------------------------------
O3   c O3   s Spring (c-s)  Spring k 2       128.14270    eV*Ang^-2 0.000  0.800
                            Spring k 4       0.0000000    eV*Ang^-4 
--------------------------------------------------------------------------------

  General Three-body potentials :

--------------------------------------------------------------------------------
  Atoms       Potential      Parameter       Value         Units   Cutoffs(Ang)
  1 / 2 / 3                                                          Min /  Max 
--------------------------------------------------------------------------------
Si    core    Harmonic      Three-body cnst  1.2614000    eV*rad^-2 0.000  1.900
O1    shel                  Three-body angl  109.47000    degrees   0.000  1.900
O1    shel                  Three-body k4    0.0000000    eV*rad^-4 0.000  3.500
                            Three-body k3    0.0000000    eV*rad^-3 
--------------------------------------------------------------------------------
Si    core    Harmonic      Three-body cnst  1.2614000    eV*rad^-2 0.000  1.900
O1    shel                  Three-body angl  109.47000    degrees   0.000  1.900
õ(1   shel                  Three-body k4    0.0000000    eV*rad^-4 0.000  3.500
                            Three-body k3    0.0000000    eV*rad^-3 
--------------------------------------------------------------------------------
Si    core    Harmonic      Three-body cnst  1.2614000    eV*rad^-2 0.000  1.900
õ(1   shel                  Three-body angl  109.47000    degrees   0.000  1.900
õ(1   shel                  Three-body k4    0.0000000    eV*rad^-4 0.000  3.500
                            Three-body k3    0.0000000    eV*rad^-3 
--------------------------------------------------------------------------------
Si    core    Harmonic      Three-body cnst  1.2614000    eV*rad^-2 0.000  1.900
O1    shel                  Three-body angl  109.47000    degrees   0.000  1.900
O2    shel                  Three-body k4    0.0000000    eV*rad^-4 0.000  3.500
                            Three-body k3    0.0000000    eV*rad^-3 
--------------------------------------------------------------------------------
Si    core    Harmonic      Three-body cnst  1.2614000    eV*rad^-2 0.000  1.900
O1    shel                  Three-body angl  109.47000    degrees   0.000  1.900
õ(2   shel                  Three-body k4    0.0000000    eV*rad^-4 0.000  3.500
                            Three-body k3    0.0000000    eV*rad^-3 
--------------------------------------------------------------------------------
Si    core    Harmonic      Three-body cnst  1.2614000    eV*rad^-2 0.000  1.900
O2    shel                  Three-body angl  109.47000    degrees   0.000  1.900
õ(1   shel                  Three-body k4    0.0000000    eV*rad^-4 0.000  3.500
                            Three-body k3    0.0000000    eV*rad^-3 
--------------------------------------------------------------------------------
Si    core    Harmonic      Three-body cnst  1.2614000    eV*rad^-2 0.000  1.900
õ(1   shel                  Three-body angl  109.47000    degrees   0.000  1.900
õ(2   shel                  Three-body k4    0.0000000    eV*rad^-4 0.000  3.500
                            Three-body k3    0.0000000    eV*rad^-3 
--------------------------------------------------------------------------------
Si    core    Harmonic      Three-body cnst  1.2614000    eV*rad^-2 0.000  1.900
O2    shel                  Three-body angl  109.47000    degrees   0.000  1.900
O2    shel                  Three-body k4    0.0000000    eV*rad^-4 0.000  3.500
                            Three-body k3    0.0000000    eV*rad^-3 
--------------------------------------------------------------------------------
Si    core    Harmonic      Three-body cnst  1.2614000    eV*rad^-2 0.000  1.900
O2    shel                  Three-body angl  109.47000    degrees   0.000  1.900
õ(2   shel                  Three-body k4    0.0000000    eV*rad^-4 0.000  3.500
                            Three-body k3    0.0000000    eV*rad^-3 
--------------------------------------------------------------------------------
Si    core    Harmonic      Three-body cnst  1.2614000    eV*rad^-2 0.000  1.900
õ(2   shel                  Three-body angl  109.47000    degrees   0.000  1.900
õ(2   shel                  Three-body k4    0.0000000    eV*rad^-4 0.000  3.500
                            Three-body k3    0.0000000    eV*rad^-3 
--------------------------------------------------------------------------------

********************************************************************************
*  Output for configuration   1 : c00060.vasp                                  *
********************************************************************************


  Components of energy : 

--------------------------------------------------------------------------------
  Interatomic potentials     =         392.32720045 eV    
  Three-body potentials      =           0.00001424 eV    
  Monopole - monopole (real) =       -1236.99964305 eV    
  Monopole - monopole (recip)=        -659.26603192 eV    
  Monopole - monopole (total)=       -1896.26567496 eV    
--------------------------------------------------------------------------------
  Total lattice energy       =       -1503.93846027 eV    
--------------------------------------------------------------------------------
  Total lattice energy       =         -145107.0716 kJ/(mole unit cells)
--------------------------------------------------------------------------------


  Number of variables =      183

  Maximum number of calculations  =          1000
  Maximum Hessian update interval =            10
  Maximum step size               =   0.100000000
  Maximum parameter tolerance     =   0.000010000
  Maximum function  tolerance     =   0.000010000
  Maximum gradient  tolerance     =   0.001000000
  Maximum gradient  component     =   0.010000000

  Symmetry not applied to optimisation

  Cell parameters to be optimised using strains

  Newton-Raphson optimiser to be used

  BFGS hessian update to be used

  Lower half triangular hessian to be used

  Minimiser to switch to RFO
  When gradient norm is less than     0.050000

  Dumpfile to be written after every cycle

  Start of bulk optimisation :

  Cycle:      0 Energy:     -1503.938460  Gnorm:      5.200748  CPU:    0.030
  ** Hessian calculated **
  Cycle:      1 Energy:     -1514.155182  Gnorm:      3.466749  CPU:    0.095
  ** Hessian calculated **
  Cycle:      2 Energy:     -1520.440186  Gnorm:      1.883393  CPU:    0.181
  ** Hessian calculated **
  Cycle:      3 Energy:     -1522.753598  Gnorm:      1.044920  CPU:    0.240
  Cycle:      4 Energy:     -1523.429761  Gnorm:      0.531909  CPU:    0.277
  ** Hessian calculated **
  Cycle:      5 Energy:     -1523.652156  Gnorm:      0.264912  CPU:    0.343
  Cycle:      6 Energy:     -1523.712826  Gnorm:      0.131578  CPU:    0.386
  Cycle:      7 Energy:     -1523.732780  Gnorm:      0.063362  CPU:    0.429
  Cycle:      8 Energy:     -1523.740313  Gnorm:      0.030702  CPU:    0.472
  ** Hessian has wrong structure
  ** Imaginary eigenvectors =   2
  Cycle:      9 Energy:     -1523.743060  Gnorm:      0.050972  CPU:    0.542
  ** Hessian has wrong structure
  ** Imaginary eigenvectors =   2
  ** Hessian has wrong structure
  ** Imaginary eigenvectors =   2
  Cycle:     10 Energy:     -1523.748119  Gnorm:      0.053042  CPU:    0.696
  ** Hessian has wrong structure
  ** Imaginary eigenvectors =   1
  ** Hessian has required structure
  Cycle:     11 Energy:     -1523.796896  Gnorm:      0.042619  CPU:    0.836
  ** Hessian has required structure
  Cycle:     12 Energy:     -1523.825783  Gnorm:      0.043119  CPU:    0.886
  ** Hessian has required structure
  Cycle:     13 Energy:     -1523.842909  Gnorm:      0.028700  CPU:    0.929
  ** Hessian has required structure
  Cycle:     14 Energy:     -1523.854355  Gnorm:      0.041761  CPU:    0.971
  ** Hessian has required structure
  Cycle:     15 Energy:     -1523.860132  Gnorm:      0.035809  CPU:    1.021
  ** Hessian has required structure
  Cycle:     16 Energy:     -1523.864406  Gnorm:      0.026784  CPU:    1.070
  ** Hessian has required structure
  Cycle:     17 Energy:     -1523.866740  Gnorm:      0.016009  CPU:    1.119
  ** Hessian has required structure
  Cycle:     18 Energy:     -1523.867667  Gnorm:      0.012648  CPU:    1.162
  ** Hessian has required structure
  Cycle:     19 Energy:     -1523.868238  Gnorm:      0.006428  CPU:    1.206
  ** Hessian has required structure
  Cycle:     20 Energy:     -1523.868430  Gnorm:      0.003477  CPU:    1.257
  ** Hessian has required structure
  Cycle:     21 Energy:     -1523.868535  Gnorm:      0.002181  CPU:    1.322
  ** Hessian has required structure
  Cycle:     22 Energy:     -1523.868581  Gnorm:      0.001198  CPU:    1.371
  ** Hessian has required structure
  Cycle:     23 Energy:     -1523.868595  Gnorm:      0.000573  CPU:    1.421
  ** Hessian has required structure
  Cycle:     24 Energy:     -1523.868597  Gnorm:      0.000413  CPU:    1.457
  ** Hessian has required structure
  Cycle:     25 Energy:     -1523.868599  Gnorm:      0.000326  CPU:    1.493
  ** Hessian has required structure
  Cycle:     26 Energy:     -1523.868599  Gnorm:      0.000308  CPU:    1.529
  ** Hessian has required structure
  Cycle:     27 Energy:     -1523.868599  Gnorm:      0.000299  CPU:    1.565
  ** Hessian has required structure
  Cycle:     28 Energy:     -1523.868599  Gnorm:      0.000294  CPU:    1.601
  ** Hessian has required structure
  Cycle:     29 Energy:     -1523.868599  Gnorm:      0.000292  CPU:    1.637
  ** Hessian has required structure
  Cycle:     30 Energy:     -1523.868599  Gnorm:      0.000292  CPU:    1.674
  ** Hessian has required structure
  Cycle:     31 Energy:     -1523.868599  Gnorm:      0.000292  CPU:    1.793
  ** Hessian calculated **
  Cycle:     32 Energy:     -1523.868600  Gnorm:      0.000155  CPU:    1.844
  ** Hessian has required structure
  Cycle:     33 Energy:     -1523.868600  Gnorm:      0.000165  CPU:    1.877
  ** Hessian has required structure
  Cycle:     34 Energy:     -1523.868600  Gnorm:      0.000155  CPU:    1.933
  ** Hessian has required structure
  Cycle:     35 Energy:     -1523.868600  Gnorm:      0.000153  CPU:    1.992
  ** Hessian has required structure
  Cycle:     36 Energy:     -1523.868600  Gnorm:      0.000152  CPU:    2.029
  ** Hessian has required structure


  **** Optimisation achieved ****


  Final energy =   -1523.86859966 eV      
  Final Gnorm  =       0.00015106

  Components of energy : 

--------------------------------------------------------------------------------
  Interatomic potentials     =         405.70341281 eV    
  Three-body potentials      =           0.07814952 eV    
  Monopole - monopole (real) =        -887.15484494 eV    
  Monopole - monopole (recip)=       -1042.49531706 eV    
  Monopole - monopole (total)=       -1929.65016200 eV    
--------------------------------------------------------------------------------
  Total lattice energy       =       -1523.86859966 eV    
--------------------------------------------------------------------------------
  Total lattice energy       =         -147030.0254 kJ/(mole unit cells)
--------------------------------------------------------------------------------

  Final fractional coordinates of atoms :

--------------------------------------------------------------------------------
   No.  Atomic        x           y          z          Radius
        Label       (Frac)      (Frac)     (Frac)       (Angs) 
--------------------------------------------------------------------------------
     1  Ge    c     0.879680    0.000000    0.350160    0.000000
     2  Ge    c     0.099354    0.978221    0.161388    0.000000
     3  Ge    c     0.907768    0.991476    0.839950    0.000000
     4  Si    c     0.329983    0.273815    0.327609    0.000000
     5  Si    c     0.690621    0.295267    0.721130    0.000000
     6  Si    c     0.673742    0.697178    0.717135    0.000000
     7  Si    c     0.308088    0.672629    0.323361    0.000000
     8  Si    c     0.336654    0.272540    0.635315    0.000000
     9  Si    c     0.681993    0.300263    0.416722    0.000000
    10  Si    c     0.659822    0.704770    0.411129    0.000000
    11  Si    c     0.320615    0.668377    0.632456    0.000000
    12  Si    c     0.118697    0.972758    0.641551    0.000000
    13  O2    c     0.307572    0.234837    0.475418    0.000000
    14  O2    c     0.715070    0.246037    0.575691    0.000000
    15  O2    c     0.691807    0.756044    0.570102    0.000000
    16  O2    c     0.287793    0.704756    0.471972    0.000000
    17  O2    c     0.279858    0.470626    0.283628    0.000000
    18  O2    c     0.725835    0.498560    0.750901    0.000000
    19  O2    c     0.507128    0.249018    0.335970    0.000000
    20  O2    c     0.515538    0.251517    0.716110    0.000000
    21  O2    c     0.496711    0.712874    0.712553    0.000000
    22  O2    c     0.480873    0.728174    0.329734    0.000000
    23  O3    c     0.227848    0.146616    0.217648    0.000000
    24  O3    c     0.805475    0.181468    0.834581    0.000000
    25  O3    c     0.779374    0.819829    0.830110    0.000000
    26  O3    c     0.185543    0.780767    0.213131    0.000000
    27  O2    c     0.283326    0.467078    0.657637    0.000000
    28  O2    c     0.709020    0.505800    0.402982    0.000000
    29  O2    c     0.236700    0.135504    0.692743    0.000000
    30  O3    c     0.794562    0.197534    0.355503    0.000000
    31  O3    c     0.755306    0.827965    0.342414    0.000000
    32  O2    c     0.211966    0.792763    0.687150    0.000000
    33  O3    c     0.049082    0.978982    0.478561    0.000000
    34  O1    c     0.934282    0.999426    0.204217    0.000000
    35  O3    c     0.980544    0.981823    0.703432    0.000000
    36  O1    c     0.053081    0.981621    0.986522    0.000000
    37  O2    s     0.313062    0.242977    0.476959    0.000000
    38  O2    s     0.709172    0.256536    0.574153    0.000000
    39  O2    s     0.686729    0.744912    0.568621    0.000000
    40  O2    s     0.293578    0.697394    0.473602    0.000000
    41  O2    s     0.288278    0.471260    0.292633    0.000000
    42  O2    s     0.716417    0.497726    0.744070    0.000000
    43  O2    s     0.506852    0.257077    0.343655    0.000000
    44  O2    s     0.514520    0.258402    0.707915    0.000000
    45  O2    s     0.496578    0.706361    0.704414    0.000000
    46  O2    s     0.481631    0.719870    0.337687    0.000000
    47  O3    s     0.228347    0.146531    0.225121    0.000000
    48  O3    s     0.801424    0.178639    0.823150    0.000000
    49  O3    s     0.778221    0.820201    0.818970    0.000000
    50  O3    s     0.191789    0.785220    0.220902    0.000000
    51  O2    s     0.292800    0.468033    0.652693    0.000000
    52  O2    s     0.700870    0.504895    0.405339    0.000000
    53  O2    s     0.235560    0.133891    0.681349    0.000000
    54  O3    s     0.789536    0.192338    0.361589    0.000000
    55  O3    s     0.755420    0.829085    0.350478    0.000000
    56  O2    s     0.214191    0.797566    0.676701    0.000000
    57  O3    s     0.041989    0.980111    0.483989    0.000000
    58  O1    s     0.942944    0.997812    0.211973    0.000000
    59  O3    s     0.989350    0.981654    0.708072    0.000000
    60  O1    s     0.044475    0.982187    0.987769    0.000000
--------------------------------------------------------------------------------

  Final Cartesian lattice vectors (Angstroms) :

        9.149859   -0.063219    0.122964
       -0.052451    7.695661    0.018530
       -3.189758    0.048798    9.737964


  Final cell parameters and derivatives :

--------------------------------------------------------------------------------
       a            9.150904 Angstrom     dE/de1(xx)    -0.001536 eV/strain
       b            7.695862 Angstrom     dE/de2(yy)     0.002154 eV/strain
       c           10.247189 Angstrom     dE/de3(zz)     0.000173 eV/strain
       alpha       89.474497 Degrees      dE/de4(yz)     0.000233 eV/strain
       beta       107.368074 Degrees      dE/de5(xz)    -0.000197 eV/strain
       gamma       90.784441 Degrees      dE/de6(xy)     0.000466 eV/strain
--------------------------------------------------------------------------------

  Primitive cell volume =           688.672407 Angs**3

  Density of cell =      2.060756 g/cm**3

  Non-primitive cell volume =           688.672407 Angs**3


  Final internal derivatives :

--------------------------------------------------------------------------------
   No.  Atomic          a             b             c           Radius
        Label          (eV)          (eV)          (eV)        (eV/Angs)
--------------------------------------------------------------------------------
      1 Ge    c       0.000000      0.000000      0.000000      0.000000
      2 Ge    c       0.001612     -0.001346      0.001679      0.000000
      3 Ge    c       0.001730     -0.001052     -0.009968      0.000000
      4 Si    c       0.000936      0.000187      0.003959      0.000000
      5 Si    c       0.001827     -0.001182     -0.001089      0.000000
      6 Si    c       0.002426      0.001766     -0.000534      0.000000
      7 Si    c       0.000815     -0.000136      0.002265      0.000000
      8 Si    c      -0.000589     -0.001275      0.000175      0.000000
      9 Si    c      -0.002340     -0.000069      0.002829      0.000000
     10 Si    c      -0.002115      0.000841      0.004104      0.000000
     11 Si    c       0.000148      0.000842     -0.000017      0.000000
     12 Si    c       0.001117      0.000513      0.000500      0.000000
     13 O2    c       0.002261      0.000559      0.001078      0.000000
     14 O2    c      -0.001441      0.000572     -0.000384      0.000000
     15 O2    c      -0.002020     -0.000879      0.000787      0.000000
     16 O2    c       0.002631     -0.000479     -0.000241      0.000000
     17 O2    c      -0.000288      0.001236      0.001109      0.000000
     18 O2    c       0.000404      0.000065     -0.002017      0.000000
     19 O2    c       0.001796      0.000497      0.001684      0.000000
     20 O2    c      -0.002096      0.000301     -0.002248      0.000000
     21 O2    c      -0.000503     -0.000516     -0.002500      0.000000
     22 O2    c       0.000285     -0.000468      0.001818      0.000000
     23 O3    c       0.002678      0.003093     -0.003386      0.000000
     24 O3    c       0.001956     -0.000037     -0.004676      0.000000
     25 O3    c       0.000972     -0.000739     -0.005408      0.000000
     26 O3    c       0.001129     -0.002890      0.000046      0.000000
     27 O2    c       0.001212      0.000517     -0.001454      0.000000
     28 O2    c      -0.001075     -0.001917      0.001207      0.000000
     29 O2    c       0.000304     -0.000124     -0.001492      0.000000
     30 O3    c      -0.001776      0.002211      0.000971      0.000000
     31 O3    c      -0.001960     -0.002276      0.000464      0.000000
     32 O2    c      -0.000545      0.000646     -0.000363      0.000000
     33 O3    c      -0.000078     -0.000054      0.002413      0.000000
     34 O1    c      -0.008513      0.000114      0.006242      0.000000
     35 O3    c      -0.000675     -0.000409     -0.000559      0.000000
     36 O1    c       0.003307      0.000040     -0.002957      0.000000
     37 O2    s      -0.000584      0.000589      0.002599      0.000000
     38 O2    s       0.000208      0.000964     -0.001201      0.000000
     39 O2    s      -0.000071     -0.000709      0.000259      0.000000
     40 O2    s      -0.000658     -0.000648      0.001397      0.000000
     41 O2    s       0.000324      0.000782      0.001297      0.000000
     42 O2    s      -0.001712      0.000565      0.001435      0.000000
     43 O2    s       0.001847      0.000947     -0.000214      0.000000
     44 O2    s      -0.002103      0.000366      0.001555      0.000000
     45 O2    s      -0.001211     -0.000567      0.001400      0.000000
     46 O2    s       0.000086     -0.000413     -0.000682      0.000000
     47 O3    s       0.000187      0.001220     -0.001960      0.000000
     48 O3    s      -0.003315      0.001010      0.005478      0.000000
     49 O3    s      -0.003107     -0.000968      0.003557      0.000000
     50 O3    s       0.000568     -0.001893     -0.001116      0.000000
     51 O2    s       0.001790     -0.000204     -0.001463      0.000000
     52 O2    s      -0.001124     -0.000860      0.000583      0.000000
     53 O2    s      -0.000086      0.000325      0.000456      0.000000
     54 O3    s       0.000086      0.002124     -0.002671      0.000000
     55 O3    s      -0.000037     -0.001538     -0.003310      0.000000
     56 O2    s      -0.000173     -0.000028      0.001531      0.000000
     57 O3    s       0.002280      0.000429      0.001306      0.000000
     58 O1    s       0.000720     -0.000085     -0.004758      0.000000
     59 O3    s       0.005021     -0.000612     -0.004851      0.000000
     60 O1    s      -0.003850      0.000672      0.002691      0.000000
--------------------------------------------------------------------------------
  Maximum abs         0.008513      0.003093      0.009968      0.000000
--------------------------------------------------------------------------------


  Born effective charge tensors : 

-------------------------------------------------------------------------------
  Atom             x           y             z
-------------------------------------------------------------------------------
    1 Ge    x       4.5843     -0.1151     -0.2875
            y       0.0653      3.9919      0.0611
            z      -0.2518     -0.0136      3.6906
-------------------------------------------------------------------------------
    2 Ge    x       4.1101     -0.1370      0.2571
            y       0.0891      3.9690      0.0084
            z      -0.0181     -0.0264      4.9046
-------------------------------------------------------------------------------
    3 Ge    x       4.0972     -0.0976     -0.1571
            y       0.0393      3.9364      0.0225
            z       0.8093     -0.0589      4.6319
-------------------------------------------------------------------------------
    4 Si    x       3.1605      0.3039      0.2822
            y       0.2400      3.5862      0.3989
            z       0.2692      0.3471      3.1449
-------------------------------------------------------------------------------
    5 Si    x       3.2467     -0.3273      0.3222
            y      -0.3005      3.5438     -0.4376
            z       0.3168     -0.2545      3.0657
-------------------------------------------------------------------------------
    6 Si    x       3.2175      0.3787      0.3224
            y       0.2381      3.5700      0.4222
            z       0.2950      0.2725      3.0699
-------------------------------------------------------------------------------
    7 Si    x       3.2150     -0.2541      0.3026
            y      -0.3666      3.5122     -0.3836
            z       0.3527     -0.2719      3.1432
-------------------------------------------------------------------------------
    8 Si    x       3.2105      0.2918      0.0172
            y       0.2236      3.4127     -0.0515
            z       0.0482      0.0418      2.6272
-------------------------------------------------------------------------------
    9 Si    x       3.5554     -0.3516     -0.1380
            y      -0.5030      3.5195      0.2090
            z      -0.1115      0.0486      2.7372
-------------------------------------------------------------------------------
   10 Si    x       3.4827      0.4210     -0.1502
            y       0.4141      3.5844     -0.2610
            z      -0.0893     -0.0688      2.7662
-------------------------------------------------------------------------------
   11 Si    x       3.2010     -0.2550      0.0307
            y      -0.2930      3.4118      0.0609
            z       0.0498     -0.0130      2.6233
-------------------------------------------------------------------------------
   12 Si    x       4.1229     -0.1010      0.1994
            y       0.0274      3.3970      0.0066
            z      -0.5273      0.0174      3.1307
-------------------------------------------------------------------------------
   13 O2    x      -1.2835     -0.1268      0.2832
            y      -0.1052     -1.2741     -0.0094
            z       0.2801     -0.0172     -1.9356
-------------------------------------------------------------------------------
   14 O2    x      -1.2947      0.1331      0.2349
            y       0.1289     -1.3114      0.0520
            z       0.2370      0.0481     -1.9038
-------------------------------------------------------------------------------
   15 O2    x      -1.2791     -0.1439      0.2295
            y      -0.1126     -1.3226     -0.0385
            z       0.2217     -0.0250     -1.9144
-------------------------------------------------------------------------------
   16 O2    x      -1.2776      0.1167      0.2793
            y       0.1182     -1.2638      0.0209
            z       0.2631      0.0109     -1.9386
-------------------------------------------------------------------------------
   17 O2    x      -1.1247      0.0488     -0.0754
            y       0.0901     -2.4470      0.0109
            z      -0.0912      0.0061     -1.1475
-------------------------------------------------------------------------------
   18 O2    x      -1.1442      0.0417     -0.0866
            y       0.0666     -2.4603      0.0164
            z      -0.1008      0.0018     -1.1117
-------------------------------------------------------------------------------
   19 O2    x      -2.2087     -0.0474     -0.3335
            y      -0.0155     -1.2595     -0.0912
            z      -0.3320     -0.0749     -1.1743
-------------------------------------------------------------------------------
   20 O2    x      -2.2580     -0.0879     -0.3348
            y      -0.0637     -1.2426      0.0531
            z      -0.3586      0.0185     -1.1585
-------------------------------------------------------------------------------
   21 O2    x      -2.2537     -0.0510     -0.3252
            y      -0.0108     -1.2372     -0.0755
            z      -0.3442     -0.0609     -1.1515
-------------------------------------------------------------------------------
   22 O2    x      -2.2073     -0.0952     -0.3464
            y      -0.0748     -1.2617      0.0607
            z      -0.3284      0.0323     -1.1783
-------------------------------------------------------------------------------
   23 O3    x      -1.6881     -0.7310     -0.5795
            y      -0.7690     -2.3710     -0.8610
            z      -0.5778     -0.8440     -1.9801
-------------------------------------------------------------------------------
   24 O3    x      -1.7604      0.8136     -0.4451
            y       0.7990     -2.3594      0.6542
            z      -0.5650      0.6644     -1.8376
-------------------------------------------------------------------------------
   25 O3    x      -1.7950     -0.7962     -0.4384
            y      -0.8215     -2.3205     -0.6931
            z      -0.5554     -0.6746     -1.8421
-------------------------------------------------------------------------------
   26 O3    x      -1.6711      0.7282     -0.5873
            y       0.7228     -2.3817      0.8160
            z      -0.5856      0.8033     -1.9599
-------------------------------------------------------------------------------
   27 O2    x      -1.2253      0.0350      0.0326
            y       0.0709     -2.5019      0.0073
            z       0.0382      0.0075     -0.9904
-------------------------------------------------------------------------------
   28 O2    x      -1.2385      0.0516      0.0241
            y       0.0884     -2.5027      0.0247
            z       0.0335      0.0081     -0.9976
-------------------------------------------------------------------------------
   29 O2    x      -1.8189     -0.7551      0.0311
            y      -0.7388     -1.9972      0.0282
            z       0.1237      0.0284     -1.0941
-------------------------------------------------------------------------------
   30 O3    x      -2.3565      1.0516      0.3820
            y       1.0215     -2.3517     -0.3260
            z       0.3274     -0.2439     -1.2495
-------------------------------------------------------------------------------
   31 O3    x      -2.3592     -1.0761      0.3578
            y      -1.0879     -2.3437      0.3194
            z       0.3078      0.2543     -1.2721
-------------------------------------------------------------------------------
   32 O2    x      -1.7945      0.7544      0.0523
            y       0.6999     -2.0321     -0.0322
            z       0.1433     -0.0310     -1.0839
-------------------------------------------------------------------------------
   33 O3    x      -1.8638      0.0791     -0.6931
            y       0.0207     -1.2981      0.0638
            z      -0.3804      0.0775     -2.4009
-------------------------------------------------------------------------------
   34 O1    x      -2.8623      0.1396      0.8981
            y       0.0615     -1.3165     -0.0432
            z       0.8834     -0.0432     -2.2694
-------------------------------------------------------------------------------
   35 O3    x      -2.8969      0.1126      0.9116
            y       0.0423     -1.2745     -0.0459
            z       0.8708     -0.0563     -1.8583
-------------------------------------------------------------------------------
   36 O1    x      -1.5416      0.0476     -0.4725
            y      -0.0049     -1.3035      0.0327
            z      -0.6539      0.0894     -4.0854
-------------------------------------------------------------------------------




  Elastic Constant Matrix: (Units=GPa)

-------------------------------------------------------------------------------
  Indices      1         2         3         4         5         6    
-------------------------------------------------------------------------------
       1     49.2098   29.0719    7.3095   -1.9969    1.9351  -19.0407
       2     29.0719   78.5933   15.3133   -2.4688    7.8941  -22.6604
       3      7.3095   15.3133   29.4804   -1.3561   12.8818   -5.8730
       4     -1.9969   -2.4688   -1.3561   11.3522   -0.6712    5.3023
       5      1.9351    7.8941   12.8818   -0.6712   14.1632   -3.7645
       6    -19.0407  -22.6604   -5.8730    5.3023   -3.7645   19.4796
-------------------------------------------------------------------------------


  Elastic Compliance Matrix: (Units=1/GPa)

-------------------------------------------------------------------------------
  Indices      1         2         3         4         5         6    
-------------------------------------------------------------------------------
       1    0.035469 -0.003840 -0.005141 -0.010215  0.010374  0.033438
       2   -0.003840  0.021117 -0.005892 -0.006479 -0.000701  0.020663
       3   -0.005141 -0.005892  0.060096  0.004229 -0.051779 -0.004918
       4   -0.010215 -0.006479  0.004229  0.106737 -0.006138 -0.046486
       5    0.010374 -0.000701 -0.051779 -0.006138  0.121391  0.018843
       6    0.033438  0.020663 -0.004918 -0.046486  0.018843  0.122869
-------------------------------------------------------------------------------

  Mechanical properties :

-------------------------------------------------------------------------------
  Convention :                    Reuss         Voigt         Hill
-------------------------------------------------------------------------------
  Bulk  Modulus (GPa)     =      11.50278      28.96365      20.23322
  Shear Modulus (GPa)     =       9.49840      16.03827      12.76834
-------------------------------------------------------------------------------
  Velocity S-wave (km/s)  =       2.14690       2.78975       2.48917
  Velocity P-wave (km/s)  =       3.42453       4.94286       4.25201
-------------------------------------------------------------------------------
  Compressibility (1/GPa) =    0.08693551
-------------------------------------------------------------------------------
  Stress axis :                     x             y             z
-------------------------------------------------------------------------------
  Youngs Moduli (GPa)     =      28.19346      47.35571      16.63995
-------------------------------------------------------------------------------
  Poissons Ratio (x)      =                     0.18187       0.08555
  Poissons Ratio (y)      =       0.10828                     0.09804
  Poissons Ratio (z)      =       0.14494       0.27902
-------------------------------------------------------------------------------


  Piezoelectric Strain Matrix: (Units=C/m**2)

-------------------------------------------------------------------------------
  Indices      1         2         3         4         5         6    
-------------------------------------------------------------------------------
       x    -0.62216  -0.54916   0.60045   0.16669   0.11733   0.28955
       y    -0.52573  -0.62019  -0.29807   0.47496  -0.15468  -0.65197
       z     0.41361   0.52743   0.35452  -0.15227   1.06137  -0.45043
-------------------------------------------------------------------------------


  Piezoelectric Stress Matrix: (Units=10**-11 C/N)

-------------------------------------------------------------------------------
  Indices      1         2         3         4         5         6    
-------------------------------------------------------------------------------
       x    -1.38491  -0.79244   3.57242   1.60651  -1.84838  -0.50655
       y    -4.29893  -2.57615   0.16683   9.00804  -2.35621 -13.40279
       z     0.83269  -0.16043  -3.73144  -0.79715  10.68522  -0.52809
-------------------------------------------------------------------------------


  Static dielectric constant tensor : 

-------------------------------------------------------------------------------
              x         y         z
-------------------------------------------------------------------------------
       x     4.13719  -0.07838   0.06750
       y    -0.07838   4.23759  -0.01921
       z     0.06750  -0.01921   4.00216
--------------------------------------------------------------------------------

  High frequency dielectric constant tensor : 

-------------------------------------------------------------------------------
              x         y         z
-------------------------------------------------------------------------------
       x     1.63740  -0.00185   0.01295
       y    -0.00185   1.65160   0.00041
       z     0.01295   0.00041   1.57763
-------------------------------------------------------------------------------

  Static refractive indices : 

-------------------------------------------------------------------------------
    1 =    1.99338      2 =    2.02832      3 =    2.07107
-------------------------------------------------------------------------------

  High frequency refractive indices : 

-------------------------------------------------------------------------------
    1 =    1.25497      2 =    1.28056      3 =    1.28525
-------------------------------------------------------------------------------


  Time to end of optimisation =       2.1136 seconds


  Peak dynamic memory used =       2.76 MB 


  Timing analysis for GULP :

--------------------------------------------------------------------------------
  Task / Subroutine                                          Time (Seconds)
--------------------------------------------------------------------------------
  Calculation of reciprocal space energy and derivatives          0.1456
  Calculation of real space energy and derivatives                1.6726
  Calculation of three-body energy and derivatives                0.0714
  Calculation and manipulation of Hessian matrix                  0.3251
  Calculation of matrix inversion                                 0.0036
--------------------------------------------------------------------------------
  Total CPU time                                                  2.1137
--------------------------------------------------------------------------------


  Dump file written as c00060.vasp.grs
  CIF file written as c00060.vasp.cif


  Job Finished at 21:29.18  6th October    2025                               

