********************************************************************************
*                       GENERAL UTILITY LATTICE PROGRAM                        *
*                                 Julian Gale                                  *
*                       Curtin Institute for Computation                       *
*                    School of Molecular and Life Sciences                     *
*                    Curtin University, Western Australia                      *
********************************************************************************
* Version = 6.1.2 * Last modified =   3rd November 2022                        *
********************************************************************************
*  optimise     - perform optimisation run                                     *
*  conp         - constant pressure calculation                                *
*  property     - calculate properties for final geometry                      *
********************************************************************************

  Job Started  at 21:27.22  6th October    2025                               

  Number of CPUs =     1


  Total number of configurations input =      1

********************************************************************************
*  Input for Configuration =   1 : c00024.vasp                                 *
********************************************************************************

  Formula = Ge3Si9O24                                                   

  Number of irreducible atoms/shells =      60


  Total number atoms/shells =      60

  Dimensionality = 3               :  Bulk   



  Cartesian lattice vectors (Angstroms) :

        9.086940    0.000000    0.000000
        0.000000    7.554810    0.000000
       -3.295144    0.000000    9.944380

  Cell parameters (Angstroms/Degrees):

  a =       9.0869    alpha =  90.0000
  b =       7.5548    beta  = 108.3330
  c =      10.4761    gamma =  90.0000

  Initial cell volume =         682.682735 Angs**3

  Temperature of configuration =   0.00     K 

  Pressure of configuration =         0.000 GPa 

  Fractional coordinates of asymmetric unit :

--------------------------------------------------------------------------------
   No.  Atomic       x           y          z         Charge      Occupancy
        Label      (Frac)      (Frac)     (Frac)        (e)         (Frac)  
--------------------------------------------------------------------------------
      1 Ge    c    0.313820    0.296860    0.309830     4.00000    1.000000    
      2 Ge    c    0.668950 *  0.296920 *  0.392620 *   4.00000    1.000000    
      3 Ge    c    0.331050 *  0.703080 *  0.607380 *   4.00000    1.000000    
      4 Si    c    0.686180 *  0.296860 *  0.690170 *   4.00000    1.000000    
      5 Si    c    0.686180 *  0.703140 *  0.690170 *   4.00000    1.000000    
      6 Si    c    0.313820 *  0.703140 *  0.309830 *   4.00000    1.000000    
      7 Si    c    0.331050 *  0.296920 *  0.607380 *   4.00000    1.000000    
      8 Si    c    0.668950 *  0.703080 *  0.392620 *   4.00000    1.000000    
      9 Si    c    0.879680 *  0.000000 *  0.350160 *   4.00000    1.000000    
     10 Si    c    0.120320 *  0.000000 *  0.649840 *   4.00000    1.000000    
     11 Si    c    0.093070 *  0.000000 *  0.158230 *   4.00000    1.000000    
     12 Si    c    0.906930 *  0.000000 *  0.841770 *   4.00000    1.000000    
     13 O3    c    0.268740 *  0.279030 *  0.446100 *   1.33043    1.000000    
     14 O3    c    0.731260 *  0.279030 *  0.553900 *   1.33043    1.000000    
     15 O2    c    0.731260 *  0.720970 *  0.553900 *   0.87073    1.000000    
     16 O3    c    0.268740 *  0.720970 *  0.446100 *   1.33043    1.000000    
     17 O3    c    0.295480 *  0.500000 *  0.260860 *   1.33043    1.000000    
     18 O2    c    0.704520 *  0.500000 *  0.739140 *   0.87073    1.000000    
     19 O1    c    0.490600 *  0.234690 *  0.337530 *   1.73396    1.000000    
     20 O2    c    0.509400 *  0.234690 *  0.662470 *   0.87073    1.000000    
     21 O3    c    0.509400 *  0.765310 *  0.662470 *   1.33043    1.000000    
     22 O2    c    0.490600 *  0.765310 *  0.337530 *   0.87073    1.000000    
     23 O3    c    0.200440 *  0.174000 *  0.194980 *   1.33043    1.000000    
     24 O2    c    0.799560 *  0.174000 *  0.805020 *   0.87073    1.000000    
     25 O2    c    0.799560 *  0.826000 *  0.805020 *   0.87073    1.000000    
     26 O2    c    0.200440 *  0.826000 *  0.194980 *   0.87073    1.000000    
     27 O3    c    0.317860 *  0.500000 *  0.649090 *   1.33043    1.000000    
     28 O3    c    0.682140 *  0.500000 *  0.350910 *   1.33043    1.000000    
     29 O2    c    0.227920 *  0.173870 *  0.671620 *   0.87073    1.000000    
     30 O3    c    0.772080 *  0.173870 *  0.328380 *   1.33043    1.000000    
     31 O2    c    0.772080 *  0.826130 *  0.328380 *   0.87073    1.000000    
     32 O3    c    0.227920 *  0.826130 *  0.671620 *   1.33043    1.000000    
     33 O2    c    0.000000 *  0.000000 *  0.500000 *   0.87073    1.000000    
     34 O2    c    0.971960 *  0.000000 *  0.241930 *   0.87073    1.000000    
     35 O2    c    0.028040 *  0.000000 *  0.758070 *   0.87073    1.000000    
     36 O2    c    0.000000 *  0.000000 *  0.000000 *   0.87073    1.000000    
     37 O3    s    0.268740 *  0.279030 *  0.446100 *  -3.33043    1.000000    
     38 O3    s    0.731260 *  0.279030 *  0.553900 *  -3.33043    1.000000    
     39 O2    s    0.731260 *  0.720970 *  0.553900 *  -2.87073    1.000000    
     40 O3    s    0.268740 *  0.720970 *  0.446100 *  -3.33043    1.000000    
     41 O3    s    0.295480 *  0.500000 *  0.260860 *  -3.33043    1.000000    
     42 O2    s    0.704520 *  0.500000 *  0.739140 *  -2.87073    1.000000    
     43 O1    s    0.490600 *  0.234690 *  0.337530 *  -3.73396    1.000000    
     44 O2    s    0.509400 *  0.234690 *  0.662470 *  -2.87073    1.000000    
     45 O3    s    0.509400 *  0.765310 *  0.662470 *  -3.33043    1.000000    
     46 O2    s    0.490600 *  0.765310 *  0.337530 *  -2.87073    1.000000    
     47 O3    s    0.200440 *  0.174000 *  0.194980 *  -3.33043    1.000000    
     48 O2    s    0.799560 *  0.174000 *  0.805020 *  -2.87073    1.000000    
     49 O2    s    0.799560 *  0.826000 *  0.805020 *  -2.87073    1.000000    
     50 O2    s    0.200440 *  0.826000 *  0.194980 *  -2.87073    1.000000    
     51 O3    s    0.317860 *  0.500000 *  0.649090 *  -3.33043    1.000000    
     52 O3    s    0.682140 *  0.500000 *  0.350910 *  -3.33043    1.000000    
     53 O2    s    0.227920 *  0.173870 *  0.671620 *  -2.87073    1.000000    
     54 O3    s    0.772080 *  0.173870 *  0.328380 *  -3.33043    1.000000    
     55 O2    s    0.772080 *  0.826130 *  0.328380 *  -2.87073    1.000000    
     56 O3    s    0.227920 *  0.826130 *  0.671620 *  -3.33043    1.000000    
     57 O2    s    0.000000 *  0.000000 *  0.500000 *  -2.87073    1.000000    
     58 O2    s    0.971960 *  0.000000 *  0.241930 *  -2.87073    1.000000    
     59 O2    s    0.028040 *  0.000000 *  0.758070 *  -2.87073    1.000000    
     60 O2    s    0.000000 *  0.000000 *  0.000000 *  -2.87073    1.000000    
--------------------------------------------------------------------------------



********************************************************************************
*  General input information                                                   *
********************************************************************************

  Species output for all configurations : 

--------------------------------------------------------------------------------
  Species    Type    Atomic    Atomic    Charge       Radii (Angs)     Library
                     Number     Mass       (e)     Cova   Ionic  VDW   Symbol
--------------------------------------------------------------------------------
    Ge       Core       32      72.61   4.000000   1.170  0.000  1.750 Ge       
    Si       Core       14      28.09   4.000000   1.200  0.000  2.100 Si       
    O1       Core        8      16.00   1.733957   0.730  0.000  1.360 O1       
    O2       Core        8      16.00   0.870733   0.730  0.000  1.360 O2       
    O3       Core        8      16.00   1.330431   0.730  0.000  1.360 O3       
    O1       Shell       8       0.00  -3.733957   0.730  0.000  0.000 O1       
    O2       Shell       8       0.00  -2.870733   0.730  0.000  0.000 O2       
    O3       Shell       8       0.00  -3.330431   0.730  0.000  0.000 O3       
--------------------------------------------------------------------------------


  Lattice summation method               =    Ewald          (3-D)
                                         =    Parry          (2-D)
                                         =    Saunders et al (1-D)
  Accuracy factor for lattice sums       =   12.000


  Analytic derivatives to be used

  Time limit = Infinity

  Maximum range for interatomic potentials =    100000.000000 Angstroms

  General interatomic potentials :

--------------------------------------------------------------------------------
Atom  Types   Potential      Parameter       Value         Units   Cutoffs(Ang)
  1     2                                                            Min /  Max 
--------------------------------------------------------------------------------
Si   c O1   s Buckingham    Buckingham A     1315.2478    eV        0.000 16.000
                            Buckingham rho  0.31775900    Ang       
                            Buckingham C     10.141118    eV*Ang^6  
--------------------------------------------------------------------------------
Si   c O2   s Buckingham    Buckingham A     1315.2478    eV        0.000 16.000
                            Buckingham rho  0.31775900    Ang       
                            Buckingham C     10.141118    eV*Ang^6  
--------------------------------------------------------------------------------
Si   c O3   s Buckingham    Buckingham A     1315.2478    eV        0.000 16.000
                            Buckingham rho  0.31775900    Ang       
                            Buckingham C     10.141118    eV*Ang^6  
--------------------------------------------------------------------------------
Ge   c O1   s Buckingham    Buckingham A     1497.3996    eV        0.000 16.000
                            Buckingham rho  0.32564600    Ang       
                            Buckingham C     16.808599    eV*Ang^6  
--------------------------------------------------------------------------------
Ge   c O2   s Buckingham    Buckingham A     1497.3996    eV        0.000 16.000
                            Buckingham rho  0.32564600    Ang       
                            Buckingham C     16.808599    eV*Ang^6  
--------------------------------------------------------------------------------
Ge   c O3   s Buckingham    Buckingham A     1497.3996    eV        0.000 16.000
                            Buckingham rho  0.32564600    Ang       
                            Buckingham C     16.808599    eV*Ang^6  
--------------------------------------------------------------------------------
O1   s O1   s Buckingham    Buckingham A     22764.000    eV        0.000 16.000
                            Buckingham rho  0.14900000    Ang       
                            Buckingham C     10.937044    eV*Ang^6  
--------------------------------------------------------------------------------
O1   s O2   s Buckingham    Buckingham A     22764.000    eV        0.000 16.000
                            Buckingham rho  0.14900000    Ang       
                            Buckingham C     10.937044    eV*Ang^6  
--------------------------------------------------------------------------------
O1   s O3   s Buckingham    Buckingham A     22764.000    eV        0.000 16.000
                            Buckingham rho  0.14900000    Ang       
                            Buckingham C     10.937044    eV*Ang^6  
--------------------------------------------------------------------------------
O2   s O2   s Buckingham    Buckingham A     22764.000    eV        0.000 16.000
                            Buckingham rho  0.14900000    Ang       
                            Buckingham C     10.937044    eV*Ang^6  
--------------------------------------------------------------------------------
O2   s O3   s Buckingham    Buckingham A     22764.000    eV        0.000 16.000
                            Buckingham rho  0.14900000    Ang       
                            Buckingham C     10.937044    eV*Ang^6  
--------------------------------------------------------------------------------
O3   s O3   s Buckingham    Buckingham A     22764.000    eV        0.000 16.000
                            Buckingham rho  0.14900000    Ang       
                            Buckingham C     10.937044    eV*Ang^6  
--------------------------------------------------------------------------------
O1   c O1   s Spring (c-s)  Spring k 2       180.31577    eV*Ang^-2 0.000  0.800
                            Spring k 4       0.0000000    eV*Ang^-4 
--------------------------------------------------------------------------------
O2   c O2   s Spring (c-s)  Spring k 2       75.969800    eV*Ang^-2 0.000  0.800
                            Spring k 4       0.0000000    eV*Ang^-4 
--------------------------------------------------------------------------------
O3   c O3   s Spring (c-s)  Spring k 2       128.14270    eV*Ang^-2 0.000  0.800
                            Spring k 4       0.0000000    eV*Ang^-4 
--------------------------------------------------------------------------------

  General Three-body potentials :

--------------------------------------------------------------------------------
  Atoms       Potential      Parameter       Value         Units   Cutoffs(Ang)
  1 / 2 / 3                                                          Min /  Max 
--------------------------------------------------------------------------------
Si    core    Harmonic      Three-body cnst  1.2614000    eV*rad^-2 0.000  1.900
O1    shel                  Three-body angl  109.47000    degrees   0.000  1.900
O1    shel                  Three-body k4    0.0000000    eV*rad^-4 0.000  3.500
                            Three-body k3    0.0000000    eV*rad^-3 
--------------------------------------------------------------------------------
Si    core    Harmonic      Three-body cnst  1.2614000    eV*rad^-2 0.000  1.900
O1    shel                  Three-body angl  109.47000    degrees   0.000  1.900
õ(1   shel                  Three-body k4    0.0000000    eV*rad^-4 0.000  3.500
                            Three-body k3    0.0000000    eV*rad^-3 
--------------------------------------------------------------------------------
Si    core    Harmonic      Three-body cnst  1.2614000    eV*rad^-2 0.000  1.900
õ(1   shel                  Three-body angl  109.47000    degrees   0.000  1.900
õ(1   shel                  Three-body k4    0.0000000    eV*rad^-4 0.000  3.500
                            Three-body k3    0.0000000    eV*rad^-3 
--------------------------------------------------------------------------------
Si    core    Harmonic      Three-body cnst  1.2614000    eV*rad^-2 0.000  1.900
O1    shel                  Three-body angl  109.47000    degrees   0.000  1.900
O2    shel                  Three-body k4    0.0000000    eV*rad^-4 0.000  3.500
                            Three-body k3    0.0000000    eV*rad^-3 
--------------------------------------------------------------------------------
Si    core    Harmonic      Three-body cnst  1.2614000    eV*rad^-2 0.000  1.900
O1    shel                  Three-body angl  109.47000    degrees   0.000  1.900
õ(2   shel                  Three-body k4    0.0000000    eV*rad^-4 0.000  3.500
                            Three-body k3    0.0000000    eV*rad^-3 
--------------------------------------------------------------------------------
Si    core    Harmonic      Three-body cnst  1.2614000    eV*rad^-2 0.000  1.900
O2    shel                  Three-body angl  109.47000    degrees   0.000  1.900
õ(1   shel                  Three-body k4    0.0000000    eV*rad^-4 0.000  3.500
                            Three-body k3    0.0000000    eV*rad^-3 
--------------------------------------------------------------------------------
Si    core    Harmonic      Three-body cnst  1.2614000    eV*rad^-2 0.000  1.900
õ(1   shel                  Three-body angl  109.47000    degrees   0.000  1.900
õ(2   shel                  Three-body k4    0.0000000    eV*rad^-4 0.000  3.500
                            Three-body k3    0.0000000    eV*rad^-3 
--------------------------------------------------------------------------------
Si    core    Harmonic      Three-body cnst  1.2614000    eV*rad^-2 0.000  1.900
O2    shel                  Three-body angl  109.47000    degrees   0.000  1.900
O2    shel                  Three-body k4    0.0000000    eV*rad^-4 0.000  3.500
                            Three-body k3    0.0000000    eV*rad^-3 
--------------------------------------------------------------------------------
Si    core    Harmonic      Three-body cnst  1.2614000    eV*rad^-2 0.000  1.900
O2    shel                  Three-body angl  109.47000    degrees   0.000  1.900
õ(2   shel                  Three-body k4    0.0000000    eV*rad^-4 0.000  3.500
                            Three-body k3    0.0000000    eV*rad^-3 
--------------------------------------------------------------------------------
Si    core    Harmonic      Three-body cnst  1.2614000    eV*rad^-2 0.000  1.900
õ(2   shel                  Three-body angl  109.47000    degrees   0.000  1.900
õ(2   shel                  Three-body k4    0.0000000    eV*rad^-4 0.000  3.500
                            Three-body k3    0.0000000    eV*rad^-3 
--------------------------------------------------------------------------------

********************************************************************************
*  Output for configuration   1 : c00024.vasp                                  *
********************************************************************************


  Components of energy : 

--------------------------------------------------------------------------------
  Interatomic potentials     =         392.27612865 eV    
  Three-body potentials      =           0.00024982 eV    
  Monopole - monopole (real) =       -1236.99964305 eV    
  Monopole - monopole (recip)=        -659.26603192 eV    
  Monopole - monopole (total)=       -1896.26567496 eV    
--------------------------------------------------------------------------------
  Total lattice energy       =       -1503.98929649 eV    
--------------------------------------------------------------------------------
  Total lattice energy       =         -145111.9765 kJ/(mole unit cells)
--------------------------------------------------------------------------------


  Number of variables =      183

  Maximum number of calculations  =          1000
  Maximum Hessian update interval =            10
  Maximum step size               =   0.100000000
  Maximum parameter tolerance     =   0.000010000
  Maximum function  tolerance     =   0.000010000
  Maximum gradient  tolerance     =   0.001000000
  Maximum gradient  component     =   0.010000000

  Symmetry not applied to optimisation

  Cell parameters to be optimised using strains

  Newton-Raphson optimiser to be used

  BFGS hessian update to be used

  Lower half triangular hessian to be used

  Minimiser to switch to RFO
  When gradient norm is less than     0.050000

  Dumpfile to be written after every cycle

  Start of bulk optimisation :

  Cycle:      0 Energy:     -1503.989296  Gnorm:      5.487848  CPU:    0.035
  ** Hessian calculated **
  Cycle:      1 Energy:     -1512.806890  Gnorm:      4.015496  CPU:    0.111
  ** Hessian calculated **
  Cycle:      2 Energy:     -1521.042074  Gnorm:      1.019709  CPU:    0.179
  Cycle:      3 Energy:     -1521.980383  Gnorm:      0.502507  CPU:    0.217
  Cycle:      4 Energy:     -1522.422331  Gnorm:      0.363112  CPU:    0.261
  Cycle:      5 Energy:     -1522.789858  Gnorm:      0.305803  CPU:    0.306
  Cycle:      6 Energy:     -1523.038078  Gnorm:      0.247250  CPU:    0.344
  Cycle:      7 Energy:     -1523.216743  Gnorm:      0.208908  CPU:    0.382
  Cycle:      8 Energy:     -1523.325251  Gnorm:      0.152932  CPU:    0.421
  Cycle:      9 Energy:     -1523.376349  Gnorm:      0.106936  CPU:    0.459
  Cycle:     10 Energy:     -1523.404919  Gnorm:      0.084530  CPU:    0.498
  Cycle:     11 Energy:     -1523.426326  Gnorm:      0.071027  CPU:    0.537
  ** Hessian calculated **
  Cycle:     12 Energy:     -1523.444460  Gnorm:      0.069082  CPU:    0.607
  Cycle:     13 Energy:     -1523.470689  Gnorm:      0.065970  CPU:    0.661
  Cycle:     14 Energy:     -1523.490669  Gnorm:      0.063021  CPU:    0.708
  Cycle:     15 Energy:     -1523.499595  Gnorm:      0.060398  CPU:    0.762
  ** Hessian calculated **
  Cycle:     16 Energy:     -1523.536222  Gnorm:      0.057752  CPU:    0.834
  Cycle:     17 Energy:     -1523.593782  Gnorm:      0.052724  CPU:    0.889
  Cycle:     18 Energy:     -1523.646509  Gnorm:      0.046533  CPU:    0.935
  ** Hessian has required structure
  Cycle:     19 Energy:     -1523.650531  Gnorm:      0.069069  CPU:    0.981
  ** Hessian has required structure
  Cycle:     20 Energy:     -1523.655908  Gnorm:      0.080298  CPU:    1.026
  ** Hessian has required structure
  Cycle:     21 Energy:     -1523.666051  Gnorm:      0.101262  CPU:    1.073
  ** Hessian has required structure
  Cycle:     22 Energy:     -1523.675725  Gnorm:      0.077903  CPU:    1.118
  ** Hessian has required structure
  Cycle:     23 Energy:     -1523.681082  Gnorm:      0.069301  CPU:    1.156
  ** Hessian has required structure
  Cycle:     24 Energy:     -1523.685463  Gnorm:      0.072711  CPU:    1.193
  ** Hessian has required structure
  Cycle:     25 Energy:     -1523.689882  Gnorm:      0.079003  CPU:    1.231
  ** Hessian has wrong structure
  ** Imaginary eigenvectors =   1
  Cycle:     26 Energy:     -1523.712691  Gnorm:      0.084839  CPU:    1.337
  ** Hessian has required structure
  Cycle:     27 Energy:     -1523.773539  Gnorm:      0.044102  CPU:    1.414
  ** Hessian has required structure
  Cycle:     28 Energy:     -1523.792796  Gnorm:      0.024395  CPU:    1.468
  ** Hessian has required structure
  Cycle:     29 Energy:     -1523.800466  Gnorm:      0.012516  CPU:    1.521
  ** Hessian has required structure
  Cycle:     30 Energy:     -1523.803691  Gnorm:      0.009140  CPU:    1.574
  ** Hessian has required structure
  Cycle:     31 Energy:     -1523.805041  Gnorm:      0.003235  CPU:    1.619
  ** Hessian has required structure
  Cycle:     32 Energy:     -1523.805715  Gnorm:      0.003561  CPU:    1.672
  ** Hessian has required structure
  Cycle:     33 Energy:     -1523.806050  Gnorm:      0.002492  CPU:    1.723
  ** Hessian has required structure
  Cycle:     34 Energy:     -1523.806184  Gnorm:      0.001712  CPU:    1.779
  ** Hessian has required structure
  Cycle:     35 Energy:     -1523.806229  Gnorm:      0.001143  CPU:    1.828
  ** Hessian has required structure
  Cycle:     36 Energy:     -1523.806256  Gnorm:      0.000684  CPU:    1.885
  ** Hessian has required structure
  Cycle:     37 Energy:     -1523.806263  Gnorm:      0.000508  CPU:    1.952
  ** Hessian has required structure
  Cycle:     38 Energy:     -1523.806272  Gnorm:      0.000225  CPU:    2.018
  ** Hessian has required structure


  **** Optimisation achieved ****


  Final energy =   -1523.80627265 eV      
  Final Gnorm  =       0.00015856

  Components of energy : 

--------------------------------------------------------------------------------
  Interatomic potentials     =         403.99567131 eV    
  Three-body potentials      =           0.05155528 eV    
  Monopole - monopole (real) =        -883.79322465 eV    
  Monopole - monopole (recip)=       -1044.06027458 eV    
  Monopole - monopole (total)=       -1927.85349924 eV    
--------------------------------------------------------------------------------
  Total lattice energy       =       -1523.80627265 eV    
--------------------------------------------------------------------------------
  Total lattice energy       =         -147024.0118 kJ/(mole unit cells)
--------------------------------------------------------------------------------

  Final fractional coordinates of atoms :

--------------------------------------------------------------------------------
   No.  Atomic        x           y          z          Radius
        Label       (Frac)      (Frac)     (Frac)       (Angs) 
--------------------------------------------------------------------------------
     1  Ge    c     0.313820    0.296860    0.309830    0.000000
     2  Ge    c     0.692371    0.318851    0.399463    0.000000
     3  Ge    c     0.323775    0.676082    0.631774    0.000000
     4  Si    c     0.702188    0.294579    0.705996    0.000000
     5  Si    c     0.692200    0.687813    0.715615    0.000000
     6  Si    c     0.308734    0.701676    0.318936    0.000000
     7  Si    c     0.334490    0.273871    0.620415    0.000000
     8  Si    c     0.672161    0.718897    0.406802    0.000000
     9  Si    c     0.896211    0.016988    0.376109    0.000000
    10  Si    c     0.125929    0.977832    0.678361    0.000000
    11  Si    c     0.093412    0.998259    0.171633    0.000000
    12  Si    c     0.907195    0.988690    0.860889    0.000000
    13  O3    c     0.265278    0.259942    0.458453    0.000000
    14  O3    c     0.758590    0.288232    0.574754    0.000000
    15  O2    c     0.724933    0.711973    0.571012    0.000000
    16  O3    c     0.264064    0.709566    0.457459    0.000000
    17  O3    c     0.282627    0.512526    0.260349    0.000000
    18  O2    c     0.725552    0.486877    0.767352    0.000000
    19  O1    c     0.504210    0.250317    0.332598    0.000000
    20  O2    c     0.519432    0.247180    0.657464    0.000000
    21  O3    c     0.516640    0.734520    0.701545    0.000000
    22  O2    c     0.489465    0.756524    0.353260    0.000000
    23  O3    c     0.191234    0.174878    0.185054    0.000000
    24  O2    c     0.796549    0.155362    0.818960    0.000000
    25  O2    c     0.809128    0.812125    0.820904    0.000000
    26  O2    c     0.211495    0.838117    0.205601    0.000000
    27  O3    c     0.299937    0.458636    0.667835    0.000000
    28  O3    c     0.707487    0.536101    0.356681    0.000000
    29  O2    c     0.262193    0.122218    0.694455    0.000000
    30  O3    c     0.817663    0.203124    0.340639    0.000000
    31  O2    c     0.758871    0.873000    0.350505    0.000000
    32  O3    c     0.205605    0.791848    0.697847    0.000000
    33  O2    c     0.998987    0.999727    0.532310    0.000000
    34  O2    c     0.996602    0.985638    0.277867    0.000000
    35  O2    c     0.047386    0.002974    0.795705    0.000000
    36  O2    c     0.976033    0.982971    0.022197    0.000000
    37  O3    s     0.275792    0.264129    0.462482    0.000000
    38  O3    s     0.747583    0.291263    0.574256    0.000000
    39  O2    s     0.715877    0.710109    0.569068    0.000000
    40  O3    s     0.273281    0.706124    0.458071    0.000000
    41  O3    s     0.287828    0.514394    0.270350    0.000000
    42  O2    s     0.719686    0.487689    0.755770    0.000000
    43  O1    s     0.504055    0.259358    0.336050    0.000000
    44  O2    s     0.519338    0.255250    0.658681    0.000000
    45  O3    s     0.518640    0.725050    0.697295    0.000000
    46  O2    s     0.490299    0.746476    0.355573    0.000000
    47  O3    s     0.191513    0.167163    0.194009    0.000000
    48  O2    s     0.798051    0.152747    0.810972    0.000000
    49  O2    s     0.806704    0.817532    0.813397    0.000000
    50  O2    s     0.209487    0.840272    0.214513    0.000000
    51  O3    s     0.305289    0.457636    0.660222    0.000000
    52  O3    s     0.702791    0.537034    0.365059    0.000000
    53  O2    s     0.255703    0.123563    0.684619    0.000000
    54  O3    s     0.815272    0.194086    0.348944    0.000000
    55  O2    s     0.763718    0.870868    0.359680    0.000000
    56  O3    s     0.207513    0.800700    0.690430    0.000000
    57  O2    s     0.001776    0.999197    0.531278    0.000000
    58  O2    s     0.995691    0.990803    0.277532    0.000000
    59  O2    s     0.040717    0.998575    0.789775    0.000000
    60  O2    s     0.981684    0.985467    0.020759    0.000000
--------------------------------------------------------------------------------

  Final Cartesian lattice vectors (Angstroms) :

        9.026605   -0.112178    0.053573
       -0.092508    7.720135    0.140636
       -3.216114    0.224601    9.808209


  Final cell parameters and derivatives :

--------------------------------------------------------------------------------
       a            9.027461 Angstrom     dE/de1(xx)     0.008023 eV/strain
       b            7.721970 Angstrom     dE/de2(yy)     0.005681 eV/strain
       c           10.324475 Angstrom     dE/de3(zz)     0.006714 eV/strain
       alpha       87.547989 Degrees      dE/de4(yz)     0.000333 eV/strain
       beta       107.824772 Degrees      dE/de5(xz)     0.000192 eV/strain
       gamma       91.392084 Degrees      dE/de6(xy)    -0.000289 eV/strain
--------------------------------------------------------------------------------

  Primitive cell volume =           684.493615 Angs**3

  Density of cell =      2.073337 g/cm**3

  Non-primitive cell volume =           684.493615 Angs**3


  Final internal derivatives :

--------------------------------------------------------------------------------
   No.  Atomic          a             b             c           Radius
        Label          (eV)          (eV)          (eV)        (eV/Angs)
--------------------------------------------------------------------------------
      1 Ge    c       0.000000      0.000000      0.000000      0.000000
      2 Ge    c      -0.000085     -0.000056      0.000529      0.000000
      3 Ge    c      -0.002691     -0.001466      0.002704      0.000000
      4 Si    c       0.000508      0.000244      0.000409      0.000000
      5 Si    c       0.003172      0.001119      0.000915      0.000000
      6 Si    c      -0.000513     -0.000253     -0.004698      0.000000
      7 Si    c      -0.000463     -0.001179     -0.002646      0.000000
      8 Si    c       0.003001      0.001136     -0.003163      0.000000
      9 Si    c      -0.004056      0.000478      0.002643      0.000000
     10 Si    c      -0.001575      0.002096      0.001756      0.000000
     11 Si    c       0.004448      0.001503     -0.002296      0.000000
     12 Si    c      -0.000504     -0.000683     -0.002114      0.000000
     13 O3    c       0.000587      0.000690     -0.000270      0.000000
     14 O3    c       0.000106      0.000484     -0.000284      0.000000
     15 O2    c       0.002303     -0.000950     -0.000292      0.000000
     16 O3    c      -0.003943      0.000461      0.002523      0.000000
     17 O3    c      -0.000218      0.001837     -0.001103      0.000000
     18 O2    c       0.000093     -0.005477      0.001061      0.000000
     19 O1    c       0.000993     -0.000771      0.004275      0.000000
     20 O2    c       0.003290     -0.000820     -0.000844      0.000000
     21 O3    c      -0.000647      0.003125      0.002593      0.000000
     22 O2    c      -0.002432      0.000946      0.000897      0.000000
     23 O3    c      -0.001483     -0.002071     -0.004981      0.000000
     24 O2    c      -0.001479      0.001006     -0.000878      0.000000
     25 O2    c       0.000773      0.000055      0.000303      0.000000
     26 O2    c       0.003309     -0.003341      0.001987      0.000000
     27 O3    c      -0.001121      0.006329      0.002748      0.000000
     28 O3    c       0.001592     -0.003760     -0.002466      0.000000
     29 O2    c       0.000835     -0.000145      0.001742      0.000000
     30 O3    c       0.000505     -0.000649      0.001459      0.000000
     31 O2    c      -0.000122      0.000135      0.001099      0.000000
     32 O3    c       0.003064     -0.004647      0.000361      0.000000
     33 O2    c      -0.000971      0.000382     -0.004399      0.000000
     34 O2    c      -0.003839     -0.000799      0.004880      0.000000
     35 O2    c       0.000278      0.000224     -0.000263      0.000000
     36 O2    c      -0.002380     -0.000663     -0.001747      0.000000
     37 O3    s      -0.002054     -0.000868     -0.001826      0.000000
     38 O3    s       0.001816     -0.001202      0.001461      0.000000
     39 O2    s       0.002160      0.002861     -0.000793      0.000000
     40 O3    s       0.000917     -0.000423     -0.000390      0.000000
     41 O3    s       0.000410     -0.000465      0.000934      0.000000
     42 O2    s      -0.000536     -0.000117      0.002008      0.000000
     43 O1    s       0.001304     -0.000485     -0.006751      0.000000
     44 O2    s       0.002743      0.000175      0.000869      0.000000
     45 O3    s      -0.000960      0.000245     -0.001407      0.000000
     46 O2    s      -0.000784      0.000938      0.000150      0.000000
     47 O3    s       0.001901      0.003301      0.001899      0.000000
     48 O2    s       0.000042     -0.000245      0.000288      0.000000
     49 O2    s       0.000940      0.000602     -0.000008      0.000000
     50 O2    s       0.001960      0.000849     -0.004429      0.000000
     51 O3    s      -0.001453     -0.001046      0.000933      0.000000
     52 O3    s      -0.000822      0.000457      0.000056      0.000000
     53 O2    s       0.000444     -0.000034      0.002051      0.000000
     54 O3    s       0.000661      0.000155     -0.002145      0.000000
     55 O2    s       0.001429      0.002049     -0.000265      0.000000
     56 O3    s      -0.000841     -0.000294      0.001259      0.000000
     57 O2    s      -0.003266     -0.001072     -0.000184      0.000000
     58 O2    s      -0.002089      0.000064      0.000565      0.000000
     59 O2    s      -0.001731      0.001211      0.001633      0.000000
     60 O2    s      -0.000065     -0.000920     -0.001533      0.000000
--------------------------------------------------------------------------------
  Maximum abs         0.004448      0.006329      0.006751      0.000000
--------------------------------------------------------------------------------


  Born effective charge tensors : 

-------------------------------------------------------------------------------
  Atom             x           y             z
-------------------------------------------------------------------------------
    1 Ge    x       3.9307      0.1575      0.3435
            y       0.2521      4.1744      0.2697
            z       0.1758      0.2178      3.5796
-------------------------------------------------------------------------------
    2 Ge    x       4.0917     -0.2146     -0.0342
            y      -0.4024      4.2040      0.0690
            z       0.1679      0.1190      3.3116
-------------------------------------------------------------------------------
    3 Ge    x       4.0969     -0.2452     -0.0699
            y      -0.4274      4.1657      0.0767
            z       0.0841      0.0772      3.3059
-------------------------------------------------------------------------------
    4 Si    x       3.2626     -0.2088      0.1617
            y      -0.2445      3.5260     -0.1350
            z      -0.0531     -0.2118      3.1037
-------------------------------------------------------------------------------
    5 Si    x       3.5062      0.0612      0.2409
            y       0.1689      3.5120      0.1926
            z       0.1937      0.2149      2.9344
-------------------------------------------------------------------------------
    6 Si    x       3.2857     -0.1804      0.1742
            y      -0.2162      3.7732      0.0223
            z       0.0083     -0.0481      3.2598
-------------------------------------------------------------------------------
    7 Si    x       3.4151      0.2627     -0.1413
            y       0.1103      3.7818      0.1548
            z       0.1228      0.0935      3.0521
-------------------------------------------------------------------------------
    8 Si    x       3.3283      0.2064     -0.1196
            y       0.0692      3.7070      0.1154
            z       0.0691      0.0172      2.7768
-------------------------------------------------------------------------------
    9 Si    x       3.7318     -0.3056      0.0844
            y      -0.0058      3.5304     -0.0535
            z      -0.3365      0.0440      3.0101
-------------------------------------------------------------------------------
   10 Si    x       3.8011     -0.3691     -0.0949
            y      -0.0409      3.5228     -0.0327
            z      -0.2560      0.0318      3.0241
-------------------------------------------------------------------------------
   11 Si    x       3.3425      0.1805     -0.0695
            y       0.1175      3.4510      0.0306
            z       0.4143      0.1543      3.9581
-------------------------------------------------------------------------------
   12 Si    x       3.2461      0.0245      0.1084
            y      -0.0565      3.2548      0.0304
            z       0.0719      0.0196      3.8747
-------------------------------------------------------------------------------
   13 O3    x      -1.4650     -0.1508      0.1883
            y      -0.1534     -1.3782     -0.0304
            z       0.2325     -0.0100     -2.5428
-------------------------------------------------------------------------------
   14 O3    x      -1.5899      0.1094      0.5110
            y       0.1420     -1.3965      0.0418
            z       0.4233      0.0633     -2.3897
-------------------------------------------------------------------------------
   15 O2    x      -1.2768     -0.1106      0.2188
            y      -0.1093     -1.2615      0.0342
            z       0.2102      0.0529     -2.0337
-------------------------------------------------------------------------------
   16 O3    x      -1.5554      0.0917      0.4443
            y       0.1196     -1.3723      0.0779
            z       0.3950      0.0796     -2.4836
-------------------------------------------------------------------------------
   17 O3    x      -1.2266     -0.0013     -0.1054
            y       0.0415     -3.1833     -0.1770
            z      -0.0632     -0.1585     -1.3138
-------------------------------------------------------------------------------
   18 O2    x      -1.1207      0.0224     -0.0739
            y       0.0265     -2.5504     -0.0429
            z      -0.0389     -0.0232     -1.1589
-------------------------------------------------------------------------------
   19 O1    x      -3.0813     -0.0530     -0.5262
            y      -0.0296     -1.5191     -0.0910
            z      -0.5436     -0.1063     -1.3902
-------------------------------------------------------------------------------
   20 O2    x      -2.3846     -0.0943     -0.3851
            y      -0.0634     -1.2799     -0.0104
            z      -0.3759      0.0078     -1.1341
-------------------------------------------------------------------------------
   21 O3    x      -2.9880      0.0567     -0.4466
            y       0.0744     -1.4094     -0.0559
            z      -0.4433     -0.0735     -1.2692
-------------------------------------------------------------------------------
   22 O2    x      -2.3384     -0.0588     -0.4046
            y      -0.0237     -1.2514      0.0142
            z      -0.4140      0.0256     -1.1709
-------------------------------------------------------------------------------
   23 O3    x      -1.7103     -0.7805     -0.3954
            y      -0.7942     -2.4510     -0.6158
            z      -0.4515     -0.6258     -1.8039
-------------------------------------------------------------------------------
   24 O2    x      -1.4478      0.5854     -0.3644
            y       0.5718     -2.0282      0.5312
            z      -0.3304      0.5621     -1.5393
-------------------------------------------------------------------------------
   25 O2    x      -1.4378     -0.5767     -0.3735
            y      -0.5502     -2.0200     -0.5524
            z      -0.3569     -0.5826     -1.5674
-------------------------------------------------------------------------------
   26 O2    x      -1.5219      0.5729     -0.3485
            y       0.5706     -1.8883      0.4881
            z      -0.3631      0.4729     -1.5651
-------------------------------------------------------------------------------
   27 O3    x      -1.4014      0.1033      0.1005
            y       0.1645     -3.1495     -0.1599
            z       0.0501     -0.1269     -1.1612
-------------------------------------------------------------------------------
   28 O3    x      -1.3720      0.1873      0.1215
            y       0.2196     -3.1107     -0.1578
            z       0.0724     -0.1489     -1.2134
-------------------------------------------------------------------------------
   29 O2    x      -1.9121     -0.7233      0.1713
            y      -0.7359     -1.8909      0.1564
            z       0.1241      0.1239     -1.1284
-------------------------------------------------------------------------------
   30 O3    x      -2.1169      0.9756      0.1227
            y       0.9248     -2.5359     -0.0242
            z       0.1777     -0.0620     -1.2381
-------------------------------------------------------------------------------
   31 O2    x      -1.9265     -0.7531      0.0878
            y      -0.7503     -1.8872      0.0859
            z       0.1071      0.0818     -1.1029
-------------------------------------------------------------------------------
   32 O3    x      -2.1854      1.0291      0.2259
            y       0.9696     -2.5459     -0.1562
            z       0.2040     -0.1256     -1.2358
-------------------------------------------------------------------------------
   33 O2    x      -1.5095      0.0515     -0.5039
            y      -0.0231     -1.1564      0.0371
            z      -0.2801      0.0347     -2.0873
-------------------------------------------------------------------------------
   34 O2    x      -2.0973      0.0978      0.7566
            y       0.0580     -1.1355     -0.0582
            z       0.7280     -0.0844     -1.8126
-------------------------------------------------------------------------------
   35 O2    x      -2.1991      0.0622      0.6946
            y       0.0236     -1.1114     -0.0354
            z       0.7071     -0.0514     -1.7274
-------------------------------------------------------------------------------
   36 O2    x      -1.1743     -0.0122     -0.2995
            y       0.0024     -1.0904     -0.0398
            z      -0.4330     -0.0550     -3.1211
-------------------------------------------------------------------------------




  Elastic Constant Matrix: (Units=GPa)

-------------------------------------------------------------------------------
  Indices      1         2         3         4         5         6    
-------------------------------------------------------------------------------
       1     42.9301   35.3074   13.3133    3.9704    6.1805   -9.4704
       2     35.3074   81.8837   23.7540    2.8142   15.2073  -11.1013
       3     13.3133   23.7540   42.4526   -0.1875   16.5966   -0.2887
       4      3.9704    2.8142   -0.1875   13.4980    2.2096    3.8030
       5      6.1805   15.2073   16.5966    2.2096   17.9127    4.0930
       6     -9.4704  -11.1013   -0.2887    3.8030    4.0930   18.1821
-------------------------------------------------------------------------------


  Elastic Compliance Matrix: (Units=1/GPa)

-------------------------------------------------------------------------------
  Indices      1         2         3         4         5         6    
-------------------------------------------------------------------------------
       1    0.040702 -0.013498 -0.005364 -0.013719  0.000507  0.015629
       2   -0.013498  0.023046 -0.002978 -0.001493 -0.014374  0.010541
       3   -0.005364 -0.002978  0.040473  0.007807 -0.034582  0.002182
       4   -0.013719 -0.001493  0.007807  0.086502 -0.006279 -0.024613
       5    0.000507 -0.014374 -0.034582 -0.006279  0.107995 -0.032059
       6    0.015629  0.010541  0.002182 -0.024613 -0.032059  0.081975
-------------------------------------------------------------------------------

  Mechanical properties :

-------------------------------------------------------------------------------
  Convention :                    Reuss         Voigt         Hill
-------------------------------------------------------------------------------
  Bulk  Modulus (GPa)     =      16.51752      34.66838      25.59295
  Shear Modulus (GPa)     =      11.24720      16.24469      13.74594
-------------------------------------------------------------------------------
  Velocity S-wave (km/s)  =       2.32910       2.79912       2.57485
  Velocity P-wave (km/s)  =       3.89866       5.21227       4.60257
-------------------------------------------------------------------------------
  Compressibility (1/GPa) =    0.06054177
-------------------------------------------------------------------------------
  Stress axis :                     x             y             z
-------------------------------------------------------------------------------
  Youngs Moduli (GPa)     =      24.56882      43.39072      24.70766
-------------------------------------------------------------------------------
  Poissons Ratio (x)      =                     0.58568       0.13253
  Poissons Ratio (y)      =       0.33163                     0.07358
  Poissons Ratio (z)      =       0.13179       0.12922
-------------------------------------------------------------------------------


  Piezoelectric Strain Matrix: (Units=C/m**2)

-------------------------------------------------------------------------------
  Indices      1         2         3         4         5         6    
-------------------------------------------------------------------------------
       x    -0.10586  -0.21908  -0.58731  -0.21937   0.14801  -0.34475
       y     0.03356   0.08016  -1.23220  -0.50294  -0.02714   0.05216
       z     0.66686   0.45844   1.63746  -0.28326  -0.74528  -0.43272
-------------------------------------------------------------------------------


  Piezoelectric Stress Matrix: (Units=10**-11 C/N)

-------------------------------------------------------------------------------
  Indices      1         2         3         4         5         6    
-------------------------------------------------------------------------------
       x    -0.05045  -0.73053  -3.01338  -1.42264   5.18204  -3.28521
       y     1.45947   0.67546  -5.31642  -5.48186   4.00323   1.62045
       z     0.89163   0.32618   8.39490  -0.62224 -12.77148   1.42206
-------------------------------------------------------------------------------


  Static dielectric constant tensor : 

-------------------------------------------------------------------------------
              x         y         z
-------------------------------------------------------------------------------
       x     4.20296  -0.14655   0.15763
       y    -0.14655   4.64233   0.18743
       z     0.15763   0.18743   3.33114
--------------------------------------------------------------------------------

  High frequency dielectric constant tensor : 

-------------------------------------------------------------------------------
              x         y         z
-------------------------------------------------------------------------------
       x     1.64329  -0.00192   0.00961
       y    -0.00192   1.65336   0.00419
       z     0.00961   0.00419   1.59761
-------------------------------------------------------------------------------

  Static refractive indices : 

-------------------------------------------------------------------------------
    1 =    1.80861      2 =    2.05056      3 =    2.16808
-------------------------------------------------------------------------------

  High frequency refractive indices : 

-------------------------------------------------------------------------------
    1 =    1.26306      2 =    1.28262      3 =    1.28601
-------------------------------------------------------------------------------


  Time to end of optimisation =       2.1114 seconds


  Peak dynamic memory used =       2.76 MB 


  Timing analysis for GULP :

--------------------------------------------------------------------------------
  Task / Subroutine                                          Time (Seconds)
--------------------------------------------------------------------------------
  Calculation of reciprocal space energy and derivatives          0.1352
  Calculation of real space energy and derivatives                1.7389
  Calculation of three-body energy and derivatives                0.0628
  Calculation and manipulation of Hessian matrix                  0.1804
  Calculation of matrix inversion                                 0.0032
--------------------------------------------------------------------------------
  Total CPU time                                                  2.1114
--------------------------------------------------------------------------------


  Dump file written as c00024.vasp.grs
  CIF file written as c00024.vasp.cif


  Job Finished at 21:27.24  6th October    2025                               

