********************************************************************************
*                       GENERAL UTILITY LATTICE PROGRAM                        *
*                                 Julian Gale                                  *
*                       Curtin Institute for Computation                       *
*                    School of Molecular and Life Sciences                     *
*                    Curtin University, Western Australia                      *
********************************************************************************
* Version = 6.1.2 * Last modified =   3rd November 2022                        *
********************************************************************************
*  optimise     - perform optimisation run                                     *
*  conp         - constant pressure calculation                                *
*  property     - calculate properties for final geometry                      *
********************************************************************************

  Job Started  at 21:27.57  6th October    2025                               

  Number of CPUs =     1


  Total number of configurations input =      1

********************************************************************************
*  Input for Configuration =   1 : c00034.vasp                                 *
********************************************************************************

  Formula = Ge3Si9O24                                                   

  Number of irreducible atoms/shells =      60


  Total number atoms/shells =      60

  Dimensionality = 3               :  Bulk   



  Cartesian lattice vectors (Angstroms) :

        9.086940    0.000000    0.000000
        0.000000    7.554810    0.000000
       -3.295144    0.000000    9.944380

  Cell parameters (Angstroms/Degrees):

  a =       9.0869    alpha =  90.0000
  b =       7.5548    beta  = 108.3330
  c =      10.4761    gamma =  90.0000

  Initial cell volume =         682.682735 Angs**3

  Temperature of configuration =   0.00     K 

  Pressure of configuration =         0.000 GPa 

  Fractional coordinates of asymmetric unit :

--------------------------------------------------------------------------------
   No.  Atomic       x           y          z         Charge      Occupancy
        Label      (Frac)      (Frac)     (Frac)        (e)         (Frac)  
--------------------------------------------------------------------------------
      1 Ge    c    0.313820    0.296860    0.309830     4.00000    1.000000    
      2 Ge    c    0.331050 *  0.703080 *  0.607380 *   4.00000    1.000000    
      3 Ge    c    0.879680 *  0.000000 *  0.350160 *   4.00000    1.000000    
      4 Si    c    0.686180 *  0.296860 *  0.690170 *   4.00000    1.000000    
      5 Si    c    0.686180 *  0.703140 *  0.690170 *   4.00000    1.000000    
      6 Si    c    0.313820 *  0.703140 *  0.309830 *   4.00000    1.000000    
      7 Si    c    0.331050 *  0.296920 *  0.607380 *   4.00000    1.000000    
      8 Si    c    0.668950 *  0.296920 *  0.392620 *   4.00000    1.000000    
      9 Si    c    0.668950 *  0.703080 *  0.392620 *   4.00000    1.000000    
     10 Si    c    0.120320 *  0.000000 *  0.649840 *   4.00000    1.000000    
     11 Si    c    0.093070 *  0.000000 *  0.158230 *   4.00000    1.000000    
     12 Si    c    0.906930 *  0.000000 *  0.841770 *   4.00000    1.000000    
     13 O3    c    0.268740 *  0.279030 *  0.446100 *   1.33043    1.000000    
     14 O2    c    0.731260 *  0.279030 *  0.553900 *   0.87073    1.000000    
     15 O2    c    0.731260 *  0.720970 *  0.553900 *   0.87073    1.000000    
     16 O3    c    0.268740 *  0.720970 *  0.446100 *   1.33043    1.000000    
     17 O3    c    0.295480 *  0.500000 *  0.260860 *   1.33043    1.000000    
     18 O2    c    0.704520 *  0.500000 *  0.739140 *   0.87073    1.000000    
     19 O3    c    0.490600 *  0.234690 *  0.337530 *   1.33043    1.000000    
     20 O2    c    0.509400 *  0.234690 *  0.662470 *   0.87073    1.000000    
     21 O3    c    0.509400 *  0.765310 *  0.662470 *   1.33043    1.000000    
     22 O2    c    0.490600 *  0.765310 *  0.337530 *   0.87073    1.000000    
     23 O3    c    0.200440 *  0.174000 *  0.194980 *   1.33043    1.000000    
     24 O2    c    0.799560 *  0.174000 *  0.805020 *   0.87073    1.000000    
     25 O2    c    0.799560 *  0.826000 *  0.805020 *   0.87073    1.000000    
     26 O2    c    0.200440 *  0.826000 *  0.194980 *   0.87073    1.000000    
     27 O3    c    0.317860 *  0.500000 *  0.649090 *   1.33043    1.000000    
     28 O2    c    0.682140 *  0.500000 *  0.350910 *   0.87073    1.000000    
     29 O2    c    0.227920 *  0.173870 *  0.671620 *   0.87073    1.000000    
     30 O3    c    0.772080 *  0.173870 *  0.328380 *   1.33043    1.000000    
     31 O3    c    0.772080 *  0.826130 *  0.328380 *   1.33043    1.000000    
     32 O3    c    0.227920 *  0.826130 *  0.671620 *   1.33043    1.000000    
     33 O3    c    0.000000 *  0.000000 *  0.500000 *   1.33043    1.000000    
     34 O3    c    0.971960 *  0.000000 *  0.241930 *   1.33043    1.000000    
     35 O2    c    0.028040 *  0.000000 *  0.758070 *   0.87073    1.000000    
     36 O2    c    0.000000 *  0.000000 *  0.000000 *   0.87073    1.000000    
     37 O3    s    0.268740 *  0.279030 *  0.446100 *  -3.33043    1.000000    
     38 O2    s    0.731260 *  0.279030 *  0.553900 *  -2.87073    1.000000    
     39 O2    s    0.731260 *  0.720970 *  0.553900 *  -2.87073    1.000000    
     40 O3    s    0.268740 *  0.720970 *  0.446100 *  -3.33043    1.000000    
     41 O3    s    0.295480 *  0.500000 *  0.260860 *  -3.33043    1.000000    
     42 O2    s    0.704520 *  0.500000 *  0.739140 *  -2.87073    1.000000    
     43 O3    s    0.490600 *  0.234690 *  0.337530 *  -3.33043    1.000000    
     44 O2    s    0.509400 *  0.234690 *  0.662470 *  -2.87073    1.000000    
     45 O3    s    0.509400 *  0.765310 *  0.662470 *  -3.33043    1.000000    
     46 O2    s    0.490600 *  0.765310 *  0.337530 *  -2.87073    1.000000    
     47 O3    s    0.200440 *  0.174000 *  0.194980 *  -3.33043    1.000000    
     48 O2    s    0.799560 *  0.174000 *  0.805020 *  -2.87073    1.000000    
     49 O2    s    0.799560 *  0.826000 *  0.805020 *  -2.87073    1.000000    
     50 O2    s    0.200440 *  0.826000 *  0.194980 *  -2.87073    1.000000    
     51 O3    s    0.317860 *  0.500000 *  0.649090 *  -3.33043    1.000000    
     52 O2    s    0.682140 *  0.500000 *  0.350910 *  -2.87073    1.000000    
     53 O2    s    0.227920 *  0.173870 *  0.671620 *  -2.87073    1.000000    
     54 O3    s    0.772080 *  0.173870 *  0.328380 *  -3.33043    1.000000    
     55 O3    s    0.772080 *  0.826130 *  0.328380 *  -3.33043    1.000000    
     56 O3    s    0.227920 *  0.826130 *  0.671620 *  -3.33043    1.000000    
     57 O3    s    0.000000 *  0.000000 *  0.500000 *  -3.33043    1.000000    
     58 O3    s    0.971960 *  0.000000 *  0.241930 *  -3.33043    1.000000    
     59 O2    s    0.028040 *  0.000000 *  0.758070 *  -2.87073    1.000000    
     60 O2    s    0.000000 *  0.000000 *  0.000000 *  -2.87073    1.000000    
--------------------------------------------------------------------------------



********************************************************************************
*  General input information                                                   *
********************************************************************************

  Species output for all configurations : 

--------------------------------------------------------------------------------
  Species    Type    Atomic    Atomic    Charge       Radii (Angs)     Library
                     Number     Mass       (e)     Cova   Ionic  VDW   Symbol
--------------------------------------------------------------------------------
    Ge       Core       32      72.61   4.000000   1.170  0.000  1.750 Ge       
    Si       Core       14      28.09   4.000000   1.200  0.000  2.100 Si       
    O1       Core        8      16.00   1.733957   0.730  0.000  0.000 O1       
    O2       Core        8      16.00   0.870733   0.730  0.000  1.360 O2       
    O3       Core        8      16.00   1.330431   0.730  0.000  1.360 O3       
    O1       Shell       8       0.00  -3.733957   0.730  0.000  0.000 O1       
    O2       Shell       8       0.00  -2.870733   0.730  0.000  0.000 O2       
    O3       Shell       8       0.00  -3.330431   0.730  0.000  0.000 O3       
--------------------------------------------------------------------------------


  Lattice summation method               =    Ewald          (3-D)
                                         =    Parry          (2-D)
                                         =    Saunders et al (1-D)
  Accuracy factor for lattice sums       =   12.000


  Analytic derivatives to be used

  Time limit = Infinity

  Maximum range for interatomic potentials =    100000.000000 Angstroms

  General interatomic potentials :

--------------------------------------------------------------------------------
Atom  Types   Potential      Parameter       Value         Units   Cutoffs(Ang)
  1     2                                                            Min /  Max 
--------------------------------------------------------------------------------
Si   c O1   s Buckingham    Buckingham A     1315.2478    eV        0.000 16.000
                            Buckingham rho  0.31775900    Ang       
                            Buckingham C     10.141118    eV*Ang^6  
--------------------------------------------------------------------------------
Si   c O2   s Buckingham    Buckingham A     1315.2478    eV        0.000 16.000
                            Buckingham rho  0.31775900    Ang       
                            Buckingham C     10.141118    eV*Ang^6  
--------------------------------------------------------------------------------
Si   c O3   s Buckingham    Buckingham A     1315.2478    eV        0.000 16.000
                            Buckingham rho  0.31775900    Ang       
                            Buckingham C     10.141118    eV*Ang^6  
--------------------------------------------------------------------------------
Ge   c O1   s Buckingham    Buckingham A     1497.3996    eV        0.000 16.000
                            Buckingham rho  0.32564600    Ang       
                            Buckingham C     16.808599    eV*Ang^6  
--------------------------------------------------------------------------------
Ge   c O2   s Buckingham    Buckingham A     1497.3996    eV        0.000 16.000
                            Buckingham rho  0.32564600    Ang       
                            Buckingham C     16.808599    eV*Ang^6  
--------------------------------------------------------------------------------
Ge   c O3   s Buckingham    Buckingham A     1497.3996    eV        0.000 16.000
                            Buckingham rho  0.32564600    Ang       
                            Buckingham C     16.808599    eV*Ang^6  
--------------------------------------------------------------------------------
O1   s O1   s Buckingham    Buckingham A     22764.000    eV        0.000 16.000
                            Buckingham rho  0.14900000    Ang       
                            Buckingham C     10.937044    eV*Ang^6  
--------------------------------------------------------------------------------
O1   s O2   s Buckingham    Buckingham A     22764.000    eV        0.000 16.000
                            Buckingham rho  0.14900000    Ang       
                            Buckingham C     10.937044    eV*Ang^6  
--------------------------------------------------------------------------------
O1   s O3   s Buckingham    Buckingham A     22764.000    eV        0.000 16.000
                            Buckingham rho  0.14900000    Ang       
                            Buckingham C     10.937044    eV*Ang^6  
--------------------------------------------------------------------------------
O2   s O2   s Buckingham    Buckingham A     22764.000    eV        0.000 16.000
                            Buckingham rho  0.14900000    Ang       
                            Buckingham C     10.937044    eV*Ang^6  
--------------------------------------------------------------------------------
O2   s O3   s Buckingham    Buckingham A     22764.000    eV        0.000 16.000
                            Buckingham rho  0.14900000    Ang       
                            Buckingham C     10.937044    eV*Ang^6  
--------------------------------------------------------------------------------
O3   s O3   s Buckingham    Buckingham A     22764.000    eV        0.000 16.000
                            Buckingham rho  0.14900000    Ang       
                            Buckingham C     10.937044    eV*Ang^6  
--------------------------------------------------------------------------------
O1   c O1   s Spring (c-s)  Spring k 2       180.31577    eV*Ang^-2 0.000  0.800
                            Spring k 4       0.0000000    eV*Ang^-4 
--------------------------------------------------------------------------------
O2   c O2   s Spring (c-s)  Spring k 2       75.969800    eV*Ang^-2 0.000  0.800
                            Spring k 4       0.0000000    eV*Ang^-4 
--------------------------------------------------------------------------------
O3   c O3   s Spring (c-s)  Spring k 2       128.14270    eV*Ang^-2 0.000  0.800
                            Spring k 4       0.0000000    eV*Ang^-4 
--------------------------------------------------------------------------------

  General Three-body potentials :

--------------------------------------------------------------------------------
  Atoms       Potential      Parameter       Value         Units   Cutoffs(Ang)
  1 / 2 / 3                                                          Min /  Max 
--------------------------------------------------------------------------------
Si    core    Harmonic      Three-body cnst  1.2614000    eV*rad^-2 0.000  1.900
O1    shel                  Three-body angl  109.47000    degrees   0.000  1.900
O1    shel                  Three-body k4    0.0000000    eV*rad^-4 0.000  3.500
                            Three-body k3    0.0000000    eV*rad^-3 
--------------------------------------------------------------------------------
Si    core    Harmonic      Three-body cnst  1.2614000    eV*rad^-2 0.000  1.900
O1    shel                  Three-body angl  109.47000    degrees   0.000  1.900
õ(1   shel                  Three-body k4    0.0000000    eV*rad^-4 0.000  3.500
                            Three-body k3    0.0000000    eV*rad^-3 
--------------------------------------------------------------------------------
Si    core    Harmonic      Three-body cnst  1.2614000    eV*rad^-2 0.000  1.900
õ(1   shel                  Three-body angl  109.47000    degrees   0.000  1.900
õ(1   shel                  Three-body k4    0.0000000    eV*rad^-4 0.000  3.500
                            Three-body k3    0.0000000    eV*rad^-3 
--------------------------------------------------------------------------------
Si    core    Harmonic      Three-body cnst  1.2614000    eV*rad^-2 0.000  1.900
O1    shel                  Three-body angl  109.47000    degrees   0.000  1.900
O2    shel                  Three-body k4    0.0000000    eV*rad^-4 0.000  3.500
                            Three-body k3    0.0000000    eV*rad^-3 
--------------------------------------------------------------------------------
Si    core    Harmonic      Three-body cnst  1.2614000    eV*rad^-2 0.000  1.900
O1    shel                  Three-body angl  109.47000    degrees   0.000  1.900
õ(2   shel                  Three-body k4    0.0000000    eV*rad^-4 0.000  3.500
                            Three-body k3    0.0000000    eV*rad^-3 
--------------------------------------------------------------------------------
Si    core    Harmonic      Three-body cnst  1.2614000    eV*rad^-2 0.000  1.900
O2    shel                  Three-body angl  109.47000    degrees   0.000  1.900
õ(1   shel                  Three-body k4    0.0000000    eV*rad^-4 0.000  3.500
                            Three-body k3    0.0000000    eV*rad^-3 
--------------------------------------------------------------------------------
Si    core    Harmonic      Three-body cnst  1.2614000    eV*rad^-2 0.000  1.900
õ(1   shel                  Three-body angl  109.47000    degrees   0.000  1.900
õ(2   shel                  Three-body k4    0.0000000    eV*rad^-4 0.000  3.500
                            Three-body k3    0.0000000    eV*rad^-3 
--------------------------------------------------------------------------------
Si    core    Harmonic      Three-body cnst  1.2614000    eV*rad^-2 0.000  1.900
O2    shel                  Three-body angl  109.47000    degrees   0.000  1.900
O2    shel                  Three-body k4    0.0000000    eV*rad^-4 0.000  3.500
                            Three-body k3    0.0000000    eV*rad^-3 
--------------------------------------------------------------------------------
Si    core    Harmonic      Three-body cnst  1.2614000    eV*rad^-2 0.000  1.900
O2    shel                  Three-body angl  109.47000    degrees   0.000  1.900
õ(2   shel                  Three-body k4    0.0000000    eV*rad^-4 0.000  3.500
                            Three-body k3    0.0000000    eV*rad^-3 
--------------------------------------------------------------------------------
Si    core    Harmonic      Three-body cnst  1.2614000    eV*rad^-2 0.000  1.900
õ(2   shel                  Three-body angl  109.47000    degrees   0.000  1.900
õ(2   shel                  Three-body k4    0.0000000    eV*rad^-4 0.000  3.500
                            Three-body k3    0.0000000    eV*rad^-3 
--------------------------------------------------------------------------------

********************************************************************************
*  Output for configuration   1 : c00034.vasp                                  *
********************************************************************************


  Components of energy : 

--------------------------------------------------------------------------------
  Interatomic potentials     =         392.29488358 eV    
  Three-body potentials      =           0.00007096 eV    
  Monopole - monopole (real) =       -1236.99964305 eV    
  Monopole - monopole (recip)=        -659.26603192 eV    
  Monopole - monopole (total)=       -1896.26567496 eV    
--------------------------------------------------------------------------------
  Total lattice energy       =       -1503.97072042 eV    
--------------------------------------------------------------------------------
  Total lattice energy       =         -145110.1842 kJ/(mole unit cells)
--------------------------------------------------------------------------------


  Number of variables =      183

  Maximum number of calculations  =          1000
  Maximum Hessian update interval =            10
  Maximum step size               =   0.100000000
  Maximum parameter tolerance     =   0.000010000
  Maximum function  tolerance     =   0.000010000
  Maximum gradient  tolerance     =   0.001000000
  Maximum gradient  component     =   0.010000000

  Symmetry not applied to optimisation

  Cell parameters to be optimised using strains

  Newton-Raphson optimiser to be used

  BFGS hessian update to be used

  Lower half triangular hessian to be used

  Minimiser to switch to RFO
  When gradient norm is less than     0.050000

  Dumpfile to be written after every cycle

  Start of bulk optimisation :

  Cycle:      0 Energy:     -1503.970720  Gnorm:      5.409029  CPU:    0.029
  ** Hessian calculated **
  Cycle:      1 Energy:     -1519.592027  Gnorm:      1.374745  CPU:    0.065
  ** Hessian calculated **
  Cycle:      2 Energy:     -1522.607055  Gnorm:      0.682907  CPU:    0.131
  Cycle:      3 Energy:     -1523.212272  Gnorm:      0.395048  CPU:    0.175
  ** Hessian calculated **
  Cycle:      4 Energy:     -1523.342922  Gnorm:      0.225224  CPU:    0.234
  Cycle:      5 Energy:     -1523.411161  Gnorm:      0.153704  CPU:    0.266
  Cycle:      6 Energy:     -1523.475469  Gnorm:      0.123970  CPU:    0.307
  Cycle:      7 Energy:     -1523.532782  Gnorm:      0.103778  CPU:    0.349
  Cycle:      8 Energy:     -1523.562460  Gnorm:      0.079538  CPU:    0.385
  Cycle:      9 Energy:     -1523.580834  Gnorm:      0.061590  CPU:    0.421
  Cycle:     10 Energy:     -1523.591207  Gnorm:      0.047278  CPU:    0.456
  ** Hessian has required structure
  Cycle:     11 Energy:     -1523.595905  Gnorm:      0.072810  CPU:    0.492
  ** Hessian has required structure
  Cycle:     12 Energy:     -1523.604967  Gnorm:      0.093672  CPU:    0.535
  ** Hessian has required structure
  Cycle:     13 Energy:     -1523.616875  Gnorm:      0.081261  CPU:    0.577
  ** Hessian has wrong structure
  ** Imaginary eigenvectors =   2
  Cycle:     14 Energy:     -1523.627655  Gnorm:      0.081437  CPU:    0.724
  ** Hessian has wrong structure
  ** Imaginary eigenvectors =   2
  ** Hessian has wrong structure
  ** Imaginary eigenvectors =   2
  Cycle:     15 Energy:     -1523.644167  Gnorm:      0.082068  CPU:    0.884
  ** Hessian has wrong structure
  ** Imaginary eigenvectors =   2
  ** Hessian has wrong structure
  ** Imaginary eigenvectors =   2
  Cycle:     16 Energy:     -1523.668605  Gnorm:      0.084212  CPU:    1.023
  ** Hessian has wrong structure
  ** Imaginary eigenvectors =   2
  ** Hessian has required structure
  Cycle:     17 Energy:     -1523.763261  Gnorm:      0.065360  CPU:    1.149
  ** Hessian has required structure
  Cycle:     18 Energy:     -1523.827869  Gnorm:      0.034883  CPU:    1.198
  ** Hessian has required structure
  Cycle:     19 Energy:     -1523.843255  Gnorm:      0.032854  CPU:    1.240
  ** Hessian has required structure
  Cycle:     20 Energy:     -1523.853994  Gnorm:      0.028395  CPU:    1.276
  ** Hessian has required structure
  Cycle:     21 Energy:     -1523.859304  Gnorm:      0.017580  CPU:    1.318
  ** Hessian has required structure
  Cycle:     22 Energy:     -1523.860304  Gnorm:      0.010482  CPU:    1.361
  ** Hessian has required structure
  Cycle:     23 Energy:     -1523.860804  Gnorm:      0.005854  CPU:    1.403
  ** Hessian has required structure
  Cycle:     24 Energy:     -1523.860995  Gnorm:      0.003378  CPU:    1.446
  ** Hessian has required structure
  Cycle:     25 Energy:     -1523.861088  Gnorm:      0.001393  CPU:    1.495
  ** Hessian has required structure
  Cycle:     26 Energy:     -1523.861118  Gnorm:      0.001000  CPU:    1.538
  ** Hessian has required structure
  Cycle:     27 Energy:     -1523.861135  Gnorm:      0.000996  CPU:    1.610
  ** Hessian has required structure
  Cycle:     28 Energy:     -1523.861166  Gnorm:      0.000995  CPU:    1.673
  ** Hessian has required structure
  Cycle:     29 Energy:     -1523.861191  Gnorm:      0.000977  CPU:    1.715
  ** Hessian has required structure
  Cycle:     30 Energy:     -1523.861230  Gnorm:      0.000901  CPU:    1.765
  ** Hessian has required structure
  Cycle:     31 Energy:     -1523.861246  Gnorm:      0.000611  CPU:    1.807
  ** Hessian has required structure
  Cycle:     32 Energy:     -1523.861250  Gnorm:      0.000442  CPU:    1.843
  ** Hessian has required structure
  Cycle:     33 Energy:     -1523.861253  Gnorm:      0.000338  CPU:    1.879
  ** Hessian has required structure
  Cycle:     34 Energy:     -1523.858478  Gnorm:      0.025151  CPU:    1.935
  ** Hessian has wrong structure
  ** Imaginary eigenvectors =   1
  ** Hessian has wrong structure
  ** Imaginary eigenvectors =   1
  Cycle:     35 Energy:     -1523.858479  Gnorm:      0.025150  CPU:    2.043
  ** Hessian has wrong structure
  ** Imaginary eigenvectors =   1
  ** Hessian has wrong structure
  ** Imaginary eigenvectors =   1
  Cycle:     36 Energy:     -1523.858479  Gnorm:      0.025150  CPU:    2.184
  ** Hessian calculated **
  Cycle:     37 Energy:     -1523.860562  Gnorm:      0.012586  CPU:    2.250
  ** Hessian has required structure
  ** Hessian has wrong structure
  ** Imaginary eigenvectors =   1
  ** Hessian has wrong structure
  ** Imaginary eigenvectors =   1
  Cycle:     38 Energy:     -1523.860502  Gnorm:      0.013129  CPU:    2.390
  ** Hessian calculated **
  Cycle:     39 Energy:     -1523.861070  Gnorm:      0.004747  CPU:    2.449
  ** Hessian has required structure
  Cycle:     40 Energy:     -1523.861098  Gnorm:      0.004686  CPU:    2.485
  ** Hessian has required structure
  Cycle:     41 Energy:     -1523.861113  Gnorm:      0.004546  CPU:    2.521
  ** Hessian has required structure
  Cycle:     42 Energy:     -1523.861125  Gnorm:      0.004891  CPU:    2.564
  ** Hessian has required structure
  Cycle:     43 Energy:     -1523.861139  Gnorm:      0.005368  CPU:    2.614
  ** Hessian has required structure
  Cycle:     44 Energy:     -1523.861150  Gnorm:      0.004730  CPU:    2.657
  ** Hessian has required structure
  Cycle:     45 Energy:     -1523.861158  Gnorm:      0.004877  CPU:    2.700
  ** Hessian has required structure
  Cycle:     46 Energy:     -1523.861163  Gnorm:      0.005116  CPU:    2.737
  ** Hessian has required structure
  Cycle:     47 Energy:     -1523.861169  Gnorm:      0.005117  CPU:    2.773
  ** Hessian has required structure
  Cycle:     48 Energy:     -1523.861172  Gnorm:      0.004931  CPU:    2.809
  ** Hessian has required structure
  Cycle:     49 Energy:     -1523.861228  Gnorm:      0.002957  CPU:    2.874
  ** Hessian has required structure
  Cycle:     50 Energy:     -1523.861250  Gnorm:      0.001476  CPU:    2.924
  ** Hessian has required structure
  Cycle:     51 Energy:     -1523.861255  Gnorm:      0.000885  CPU:    2.967
  ** Hessian has required structure
  Cycle:     52 Energy:     -1523.861257  Gnorm:      0.000620  CPU:    3.003
  ** Hessian has required structure
  Cycle:     53 Energy:     -1523.861257  Gnorm:      0.000434  CPU:    3.038
  ** Hessian has required structure
  Cycle:     54 Energy:     -1523.861258  Gnorm:      0.000304  CPU:    3.074
  ** Hessian has required structure


  **** Optimisation achieved ****


  Final energy =   -1523.86125780 eV      
  Final Gnorm  =       0.00021249

  Components of energy : 

--------------------------------------------------------------------------------
  Interatomic potentials     =         403.89425878 eV    
  Three-body potentials      =           0.04886836 eV    
  Monopole - monopole (real) =        -886.90352941 eV    
  Monopole - monopole (recip)=       -1040.90085553 eV    
  Monopole - monopole (total)=       -1927.80438494 eV    
--------------------------------------------------------------------------------
  Total lattice energy       =       -1523.86125780 eV    
--------------------------------------------------------------------------------
  Total lattice energy       =         -147029.3170 kJ/(mole unit cells)
--------------------------------------------------------------------------------

  Final fractional coordinates of atoms :

--------------------------------------------------------------------------------
   No.  Atomic        x           y          z          Radius
        Label       (Frac)      (Frac)     (Frac)       (Angs) 
--------------------------------------------------------------------------------
     1  Ge    c     0.313820    0.296860    0.309830    0.000000
     2  Ge    c     0.317486    0.669962    0.632996    0.000000
     3  Ge    c     0.875984    0.023562    0.351094    0.000000
     4  Si    c     0.695302    0.302240    0.701612    0.000000
     5  Si    c     0.682616    0.703033    0.707357    0.000000
     6  Si    c     0.291629    0.699282    0.318030    0.000000
     7  Si    c     0.333132    0.270787    0.621971    0.000000
     8  Si    c     0.677651    0.325270    0.399296    0.000000
     9  Si    c     0.649143    0.729221    0.400034    0.000000
    10  Si    c     0.117019    0.973289    0.655194    0.000000
    11  Si    c     0.080440    0.005956    0.155835    0.000000
    12  Si    c     0.905553    0.997805    0.842330    0.000000
    13  O3    c     0.271407    0.262190    0.459305    0.000000
    14  O2    c     0.733896    0.286002    0.562134    0.000000
    15  O2    c     0.708624    0.750153    0.563007    0.000000
    16  O3    c     0.256102    0.692430    0.458773    0.000000
    17  O3    c     0.274882    0.511203    0.255937    0.000000
    18  O2    c     0.723013    0.500246    0.750716    0.000000
    19  O3    c     0.505017    0.252276    0.333454    0.000000
    20  O2    c     0.518048    0.245946    0.673825    0.000000
    21  O3    c     0.508000    0.736383    0.698885    0.000000
    22  O2    c     0.467014    0.769795    0.345093    0.000000
    23  O3    c     0.195953    0.169210    0.188070    0.000000
    24  O2    c     0.802674    0.172086    0.815860    0.000000
    25  O2    c     0.797339    0.825654    0.817514    0.000000
    26  O2    c     0.173398    0.830684    0.216229    0.000000
    27  O3    c     0.296147    0.453289    0.672271    0.000000
    28  O2    c     0.678982    0.532097    0.367060    0.000000
    29  O2    c     0.254224    0.117775    0.686456    0.000000
    30  O3    c     0.795603    0.227111    0.344654    0.000000
    31  O3    c     0.736396    0.862113    0.329867    0.000000
    32  O3    c     0.199487    0.788009    0.695717    0.000000
    33  O3    c     0.026016    0.981178    0.495800    0.000000
    34  O3    c     0.939286    0.027984    0.212614    0.000000
    35  O2    c     0.006927    0.007771    0.742349    0.000000
    36  O2    c     0.016497    0.989625    0.994662    0.000000
    37  O3    s     0.280720    0.265746    0.463087    0.000000
    38  O2    s     0.724027    0.291698    0.560391    0.000000
    39  O2    s     0.699886    0.743218    0.561084    0.000000
    40  O3    s     0.264792    0.691270    0.459013    0.000000
    41  O3    s     0.279724    0.512973    0.266573    0.000000
    42  O2    s     0.715865    0.500244    0.741005    0.000000
    43  O3    s     0.506373    0.263107    0.337988    0.000000
    44  O2    s     0.517733    0.254893    0.671261    0.000000
    45  O3    s     0.510294    0.727543    0.694391    0.000000
    46  O2    s     0.468411    0.758096    0.348232    0.000000
    47  O3    s     0.194518    0.163780    0.195407    0.000000
    48  O2    s     0.801729    0.167976    0.806056    0.000000
    49  O2    s     0.796241    0.830571    0.808006    0.000000
    50  O2    s     0.176666    0.834990    0.221263    0.000000
    51  O3    s     0.301569    0.452804    0.664075    0.000000
    52  O2    s     0.675722    0.530863    0.373970    0.000000
    53  O2    s     0.248577    0.119571    0.676015    0.000000
    54  O3    s     0.789718    0.221164    0.350905    0.000000
    55  O3    s     0.738412    0.860984    0.339162    0.000000
    56  O3    s     0.201143    0.796397    0.686595    0.000000
    57  O3    s     0.022119    0.984085    0.499302    0.000000
    58  O3    s     0.948362    0.025332    0.218540    0.000000
    59  O2    s     0.008297    0.002544    0.743396    0.000000
    60  O2    s     0.010526    0.992467    0.994788    0.000000
--------------------------------------------------------------------------------

  Final Cartesian lattice vectors (Angstroms) :

        9.117498   -0.096261   -0.012916
       -0.080361    7.685661    0.138269
       -3.318224    0.210747    9.851922


  Final cell parameters and derivatives :

--------------------------------------------------------------------------------
       a            9.118015 Angstrom     dE/de1(xx)    -0.006431 eV/strain
       b            7.687324 Angstrom     dE/de2(yy)    -0.005322 eV/strain
       c           10.397856 Angstrom     dE/de3(zz)     0.002281 eV/strain
       alpha       87.670728 Degrees      dE/de4(yz)     0.001794 eV/strain
       beta       108.703075 Degrees      dE/de5(xz)    -0.000840 eV/strain
       gamma       91.205223 Degrees      dE/de6(xy)    -0.007686 eV/strain
--------------------------------------------------------------------------------

  Primitive cell volume =           689.736673 Angs**3

  Density of cell =      2.057576 g/cm**3

  Non-primitive cell volume =           689.736673 Angs**3


  Final internal derivatives :

--------------------------------------------------------------------------------
   No.  Atomic          a             b             c           Radius
        Label          (eV)          (eV)          (eV)        (eV/Angs)
--------------------------------------------------------------------------------
      1 Ge    c       0.000000      0.000000      0.000000      0.000000
      2 Ge    c       0.004895     -0.003293      0.000493      0.000000
      3 Ge    c      -0.004296     -0.004462      0.001248      0.000000
      4 Si    c      -0.006469      0.000205      0.004125      0.000000
      5 Si    c      -0.001117      0.001709      0.000630      0.000000
      6 Si    c       0.006123      0.001605     -0.002787      0.000000
      7 Si    c      -0.001817     -0.004418      0.004418      0.000000
      8 Si    c      -0.005652      0.002255     -0.000323      0.000000
      9 Si    c       0.002933      0.003923     -0.005868      0.000000
     10 Si    c       0.004133      0.004749      0.000901      0.000000
     11 Si    c       0.003014      0.004472      0.005396      0.000000
     12 Si    c      -0.003045     -0.003550     -0.003751      0.000000
     13 O3    c      -0.001143     -0.000745     -0.003411      0.000000
     14 O2    c       0.001429     -0.000291     -0.001886      0.000000
     15 O2    c       0.000695      0.000885      0.003525      0.000000
     16 O3    c      -0.001229     -0.000901     -0.000296      0.000000
     17 O3    c       0.000650     -0.003381      0.000449      0.000000
     18 O2    c       0.000118     -0.000871     -0.000899      0.000000
     19 O3    c       0.003253      0.002702      0.002685      0.000000
     20 O2    c       0.004294      0.001138     -0.000331      0.000000
     21 O3    c      -0.001839     -0.002522     -0.002336      0.000000
     22 O2    c      -0.005641     -0.001339      0.000522      0.000000
     23 O3    c      -0.007362     -0.006970      0.002317      0.000000
     24 O2    c      -0.000365      0.000080     -0.000843      0.000000
     25 O2    c       0.004138      0.004509     -0.001110      0.000000
     26 O2    c       0.000152     -0.000180      0.000307      0.000000
     27 O3    c      -0.000382      0.008353     -0.000664      0.000000
     28 O2    c      -0.000115     -0.002955      0.001124      0.000000
     29 O2    c      -0.000731      0.000372     -0.005696      0.000000
     30 O3    c       0.004587     -0.000953     -0.004398      0.000000
     31 O3    c      -0.000390     -0.000169      0.007935      0.000000
     32 O3    c      -0.005082      0.002484      0.004461      0.000000
     33 O3    c      -0.000639      0.000256     -0.001744      0.000000
     34 O3    c       0.002770     -0.001129     -0.003869      0.000000
     35 O2    c      -0.002486      0.000581      0.001927      0.000000
     36 O2    c       0.001082     -0.000506     -0.002903      0.000000
     37 O3    s       0.001861      0.001580      0.002238      0.000000
     38 O2    s      -0.000763      0.000604      0.000658      0.000000
     39 O2    s      -0.001919     -0.002340     -0.001076      0.000000
     40 O3    s       0.000944      0.000404      0.001487      0.000000
     41 O3    s      -0.001358      0.002782      0.000682      0.000000
     42 O2    s       0.000930      0.000033     -0.000466      0.000000
     43 O3    s      -0.001322     -0.002204     -0.002303      0.000000
     44 O2    s      -0.001435     -0.000197     -0.001453      0.000000
     45 O3    s       0.001117      0.002575      0.001816      0.000000
     46 O2    s       0.002181      0.000105      0.001266      0.000000
     47 O3    s       0.005004      0.004599     -0.002926      0.000000
     48 O2    s       0.001690      0.000367      0.000700      0.000000
     49 O2    s      -0.002214     -0.002521      0.001670      0.000000
     50 O2    s      -0.001202     -0.000553     -0.000525      0.000000
     51 O3    s       0.000471     -0.005509     -0.000661      0.000000
     52 O2    s       0.000533      0.000630      0.000153      0.000000
     53 O2    s      -0.000786     -0.000635      0.004098      0.000000
     54 O3    s      -0.003246     -0.000235      0.003378      0.000000
     55 O3    s       0.001398      0.000576     -0.006405      0.000000
     56 O3    s       0.003735     -0.000655     -0.003994      0.000000
     57 O3    s       0.000926     -0.000803      0.001442      0.000000
     58 O3    s      -0.001546      0.000353      0.001632      0.000000
     59 O2    s       0.001770     -0.000015     -0.001051      0.000000
     60 O2    s      -0.001074      0.000197      0.001707      0.000000
--------------------------------------------------------------------------------
  Maximum abs         0.007362      0.008353      0.007935      0.000000
--------------------------------------------------------------------------------


  Born effective charge tensors : 

-------------------------------------------------------------------------------
  Atom             x           y             z
-------------------------------------------------------------------------------
    1 Ge    x       3.8022      0.1670      0.3350
            y       0.2687      4.1391      0.2464
            z       0.1972      0.2388      3.6023
-------------------------------------------------------------------------------
    2 Ge    x       4.0676     -0.2416     -0.0672
            y      -0.4089      4.1444      0.0661
            z       0.0691      0.1014      3.2746
-------------------------------------------------------------------------------
    3 Ge    x       4.4738     -0.1627     -0.2061
            y       0.1027      3.9578      0.0787
            z      -0.2829     -0.0492      3.6919
-------------------------------------------------------------------------------
    4 Si    x       3.0770     -0.1634      0.2701
            y      -0.1962      3.4456     -0.2035
            z       0.1177     -0.1657      2.8422
-------------------------------------------------------------------------------
    5 Si    x       3.4954      0.1327      0.2344
            y       0.1406      3.5253      0.2266
            z       0.1686      0.1681      2.9086
-------------------------------------------------------------------------------
    6 Si    x       3.2791     -0.1382      0.1050
            y      -0.3392      3.7353      0.0299
            z       0.0604     -0.0871      3.2652
-------------------------------------------------------------------------------
    7 Si    x       3.4187      0.2482     -0.1200
            y       0.0935      3.7309      0.1745
            z       0.0644      0.0870      3.0572
-------------------------------------------------------------------------------
    8 Si    x       3.8632     -0.2155     -0.0579
            y      -0.4687      3.6036      0.1685
            z       0.0434      0.1649      2.8843
-------------------------------------------------------------------------------
    9 Si    x       3.4587      0.4049     -0.2316
            y       0.3944      3.6029     -0.1804
            z      -0.0072     -0.1274      2.8152
-------------------------------------------------------------------------------
   10 Si    x       3.8671     -0.3385      0.2204
            y      -0.0272      3.5352     -0.0977
            z      -0.3103      0.0353      3.2476
-------------------------------------------------------------------------------
   11 Si    x       3.7838      0.0447      0.0992
            y       0.1950      3.4935      0.0307
            z      -0.0379      0.2301      4.1341
-------------------------------------------------------------------------------
   12 Si    x       3.2425     -0.0102     -0.0842
            y      -0.0049      3.2600      0.0339
            z       0.3661     -0.0196      3.7978
-------------------------------------------------------------------------------
   13 O3    x      -1.4704     -0.1398      0.2594
            y      -0.1424     -1.3718      0.0119
            z       0.2814      0.0160     -2.5511
-------------------------------------------------------------------------------
   14 O2    x      -1.3024      0.0828      0.2629
            y       0.1147     -1.2764      0.0700
            z       0.2363      0.0834     -1.9519
-------------------------------------------------------------------------------
   15 O2    x      -1.2496     -0.1202      0.1701
            y      -0.1185     -1.2832     -0.0275
            z       0.1619     -0.0027     -2.0240
-------------------------------------------------------------------------------
   16 O3    x      -1.5151      0.0609      0.4215
            y       0.0980     -1.3651      0.1151
            z       0.3873      0.0937     -2.5224
-------------------------------------------------------------------------------
   17 O3    x      -1.2393      0.0757     -0.0892
            y       0.1555     -3.1269     -0.1711
            z      -0.0638     -0.1474     -1.3258
-------------------------------------------------------------------------------
   18 O2    x      -1.1091      0.0338     -0.0786
            y       0.0451     -2.5787     -0.0523
            z      -0.0503     -0.0482     -1.1243
-------------------------------------------------------------------------------
   19 O3    x      -2.8018     -0.1546     -0.5174
            y      -0.1570     -1.4640     -0.1312
            z      -0.5394     -0.1357     -1.3382
-------------------------------------------------------------------------------
   20 O2    x      -2.3774     -0.1345     -0.3335
            y      -0.0812     -1.2675      0.0081
            z      -0.3295      0.0073     -1.1018
-------------------------------------------------------------------------------
   21 O3    x      -2.9969     -0.0439     -0.3758
            y       0.0294     -1.4061     -0.0728
            z      -0.3902     -0.0892     -1.2381
-------------------------------------------------------------------------------
   22 O2    x      -2.2770     -0.0410     -0.3625
            y      -0.0122     -1.2845      0.0248
            z      -0.3927      0.0367     -1.1560
-------------------------------------------------------------------------------
   23 O3    x      -1.7761     -0.7784     -0.5342
            y      -0.8316     -2.3918     -0.7001
            z      -0.5235     -0.7287     -1.8774
-------------------------------------------------------------------------------
   24 O2    x      -1.4696      0.6163     -0.3393
            y       0.5771     -2.0068      0.5015
            z      -0.3515      0.5092     -1.5219
-------------------------------------------------------------------------------
   25 O2    x      -1.4781     -0.5905     -0.3356
            y      -0.5762     -1.9814     -0.5138
            z      -0.3757     -0.5231     -1.5433
-------------------------------------------------------------------------------
   26 O2    x      -1.4706      0.5409     -0.4102
            y       0.5399     -1.9498      0.5549
            z      -0.3909      0.5467     -1.6129
-------------------------------------------------------------------------------
   27 O3    x      -1.4094      0.1379      0.1149
            y       0.1843     -3.0779     -0.1643
            z       0.0707     -0.1122     -1.1746
-------------------------------------------------------------------------------
   28 O2    x      -1.2213      0.0917      0.0588
            y       0.1571     -2.5015     -0.0164
            z       0.0317     -0.0275     -1.0633
-------------------------------------------------------------------------------
   29 O2    x      -1.9143     -0.7182      0.0964
            y      -0.7277     -1.8923      0.0998
            z       0.1271      0.0908     -1.1062
-------------------------------------------------------------------------------
   30 O3    x      -2.3356      1.0445      0.3677
            y       0.9779     -2.3520     -0.2674
            z       0.3483     -0.2612     -1.2698
-------------------------------------------------------------------------------
   31 O3    x      -2.3507     -1.0751      0.3253
            y      -1.0744     -2.3161      0.2713
            z       0.2707      0.2520     -1.2962
-------------------------------------------------------------------------------
   32 O3    x      -2.1444      0.9824      0.1196
            y       0.9238     -2.5174     -0.0292
            z       0.1834     -0.0548     -1.2284
-------------------------------------------------------------------------------
   33 O3    x      -1.7733      0.1079     -0.7018
            y       0.0038     -1.2799      0.0708
            z      -0.4131      0.1129     -2.5749
-------------------------------------------------------------------------------
   34 O3    x      -2.7359      0.1746      0.9696
            y       0.1200     -1.2430     -0.0761
            z       0.9677     -0.0814     -2.1393
-------------------------------------------------------------------------------
   35 O2    x      -2.2327      0.1053      0.7113
            y       0.0516     -1.1350     -0.0436
            z       0.6934     -0.0581     -1.6665
-------------------------------------------------------------------------------
   36 O2    x      -1.1781      0.0138     -0.2967
            y      -0.0070     -1.1044     -0.0359
            z      -0.3881     -0.0551     -3.1128
-------------------------------------------------------------------------------




  Elastic Constant Matrix: (Units=GPa)

-------------------------------------------------------------------------------
  Indices      1         2         3         4         5         6    
-------------------------------------------------------------------------------
       1     38.0466   19.7874   11.3604    2.6685    1.7676  -14.9802
       2     19.7874   55.7689   16.0130    4.3436    8.0486  -18.2475
       3     11.3604   16.0130   34.6387    3.8806   15.0690    0.2846
       4      2.6685    4.3436    3.8806   14.9080    1.8877    5.4254
       5      1.7676    8.0486   15.0690    1.8877   15.5874    0.3698
       6    -14.9802  -18.2475    0.2846    5.4254    0.3698   19.1874
-------------------------------------------------------------------------------


  Elastic Compliance Matrix: (Units=1/GPa)

-------------------------------------------------------------------------------
  Indices      1         2         3         4         5         6    
-------------------------------------------------------------------------------
       1    0.053490  0.005849 -0.025165 -0.026913  0.017197  0.054976
       2    0.005849  0.039111 -0.016032 -0.025802 -0.003406  0.049361
       3   -0.025165 -0.016032  0.067074  0.012568 -0.054322 -0.038396
       4   -0.026913 -0.025802  0.012568  0.104312 -0.006626 -0.075103
       5    0.017197 -0.003406 -0.054322 -0.006626  0.117030  0.010611
       6    0.054976  0.049361 -0.038396 -0.075103  0.010611  0.163583
-------------------------------------------------------------------------------

  Mechanical properties :

-------------------------------------------------------------------------------
  Convention :                    Reuss         Voigt         Hill
-------------------------------------------------------------------------------
  Bulk  Modulus (GPa)     =      11.23865      24.75286      17.99576
  Shear Modulus (GPa)     =       7.75246      15.35611      11.55429
-------------------------------------------------------------------------------
  Velocity S-wave (km/s)  =       1.94107       2.73189       2.36970
  Velocity P-wave (km/s)  =       3.23817       4.68839       4.02907
-------------------------------------------------------------------------------
  Compressibility (1/GPa) =    0.08897862
-------------------------------------------------------------------------------
  Stress axis :                     x             y             z
-------------------------------------------------------------------------------
  Youngs Moduli (GPa)     =      18.69511      25.56803      14.90892
-------------------------------------------------------------------------------
  Poissons Ratio (x)      =                    -0.14955       0.37518
  Poissons Ratio (y)      =      -0.10935                     0.23903
  Poissons Ratio (z)      =       0.47046       0.40992
-------------------------------------------------------------------------------


  Piezoelectric Strain Matrix: (Units=C/m**2)

-------------------------------------------------------------------------------
  Indices      1         2         3         4         5         6    
-------------------------------------------------------------------------------
       x     0.45993  -0.17122   1.23717   0.11336   0.07102   0.02851
       y    -0.29870  -1.04011  -0.57301   0.43708  -0.45920  -0.30369
       z    -0.40023  -0.13925  -1.04816  -0.34359   0.43031   0.02300
-------------------------------------------------------------------------------


  Piezoelectric Stress Matrix: (Units=10**-11 C/N)

-------------------------------------------------------------------------------
  Indices      1         2         3         4         5         6    
-------------------------------------------------------------------------------
       x    -0.77950  -2.56005   7.06243   1.68010  -5.08500  -3.37645
       y    -4.39964  -5.79441   2.78563   9.91167  -3.03255 -13.31374
       z     2.20656   1.75521  -8.65763  -3.92278  10.34092   4.55014
-------------------------------------------------------------------------------


  Static dielectric constant tensor : 

-------------------------------------------------------------------------------
              x         y         z
-------------------------------------------------------------------------------
       x     4.45470  -0.10940   0.08457
       y    -0.10940   4.69233   0.12652
       z     0.08457   0.12652   3.29739
--------------------------------------------------------------------------------

  High frequency dielectric constant tensor : 

-------------------------------------------------------------------------------
              x         y         z
-------------------------------------------------------------------------------
       x     1.63799  -0.00246   0.00976
       y    -0.00246   1.64697   0.00319
       z     0.00976   0.00319   1.59010
-------------------------------------------------------------------------------

  Static refractive indices : 

-------------------------------------------------------------------------------
    1 =    1.81065      2 =    2.10369      3 =    2.17726
-------------------------------------------------------------------------------

  High frequency refractive indices : 

-------------------------------------------------------------------------------
    1 =    1.26015      2 =    1.28042      3 =    1.28359
-------------------------------------------------------------------------------


  Time to end of optimisation =       3.1572 seconds


  Peak dynamic memory used =       2.76 MB 


  Timing analysis for GULP :

--------------------------------------------------------------------------------
  Task / Subroutine                                          Time (Seconds)
--------------------------------------------------------------------------------
  Calculation of reciprocal space energy and derivatives          0.2091
  Calculation of real space energy and derivatives                2.4978
  Calculation of three-body energy and derivatives                0.0779
  Calculation and manipulation of Hessian matrix                  0.6381
  Calculation of matrix inversion                                 0.0037
--------------------------------------------------------------------------------
  Total CPU time                                                  3.1572
--------------------------------------------------------------------------------


  Dump file written as c00034.vasp.grs
  CIF file written as c00034.vasp.cif


  Job Finished at 21:28.01  6th October    2025                               

