********************************************************************************
*                       GENERAL UTILITY LATTICE PROGRAM                        *
*                                 Julian Gale                                  *
*                       Curtin Institute for Computation                       *
*                    School of Molecular and Life Sciences                     *
*                    Curtin University, Western Australia                      *
********************************************************************************
* Version = 6.1.2 * Last modified =   3rd November 2022                        *
********************************************************************************
*  optimise     - perform optimisation run                                     *
*  conp         - constant pressure calculation                                *
*  property     - calculate properties for final geometry                      *
********************************************************************************

  Job Started  at 21:26.35  6th October    2025                               

  Number of CPUs =     1


  Total number of configurations input =      1

********************************************************************************
*  Input for Configuration =   1 : c00010.vasp                                 *
********************************************************************************

  Formula = Ge3Si9O24                                                   

  Number of irreducible atoms/shells =      60


  Total number atoms/shells =      60

  Dimensionality = 3               :  Bulk   



  Cartesian lattice vectors (Angstroms) :

        9.086940    0.000000    0.000000
        0.000000    7.554810    0.000000
       -3.295144    0.000000    9.944380

  Cell parameters (Angstroms/Degrees):

  a =       9.0869    alpha =  90.0000
  b =       7.5548    beta  = 108.3330
  c =      10.4761    gamma =  90.0000

  Initial cell volume =         682.682735 Angs**3

  Temperature of configuration =   0.00     K 

  Pressure of configuration =         0.000 GPa 

  Fractional coordinates of asymmetric unit :

--------------------------------------------------------------------------------
   No.  Atomic       x           y          z         Charge      Occupancy
        Label      (Frac)      (Frac)     (Frac)        (e)         (Frac)  
--------------------------------------------------------------------------------
      1 Ge    c    0.313820    0.296860    0.309830     4.00000    1.000000    
      2 Ge    c    0.313820 *  0.703140 *  0.309830 *   4.00000    1.000000    
      3 Ge    c    0.331050 *  0.296920 *  0.607380 *   4.00000    1.000000    
      4 Si    c    0.686180 *  0.296860 *  0.690170 *   4.00000    1.000000    
      5 Si    c    0.686180 *  0.703140 *  0.690170 *   4.00000    1.000000    
      6 Si    c    0.668950 *  0.296920 *  0.392620 *   4.00000    1.000000    
      7 Si    c    0.668950 *  0.703080 *  0.392620 *   4.00000    1.000000    
      8 Si    c    0.331050 *  0.703080 *  0.607380 *   4.00000    1.000000    
      9 Si    c    0.879680 *  0.000000 *  0.350160 *   4.00000    1.000000    
     10 Si    c    0.120320 *  0.000000 *  0.649840 *   4.00000    1.000000    
     11 Si    c    0.093070 *  0.000000 *  0.158230 *   4.00000    1.000000    
     12 Si    c    0.906930 *  0.000000 *  0.841770 *   4.00000    1.000000    
     13 O1    c    0.268740 *  0.279030 *  0.446100 *   1.73396    1.000000    
     14 O2    c    0.731260 *  0.279030 *  0.553900 *   0.87073    1.000000    
     15 O2    c    0.731260 *  0.720970 *  0.553900 *   0.87073    1.000000    
     16 O3    c    0.268740 *  0.720970 *  0.446100 *   1.33043    1.000000    
     17 O1    c    0.295480 *  0.500000 *  0.260860 *   1.73396    1.000000    
     18 O2    c    0.704520 *  0.500000 *  0.739140 *   0.87073    1.000000    
     19 O3    c    0.490600 *  0.234690 *  0.337530 *   1.33043    1.000000    
     20 O3    c    0.509400 *  0.234690 *  0.662470 *   1.33043    1.000000    
     21 O2    c    0.509400 *  0.765310 *  0.662470 *   0.87073    1.000000    
     22 O3    c    0.490600 *  0.765310 *  0.337530 *   1.33043    1.000000    
     23 O3    c    0.200440 *  0.174000 *  0.194980 *   1.33043    1.000000    
     24 O2    c    0.799560 *  0.174000 *  0.805020 *   0.87073    1.000000    
     25 O2    c    0.799560 *  0.826000 *  0.805020 *   0.87073    1.000000    
     26 O3    c    0.200440 *  0.826000 *  0.194980 *   1.33043    1.000000    
     27 O3    c    0.317860 *  0.500000 *  0.649090 *   1.33043    1.000000    
     28 O2    c    0.682140 *  0.500000 *  0.350910 *   0.87073    1.000000    
     29 O3    c    0.227920 *  0.173870 *  0.671620 *   1.33043    1.000000    
     30 O2    c    0.772080 *  0.173870 *  0.328380 *   0.87073    1.000000    
     31 O2    c    0.772080 *  0.826130 *  0.328380 *   0.87073    1.000000    
     32 O2    c    0.227920 *  0.826130 *  0.671620 *   0.87073    1.000000    
     33 O2    c    0.000000 *  0.000000 *  0.500000 *   0.87073    1.000000    
     34 O2    c    0.971960 *  0.000000 *  0.241930 *   0.87073    1.000000    
     35 O2    c    0.028040 *  0.000000 *  0.758070 *   0.87073    1.000000    
     36 O2    c    0.000000 *  0.000000 *  0.000000 *   0.87073    1.000000    
     37 O1    s    0.268740 *  0.279030 *  0.446100 *  -3.73396    1.000000    
     38 O2    s    0.731260 *  0.279030 *  0.553900 *  -2.87073    1.000000    
     39 O2    s    0.731260 *  0.720970 *  0.553900 *  -2.87073    1.000000    
     40 O3    s    0.268740 *  0.720970 *  0.446100 *  -3.33043    1.000000    
     41 O1    s    0.295480 *  0.500000 *  0.260860 *  -3.73396    1.000000    
     42 O2    s    0.704520 *  0.500000 *  0.739140 *  -2.87073    1.000000    
     43 O3    s    0.490600 *  0.234690 *  0.337530 *  -3.33043    1.000000    
     44 O3    s    0.509400 *  0.234690 *  0.662470 *  -3.33043    1.000000    
     45 O2    s    0.509400 *  0.765310 *  0.662470 *  -2.87073    1.000000    
     46 O3    s    0.490600 *  0.765310 *  0.337530 *  -3.33043    1.000000    
     47 O3    s    0.200440 *  0.174000 *  0.194980 *  -3.33043    1.000000    
     48 O2    s    0.799560 *  0.174000 *  0.805020 *  -2.87073    1.000000    
     49 O2    s    0.799560 *  0.826000 *  0.805020 *  -2.87073    1.000000    
     50 O3    s    0.200440 *  0.826000 *  0.194980 *  -3.33043    1.000000    
     51 O3    s    0.317860 *  0.500000 *  0.649090 *  -3.33043    1.000000    
     52 O2    s    0.682140 *  0.500000 *  0.350910 *  -2.87073    1.000000    
     53 O3    s    0.227920 *  0.173870 *  0.671620 *  -3.33043    1.000000    
     54 O2    s    0.772080 *  0.173870 *  0.328380 *  -2.87073    1.000000    
     55 O2    s    0.772080 *  0.826130 *  0.328380 *  -2.87073    1.000000    
     56 O2    s    0.227920 *  0.826130 *  0.671620 *  -2.87073    1.000000    
     57 O2    s    0.000000 *  0.000000 *  0.500000 *  -2.87073    1.000000    
     58 O2    s    0.971960 *  0.000000 *  0.241930 *  -2.87073    1.000000    
     59 O2    s    0.028040 *  0.000000 *  0.758070 *  -2.87073    1.000000    
     60 O2    s    0.000000 *  0.000000 *  0.000000 *  -2.87073    1.000000    
--------------------------------------------------------------------------------



********************************************************************************
*  General input information                                                   *
********************************************************************************

  Species output for all configurations : 

--------------------------------------------------------------------------------
  Species    Type    Atomic    Atomic    Charge       Radii (Angs)     Library
                     Number     Mass       (e)     Cova   Ionic  VDW   Symbol
--------------------------------------------------------------------------------
    Ge       Core       32      72.61   4.000000   1.170  0.000  1.750 Ge       
    Si       Core       14      28.09   4.000000   1.200  0.000  2.100 Si       
    O1       Core        8      16.00   1.733957   0.730  0.000  1.360 O1       
    O2       Core        8      16.00   0.870733   0.730  0.000  1.360 O2       
    O3       Core        8      16.00   1.330431   0.730  0.000  1.360 O3       
    O1       Shell       8       0.00  -3.733957   0.730  0.000  0.000 O1       
    O2       Shell       8       0.00  -2.870733   0.730  0.000  0.000 O2       
    O3       Shell       8       0.00  -3.330431   0.730  0.000  0.000 O3       
--------------------------------------------------------------------------------


  Lattice summation method               =    Ewald          (3-D)
                                         =    Parry          (2-D)
                                         =    Saunders et al (1-D)
  Accuracy factor for lattice sums       =   12.000


  Analytic derivatives to be used

  Time limit = Infinity

  Maximum range for interatomic potentials =    100000.000000 Angstroms

  General interatomic potentials :

--------------------------------------------------------------------------------
Atom  Types   Potential      Parameter       Value         Units   Cutoffs(Ang)
  1     2                                                            Min /  Max 
--------------------------------------------------------------------------------
Si   c O1   s Buckingham    Buckingham A     1315.2478    eV        0.000 16.000
                            Buckingham rho  0.31775900    Ang       
                            Buckingham C     10.141118    eV*Ang^6  
--------------------------------------------------------------------------------
Si   c O2   s Buckingham    Buckingham A     1315.2478    eV        0.000 16.000
                            Buckingham rho  0.31775900    Ang       
                            Buckingham C     10.141118    eV*Ang^6  
--------------------------------------------------------------------------------
Si   c O3   s Buckingham    Buckingham A     1315.2478    eV        0.000 16.000
                            Buckingham rho  0.31775900    Ang       
                            Buckingham C     10.141118    eV*Ang^6  
--------------------------------------------------------------------------------
Ge   c O1   s Buckingham    Buckingham A     1497.3996    eV        0.000 16.000
                            Buckingham rho  0.32564600    Ang       
                            Buckingham C     16.808599    eV*Ang^6  
--------------------------------------------------------------------------------
Ge   c O2   s Buckingham    Buckingham A     1497.3996    eV        0.000 16.000
                            Buckingham rho  0.32564600    Ang       
                            Buckingham C     16.808599    eV*Ang^6  
--------------------------------------------------------------------------------
Ge   c O3   s Buckingham    Buckingham A     1497.3996    eV        0.000 16.000
                            Buckingham rho  0.32564600    Ang       
                            Buckingham C     16.808599    eV*Ang^6  
--------------------------------------------------------------------------------
O1   s O1   s Buckingham    Buckingham A     22764.000    eV        0.000 16.000
                            Buckingham rho  0.14900000    Ang       
                            Buckingham C     10.937044    eV*Ang^6  
--------------------------------------------------------------------------------
O1   s O2   s Buckingham    Buckingham A     22764.000    eV        0.000 16.000
                            Buckingham rho  0.14900000    Ang       
                            Buckingham C     10.937044    eV*Ang^6  
--------------------------------------------------------------------------------
O1   s O3   s Buckingham    Buckingham A     22764.000    eV        0.000 16.000
                            Buckingham rho  0.14900000    Ang       
                            Buckingham C     10.937044    eV*Ang^6  
--------------------------------------------------------------------------------
O2   s O2   s Buckingham    Buckingham A     22764.000    eV        0.000 16.000
                            Buckingham rho  0.14900000    Ang       
                            Buckingham C     10.937044    eV*Ang^6  
--------------------------------------------------------------------------------
O2   s O3   s Buckingham    Buckingham A     22764.000    eV        0.000 16.000
                            Buckingham rho  0.14900000    Ang       
                            Buckingham C     10.937044    eV*Ang^6  
--------------------------------------------------------------------------------
O3   s O3   s Buckingham    Buckingham A     22764.000    eV        0.000 16.000
                            Buckingham rho  0.14900000    Ang       
                            Buckingham C     10.937044    eV*Ang^6  
--------------------------------------------------------------------------------
O1   c O1   s Spring (c-s)  Spring k 2       180.31577    eV*Ang^-2 0.000  0.800
                            Spring k 4       0.0000000    eV*Ang^-4 
--------------------------------------------------------------------------------
O2   c O2   s Spring (c-s)  Spring k 2       75.969800    eV*Ang^-2 0.000  0.800
                            Spring k 4       0.0000000    eV*Ang^-4 
--------------------------------------------------------------------------------
O3   c O3   s Spring (c-s)  Spring k 2       128.14270    eV*Ang^-2 0.000  0.800
                            Spring k 4       0.0000000    eV*Ang^-4 
--------------------------------------------------------------------------------

  General Three-body potentials :

--------------------------------------------------------------------------------
  Atoms       Potential      Parameter       Value         Units   Cutoffs(Ang)
  1 / 2 / 3                                                          Min /  Max 
--------------------------------------------------------------------------------
Si    core    Harmonic      Three-body cnst  1.2614000    eV*rad^-2 0.000  1.900
O1    shel                  Three-body angl  109.47000    degrees   0.000  1.900
O1    shel                  Three-body k4    0.0000000    eV*rad^-4 0.000  3.500
                            Three-body k3    0.0000000    eV*rad^-3 
--------------------------------------------------------------------------------
Si    core    Harmonic      Three-body cnst  1.2614000    eV*rad^-2 0.000  1.900
O1    shel                  Three-body angl  109.47000    degrees   0.000  1.900
õ(1   shel                  Three-body k4    0.0000000    eV*rad^-4 0.000  3.500
                            Three-body k3    0.0000000    eV*rad^-3 
--------------------------------------------------------------------------------
Si    core    Harmonic      Three-body cnst  1.2614000    eV*rad^-2 0.000  1.900
õ(1   shel                  Three-body angl  109.47000    degrees   0.000  1.900
õ(1   shel                  Three-body k4    0.0000000    eV*rad^-4 0.000  3.500
                            Three-body k3    0.0000000    eV*rad^-3 
--------------------------------------------------------------------------------
Si    core    Harmonic      Three-body cnst  1.2614000    eV*rad^-2 0.000  1.900
O1    shel                  Three-body angl  109.47000    degrees   0.000  1.900
O2    shel                  Three-body k4    0.0000000    eV*rad^-4 0.000  3.500
                            Three-body k3    0.0000000    eV*rad^-3 
--------------------------------------------------------------------------------
Si    core    Harmonic      Three-body cnst  1.2614000    eV*rad^-2 0.000  1.900
O1    shel                  Three-body angl  109.47000    degrees   0.000  1.900
õ(2   shel                  Three-body k4    0.0000000    eV*rad^-4 0.000  3.500
                            Three-body k3    0.0000000    eV*rad^-3 
--------------------------------------------------------------------------------
Si    core    Harmonic      Three-body cnst  1.2614000    eV*rad^-2 0.000  1.900
O2    shel                  Three-body angl  109.47000    degrees   0.000  1.900
õ(1   shel                  Three-body k4    0.0000000    eV*rad^-4 0.000  3.500
                            Three-body k3    0.0000000    eV*rad^-3 
--------------------------------------------------------------------------------
Si    core    Harmonic      Three-body cnst  1.2614000    eV*rad^-2 0.000  1.900
õ(1   shel                  Three-body angl  109.47000    degrees   0.000  1.900
õ(2   shel                  Three-body k4    0.0000000    eV*rad^-4 0.000  3.500
                            Three-body k3    0.0000000    eV*rad^-3 
--------------------------------------------------------------------------------
Si    core    Harmonic      Three-body cnst  1.2614000    eV*rad^-2 0.000  1.900
O2    shel                  Three-body angl  109.47000    degrees   0.000  1.900
O2    shel                  Three-body k4    0.0000000    eV*rad^-4 0.000  3.500
                            Three-body k3    0.0000000    eV*rad^-3 
--------------------------------------------------------------------------------
Si    core    Harmonic      Three-body cnst  1.2614000    eV*rad^-2 0.000  1.900
O2    shel                  Three-body angl  109.47000    degrees   0.000  1.900
õ(2   shel                  Three-body k4    0.0000000    eV*rad^-4 0.000  3.500
                            Three-body k3    0.0000000    eV*rad^-3 
--------------------------------------------------------------------------------
Si    core    Harmonic      Three-body cnst  1.2614000    eV*rad^-2 0.000  1.900
õ(2   shel                  Three-body angl  109.47000    degrees   0.000  1.900
õ(2   shel                  Three-body k4    0.0000000    eV*rad^-4 0.000  3.500
                            Three-body k3    0.0000000    eV*rad^-3 
--------------------------------------------------------------------------------

********************************************************************************
*  Output for configuration   1 : c00010.vasp                                  *
********************************************************************************


  Components of energy : 

--------------------------------------------------------------------------------
  Interatomic potentials     =         392.27702543 eV    
  Three-body potentials      =           0.00025907 eV    
  Monopole - monopole (real) =       -1236.99964305 eV    
  Monopole - monopole (recip)=        -659.26603192 eV    
  Monopole - monopole (total)=       -1896.26567496 eV    
--------------------------------------------------------------------------------
  Total lattice energy       =       -1503.98839046 eV    
--------------------------------------------------------------------------------
  Total lattice energy       =         -145111.8891 kJ/(mole unit cells)
--------------------------------------------------------------------------------


  Number of variables =      183

  Maximum number of calculations  =          1000
  Maximum Hessian update interval =            10
  Maximum step size               =   0.100000000
  Maximum parameter tolerance     =   0.000010000
  Maximum function  tolerance     =   0.000010000
  Maximum gradient  tolerance     =   0.001000000
  Maximum gradient  component     =   0.010000000

  Symmetry not applied to optimisation

  Cell parameters to be optimised using strains

  Newton-Raphson optimiser to be used

  BFGS hessian update to be used

  Lower half triangular hessian to be used

  Minimiser to switch to RFO
  When gradient norm is less than     0.050000

  Dumpfile to be written after every cycle

  Start of bulk optimisation :

  Cycle:      0 Energy:     -1503.988390  Gnorm:      5.417909  CPU:    0.031
  ** Hessian calculated **
  Cycle:      1 Energy:     -1511.246196  Gnorm:      4.253103  CPU:    0.099
  ** Hessian calculated **
  Cycle:      2 Energy:     -1520.037408  Gnorm:      2.073912  CPU:    0.192
  ** Hessian calculated **
  Cycle:      3 Energy:     -1522.293746  Gnorm:      0.542700  CPU:    0.249
  Cycle:      4 Energy:     -1522.600605  Gnorm:      0.278975  CPU:    0.289
  Cycle:      5 Energy:     -1522.736653  Gnorm:      0.192525  CPU:    0.328
  Cycle:      6 Energy:     -1522.865503  Gnorm:      0.171884  CPU:    0.375
  Cycle:      7 Energy:     -1522.957014  Gnorm:      0.154429  CPU:    0.415
  Cycle:      8 Energy:     -1523.028991  Gnorm:      0.146894  CPU:    0.454
  Cycle:      9 Energy:     -1523.086863  Gnorm:      0.133545  CPU:    0.493
  Cycle:     10 Energy:     -1523.130056  Gnorm:      0.109877  CPU:    0.532
  Cycle:     11 Energy:     -1523.160713  Gnorm:      0.089771  CPU:    0.571
  Cycle:     12 Energy:     -1523.185967  Gnorm:      0.077287  CPU:    0.610
  ** Hessian calculated **
  Cycle:     13 Energy:     -1523.211943  Gnorm:      0.074039  CPU:    0.681
  Cycle:     14 Energy:     -1523.249151  Gnorm:      0.068760  CPU:    0.735
  Cycle:     15 Energy:     -1523.268853  Gnorm:      0.064743  CPU:    0.782
  ** Hessian calculated **
  Cycle:     16 Energy:     -1523.317811  Gnorm:      0.059072  CPU:    0.853
  Cycle:     17 Energy:     -1523.390043  Gnorm:      0.050221  CPU:    0.907
  Cycle:     18 Energy:     -1523.465002  Gnorm:      0.039148  CPU:    0.954
  ** Hessian has required structure
  Cycle:     19 Energy:     -1523.466808  Gnorm:      0.044861  CPU:    1.000
  ** Hessian has required structure
  Cycle:     20 Energy:     -1523.469558  Gnorm:      0.056577  CPU:    1.046
  ** Hessian has required structure
  Cycle:     21 Energy:     -1523.474659  Gnorm:      0.061213  CPU:    1.092
  ** Hessian has required structure
  Cycle:     22 Energy:     -1523.478450  Gnorm:      0.050357  CPU:    1.130
  ** Hessian has required structure
  Cycle:     23 Energy:     -1523.481153  Gnorm:      0.051681  CPU:    1.168
  ** Hessian has required structure
  Cycle:     24 Energy:     -1523.483571  Gnorm:      0.050142  CPU:    1.207
  ** Hessian has required structure
  Cycle:     25 Energy:     -1523.486879  Gnorm:      0.056269  CPU:    1.253
  ** Hessian has wrong structure
  ** Imaginary eigenvectors =   1
  Cycle:     26 Energy:     -1523.506833  Gnorm:      0.067343  CPU:    1.366
  ** Hessian has wrong structure
  ** Imaginary eigenvectors =   1
  Cycle:     27 Energy:     -1523.523340  Gnorm:      0.088341  CPU:    1.465
  ** Hessian has required structure
  Cycle:     28 Energy:     -1523.628878  Gnorm:      0.059079  CPU:    1.542
  ** Hessian has required structure
  Cycle:     29 Energy:     -1523.685229  Gnorm:      0.046216  CPU:    1.595
  ** Hessian has required structure
  Cycle:     30 Energy:     -1523.715501  Gnorm:      0.020271  CPU:    1.641
  ** Hessian has required structure
  Cycle:     31 Energy:     -1523.732606  Gnorm:      0.031009  CPU:    1.688
  ** Hessian has required structure
  Cycle:     32 Energy:     -1523.742400  Gnorm:      0.021313  CPU:    1.741
  ** Hessian has required structure
  Cycle:     33 Energy:     -1523.747397  Gnorm:      0.019351  CPU:    1.794
  ** Hessian has required structure
  Cycle:     34 Energy:     -1523.750346  Gnorm:      0.007462  CPU:    1.840
  ** Hessian has required structure
  Cycle:     35 Energy:     -1523.751736  Gnorm:      0.009070  CPU:    1.894
  ** Hessian has required structure
  Cycle:     36 Energy:     -1523.753185  Gnorm:      0.008428  CPU:    1.949
  ** Hessian has required structure
  Cycle:     37 Energy:     -1523.754175  Gnorm:      0.008659  CPU:    1.995
  ** Hessian has required structure
  Cycle:     38 Energy:     -1523.755525  Gnorm:      0.004727  CPU:    2.063
  ** Hessian has required structure
  Cycle:     39 Energy:     -1523.755891  Gnorm:      0.002694  CPU:    2.108
  ** Hessian has required structure
  Cycle:     40 Energy:     -1523.755985  Gnorm:      0.001623  CPU:    2.149
  ** Hessian has required structure
  Cycle:     41 Energy:     -1523.756032  Gnorm:      0.000874  CPU:    2.198
  ** Hessian has required structure
  Cycle:     42 Energy:     -1523.756043  Gnorm:      0.000430  CPU:    2.248
  ** Hessian has required structure
  Cycle:     43 Energy:     -1523.756045  Gnorm:      0.000308  CPU:    2.284
  ** Hessian has required structure
  Cycle:     44 Energy:     -1523.756048  Gnorm:      0.000212  CPU:    2.320
  ** Hessian has required structure


  **** Optimisation achieved ****


  Final energy =   -1523.75604884 eV      
  Final Gnorm  =       0.00015126

  Components of energy : 

--------------------------------------------------------------------------------
  Interatomic potentials     =         405.84745849 eV    
  Three-body potentials      =           0.05583322 eV    
  Monopole - monopole (real) =        -878.28847143 eV    
  Monopole - monopole (recip)=       -1051.37086912 eV    
  Monopole - monopole (total)=       -1929.65934055 eV    
--------------------------------------------------------------------------------
  Total lattice energy       =       -1523.75604884 eV    
--------------------------------------------------------------------------------
  Total lattice energy       =         -147019.1660 kJ/(mole unit cells)
--------------------------------------------------------------------------------

  Final fractional coordinates of atoms :

--------------------------------------------------------------------------------
   No.  Atomic        x           y          z          Radius
        Label       (Frac)      (Frac)     (Frac)       (Angs) 
--------------------------------------------------------------------------------
     1  Ge    c     0.313820    0.296860    0.309830    0.000000
     2  Ge    c     0.283926    0.717423    0.304840    0.000000
     3  Ge    c     0.335610    0.294125    0.631142    0.000000
     4  Si    c     0.688740    0.346636    0.708340    0.000000
     5  Si    c     0.664864    0.736851    0.700933    0.000000
     6  Si    c     0.667664    0.356138    0.391168    0.000000
     7  Si    c     0.649467    0.751867    0.387486    0.000000
     8  Si    c     0.305897    0.704239    0.617666    0.000000
     9  Si    c     0.881364    0.049973    0.379990    0.000000
    10  Si    c     0.116766    0.998759    0.682572    0.000000
    11  Si    c     0.068770    0.019033    0.164079    0.000000
    12  Si    c     0.888703    0.031541    0.851864    0.000000
    13  O1    c     0.314121    0.219589    0.469372    0.000000
    14  O2    c     0.649749    0.327579    0.543537    0.000000
    15  O2    c     0.667291    0.787441    0.547447    0.000000
    16  O3    c     0.278029    0.781046    0.464906    0.000000
    17  O1    c     0.240515    0.502572    0.281888    0.000000
    18  O2    c     0.741585    0.547232    0.748210    0.000000
    19  O3    c     0.499363    0.308101    0.291442    0.000000
    20  O3    c     0.527622    0.299240    0.735545    0.000000
    21  O2    c     0.488296    0.726994    0.704121    0.000000
    22  O3    c     0.470996    0.765351    0.298305    0.000000
    23  O3    c     0.207218    0.158832    0.184274    0.000000
    24  O2    c     0.826000    0.221103    0.791931    0.000000
    25  O2    c     0.754966    0.884297    0.804774    0.000000
    26  O3    c     0.143363    0.829891    0.181701    0.000000
    27  O3    c     0.260192    0.502571    0.614214    0.000000
    28  O2    c     0.711387    0.558768    0.371142    0.000000
    29  O3    c     0.235807    0.159352    0.712648    0.000000
    30  O2    c     0.799972    0.237343    0.366308    0.000000
    31  O2    c     0.753907    0.894351    0.336827    0.000000
    32  O2    c     0.205168    0.816832    0.689973    0.000000
    33  O2    c     0.986538    0.024511    0.536058    0.000000
    34  O2    c     0.985876    0.056556    0.279769    0.000000
    35  O2    c     0.035077    0.984729    0.802079    0.000000
    36  O2    c     0.940386    0.038964    0.016174    0.000000
    37  O1    s     0.315750    0.231083    0.469805    0.000000
    38  O2    s     0.655475    0.332739    0.544953    0.000000
    39  O2    s     0.665175    0.778290    0.547144    0.000000
    40  O3    s     0.281214    0.768494    0.467213    0.000000
    41  O1    s     0.249836    0.504043    0.285953    0.000000
    42  O2    s     0.728375    0.546247    0.739294    0.000000
    43  O3    s     0.502271    0.312099    0.302962    0.000000
    44  O3    s     0.528715    0.303547    0.724716    0.000000
    45  O2    s     0.488655    0.725606    0.694807    0.000000
    46  O3    s     0.474555    0.760348    0.307761    0.000000
    47  O3    s     0.202266    0.156352    0.192644    0.000000
    48  O2    s     0.817343    0.214711    0.788963    0.000000
    49  O2    s     0.759427    0.883830    0.798129    0.000000
    50  O3    s     0.147522    0.839585    0.190078    0.000000
    51  O3    s     0.270733    0.506654    0.615895    0.000000
    52  O2    s     0.700586    0.557579    0.374913    0.000000
    53  O3    s     0.231905    0.154146    0.702792    0.000000
    54  O2    s     0.793915    0.230522    0.370563    0.000000
    55  O2    s     0.756080    0.895456    0.346948    0.000000
    56  O2    s     0.206613    0.824020    0.681317    0.000000
    57  O2    s     0.988864    0.024568    0.534412    0.000000
    58  O2    s     0.982734    0.051783    0.278969    0.000000
    59  O2    s     0.027861    0.991451    0.794478    0.000000
    60  O2    s     0.948816    0.035903    0.013974    0.000000
--------------------------------------------------------------------------------

  Final Cartesian lattice vectors (Angstroms) :

        9.025929   -0.087623    0.077660
       -0.077850    7.674972    0.063882
       -3.191909    0.108435    9.663856


  Final cell parameters and derivatives :

--------------------------------------------------------------------------------
       a            9.026688 Angstrom     dE/de1(xx)     0.007595 eV/strain
       b            7.675633 Angstrom     dE/de2(yy)     0.009428 eV/strain
       c           10.177925 Angstrom     dE/de3(zz)     0.002133 eV/strain
       alpha       88.754516 Degrees      dE/de4(yz)     0.000273 eV/strain
       beta       107.789401 Degrees      dE/de5(xz)     0.001059 eV/strain
       gamma       91.133167 Degrees      dE/de6(xy)     0.000006 eV/strain
--------------------------------------------------------------------------------

  Primitive cell volume =           671.242858 Angs**3

  Density of cell =      2.114266 g/cm**3

  Non-primitive cell volume =           671.242858 Angs**3


  Final internal derivatives :

--------------------------------------------------------------------------------
   No.  Atomic          a             b             c           Radius
        Label          (eV)          (eV)          (eV)        (eV/Angs)
--------------------------------------------------------------------------------
      1 Ge    c       0.000000      0.000000      0.000000      0.000000
      2 Ge    c      -0.000580     -0.000690      0.003961      0.000000
      3 Ge    c       0.000048     -0.001240     -0.002064      0.000000
      4 Si    c       0.001356     -0.000744     -0.000472      0.000000
      5 Si    c       0.000828      0.001485     -0.001747      0.000000
      6 Si    c      -0.000422     -0.000011     -0.000566      0.000000
      7 Si    c      -0.000352      0.002282      0.001727      0.000000
      8 Si    c       0.000284      0.001273     -0.003515      0.000000
      9 Si    c       0.002411     -0.000846     -0.000726      0.000000
     10 Si    c      -0.002060     -0.001204      0.000041      0.000000
     11 Si    c      -0.003181     -0.000540     -0.002686      0.000000
     12 Si    c      -0.000454      0.000387      0.003830      0.000000
     13 O1    c       0.000308     -0.000557     -0.002432      0.000000
     14 O2    c      -0.000714     -0.000463      0.001270      0.000000
     15 O2    c      -0.000340     -0.000179     -0.000572      0.000000
     16 O3    c       0.002030     -0.001372      0.001526      0.000000
     17 O1    c      -0.001335      0.001782      0.000495      0.000000
     18 O2    c       0.000723     -0.000992      0.000559      0.000000
     19 O3    c       0.003291      0.000666     -0.000585      0.000000
     20 O3    c      -0.000462     -0.000596      0.001605      0.000000
     21 O2    c      -0.001673      0.000509     -0.000228      0.000000
     22 O3    c       0.001659     -0.000058     -0.000598      0.000000
     23 O3    c       0.007652      0.005754     -0.003932      0.000000
     24 O2    c       0.000878      0.000982     -0.000508      0.000000
     25 O2    c      -0.001560     -0.001047      0.000711      0.000000
     26 O3    c       0.003194     -0.005723     -0.003681      0.000000
     27 O3    c      -0.001552      0.003004      0.000271      0.000000
     28 O2    c       0.000830     -0.003251      0.000056      0.000000
     29 O3    c       0.002607      0.005841      0.002182      0.000000
     30 O2    c      -0.000212      0.001940     -0.000432      0.000000
     31 O2    c      -0.000986     -0.001470     -0.000508      0.000000
     32 O2    c       0.002110     -0.002722      0.000285      0.000000
     33 O2    c      -0.000768      0.000371     -0.001450      0.000000
     34 O2    c      -0.004999      0.000831      0.008743      0.000000
     35 O2    c       0.003127     -0.000584     -0.001734      0.000000
     36 O2    c       0.000114     -0.000165     -0.001282      0.000000
     37 O1    s       0.000453      0.001033      0.001259      0.000000
     38 O2    s       0.000093      0.001726     -0.001180      0.000000
     39 O2    s      -0.000504     -0.000700      0.000207      0.000000
     40 O3    s      -0.000236     -0.001368      0.000469      0.000000
     41 O1    s       0.001326     -0.000451      0.001068      0.000000
     42 O2    s      -0.000383     -0.000133     -0.001762      0.000000
     43 O3    s      -0.000775      0.000802     -0.000090      0.000000
     44 O3    s       0.000488      0.000554     -0.000404      0.000000
     45 O2    s      -0.001054     -0.001566     -0.000813      0.000000
     46 O3    s      -0.001447     -0.000249      0.000773      0.000000
     47 O3    s       0.000152      0.001618     -0.002006      0.000000
     48 O2    s      -0.000880      0.001065      0.000169      0.000000
     49 O2    s      -0.000943     -0.000296      0.000473      0.000000
     50 O3    s       0.000110     -0.002485      0.000449      0.000000
     51 O3    s       0.002772      0.000164     -0.001635      0.000000
     52 O2    s      -0.001366      0.000332      0.001920      0.000000
     53 O3    s      -0.000085     -0.000602      0.000332      0.000000
     54 O2    s      -0.000883      0.000667     -0.000305      0.000000
     55 O2    s      -0.000182      0.000095     -0.000910      0.000000
     56 O2    s       0.001382     -0.002082     -0.000076      0.000000
     57 O2    s      -0.001910     -0.000408      0.000447      0.000000
     58 O2    s      -0.003050     -0.000476     -0.000849      0.000000
     59 O2    s      -0.000840     -0.000381      0.001440      0.000000
     60 O2    s      -0.002824      0.000564     -0.000108      0.000000
--------------------------------------------------------------------------------
  Maximum abs         0.007652      0.005841      0.008743      0.000000
--------------------------------------------------------------------------------


  Born effective charge tensors : 

-------------------------------------------------------------------------------
  Atom             x           y             z
-------------------------------------------------------------------------------
    1 Ge    x       3.8783      0.3931      0.2039
            y       0.0872      4.2364      0.2448
            z       0.3131      0.1077      3.6098
-------------------------------------------------------------------------------
    2 Ge    x       3.8916     -0.2170      0.2251
            y      -0.2203      4.2051     -0.3115
            z       0.3839     -0.0371      3.5771
-------------------------------------------------------------------------------
    3 Ge    x       4.0666      0.4300      0.0268
            y       0.2458      4.1854     -0.1779
            z      -0.0464      0.1419      3.3382
-------------------------------------------------------------------------------
    4 Si    x       3.4086     -0.1529     -0.0064
            y      -0.1774      3.5538     -0.2103
            z       0.2977     -0.2076      2.8741
-------------------------------------------------------------------------------
    5 Si    x       3.0607      0.3508      0.1139
            y       0.0473      3.4433      0.1886
            z       0.1585      0.2050      2.8666
-------------------------------------------------------------------------------
    6 Si    x       3.5030     -0.1854      0.2462
            y      -0.2343      3.5115      0.1134
            z       0.0438      0.0874      2.8496
-------------------------------------------------------------------------------
    7 Si    x       3.5583      0.3054      0.2005
            y       0.1640      3.4910     -0.0914
            z       0.1579      0.0256      2.8814
-------------------------------------------------------------------------------
    8 Si    x       3.4685     -0.2033     -0.0258
            y      -0.1709      3.8572      0.0772
            z      -0.0579     -0.1903      2.9764
-------------------------------------------------------------------------------
    9 Si    x       3.6067     -0.0946      0.0683
            y       0.0454      3.2770      0.0538
            z      -0.3578     -0.0557      2.9578
-------------------------------------------------------------------------------
   10 Si    x       3.8760      0.1229     -0.0328
            y       0.1674      3.4344      0.1283
            z      -0.1956      0.0078      3.0317
-------------------------------------------------------------------------------
   11 Si    x       3.5430     -0.1657     -0.1149
            y       0.1450      3.6066      0.0407
            z       0.5189     -0.0674      4.0175
-------------------------------------------------------------------------------
   12 Si    x       3.1832     -0.1777      0.1991
            y       0.1590      3.2348     -0.0327
            z       0.0029      0.0727      3.8259
-------------------------------------------------------------------------------
   13 O1    x      -1.5185     -0.1556      0.3350
            y      -0.0846     -1.5861     -0.0725
            z       0.3251     -0.0571     -2.5784
-------------------------------------------------------------------------------
   14 O2    x      -1.2901      0.0615      0.2602
            y       0.0708     -1.2867      0.0230
            z       0.2276      0.0288     -2.0093
-------------------------------------------------------------------------------
   15 O2    x      -1.2716     -0.1299      0.3034
            y      -0.0704     -1.2799      0.0067
            z       0.2794     -0.0087     -2.0100
-------------------------------------------------------------------------------
   16 O3    x      -1.4383      0.1237      0.3159
            y       0.0943     -1.4505      0.1583
            z       0.2953      0.1378     -2.4760
-------------------------------------------------------------------------------
   17 O1    x      -1.4106      0.1076     -0.1019
            y       0.1668     -3.3838      0.0026
            z      -0.1448     -0.0280     -1.2887
-------------------------------------------------------------------------------
   18 O2    x      -1.1525      0.0733     -0.0618
            y       0.1306     -2.4976      0.0145
            z      -0.1105      0.0172     -1.1194
-------------------------------------------------------------------------------
   19 O3    x      -2.7145     -0.2370     -0.5079
            y      -0.1865     -1.3877     -0.1636
            z      -0.5783     -0.1585     -1.5023
-------------------------------------------------------------------------------
   20 O3    x      -2.8528     -0.2344     -0.2884
            y      -0.1956     -1.3987      0.0630
            z      -0.2506      0.0288     -1.3240
-------------------------------------------------------------------------------
   21 O2    x      -2.3550     -0.0733     -0.3087
            y       0.0014     -1.2431     -0.0564
            z      -0.3066     -0.0348     -1.1516
-------------------------------------------------------------------------------
   22 O3    x      -2.8737     -0.0960     -0.5429
            y      -0.0035     -1.3544      0.0852
            z      -0.5871      0.0137     -1.4408
-------------------------------------------------------------------------------
   23 O3    x      -1.9725     -0.7915     -0.4221
            y      -0.8213     -2.1505     -0.5933
            z      -0.5116     -0.5560     -1.7976
-------------------------------------------------------------------------------
   24 O2    x      -1.4152      0.5891     -0.3366
            y       0.5013     -2.0942      0.5414
            z      -0.3341      0.5423     -1.4749
-------------------------------------------------------------------------------
   25 O2    x      -1.4760     -0.5732     -0.3779
            y      -0.5538     -1.9583     -0.5511
            z      -0.3555     -0.5793     -1.5440
-------------------------------------------------------------------------------
   26 O3    x      -1.7142      0.7756     -0.3868
            y       0.7506     -2.4097      0.5806
            z      -0.5128      0.5717     -1.7897
-------------------------------------------------------------------------------
   27 O3    x      -1.4386     -0.0316     -0.0361
            y       0.0556     -3.2131      0.0249
            z       0.0011      0.0198     -1.0787
-------------------------------------------------------------------------------
   28 O2    x      -1.2289      0.0459      0.0271
            y       0.0809     -2.5296      0.0095
            z       0.0586     -0.0110     -1.0396
-------------------------------------------------------------------------------
   29 O3    x      -2.2951     -1.0567      0.1531
            y      -0.9992     -2.3371      0.1246
            z       0.1365      0.0539     -1.2587
-------------------------------------------------------------------------------
   30 O2    x      -1.8395      0.8025      0.0413
            y       0.7379     -2.0717     -0.0574
            z       0.1343     -0.0533     -1.0439
-------------------------------------------------------------------------------
   31 O2    x      -1.8657     -0.7816      0.0286
            y      -0.7543     -1.9630      0.0286
            z       0.1083      0.0537     -1.1087
-------------------------------------------------------------------------------
   32 O2    x      -1.8910      0.7483      0.2110
            y       0.6988     -1.9157     -0.1886
            z       0.2056     -0.1200     -1.1244
-------------------------------------------------------------------------------
   33 O2    x      -1.5344      0.0934     -0.5548
            y       0.0325     -1.1611      0.1157
            z      -0.3117      0.1551     -2.0841
-------------------------------------------------------------------------------
   34 O2    x      -2.1022      0.1078      0.7823
            y       0.0322     -1.1495     -0.0866
            z       0.7339     -0.0745     -1.8627
-------------------------------------------------------------------------------
   35 O2    x      -2.2072      0.1634      0.6171
            y       0.0772     -1.1256     -0.0524
            z       0.6363     -0.0665     -1.6720
-------------------------------------------------------------------------------
   36 O2    x      -1.1864      0.0630     -0.2532
            y      -0.0198     -1.0892      0.0202
            z      -0.3573      0.0350     -3.0268
-------------------------------------------------------------------------------




  Elastic Constant Matrix: (Units=GPa)

-------------------------------------------------------------------------------
  Indices      1         2         3         4         5         6    
-------------------------------------------------------------------------------
       1     46.2877   23.3426    9.2136   -0.8329    0.2270  -15.6918
       2     23.3426   74.2785   10.3455    1.1618    3.6242  -18.6203
       3      9.2136   10.3455   38.3567    4.3786    5.1360   -2.3683
       4     -0.8329    1.1618    4.3786   10.2579    0.8737    2.9266
       5      0.2270    3.6242    5.1360    0.8737   12.9526   -2.0521
       6    -15.6918  -18.6203   -2.3683    2.9266   -2.0521   23.9497
-------------------------------------------------------------------------------


  Elastic Compliance Matrix: (Units=1/GPa)

-------------------------------------------------------------------------------
  Indices      1         2         3         4         5         6    
-------------------------------------------------------------------------------
       1    0.030764 -0.005125 -0.005842  0.000515  0.005715  0.016021
       2   -0.005125  0.018325 -0.002234 -0.004509 -0.002099  0.011040
       3   -0.005842 -0.002234  0.030777 -0.011847 -0.010997 -0.002016
       4    0.000515 -0.004509 -0.011847  0.108581 -0.004221 -0.017970
       5    0.005715 -0.002099 -0.010997 -0.004221  0.083718  0.008715
       6    0.016021  0.011040 -0.002016 -0.017970  0.008715  0.063577
-------------------------------------------------------------------------------

  Mechanical properties :

-------------------------------------------------------------------------------
  Convention :                    Reuss         Voigt         Hill
-------------------------------------------------------------------------------
  Bulk  Modulus (GPa)     =      18.70432      27.19182      22.94807
  Shear Modulus (GPa)     =      13.15906      17.16679      15.16292
-------------------------------------------------------------------------------
  Velocity S-wave (km/s)  =       2.49478       2.84947       2.67801
  Velocity P-wave (km/s)  =       4.14069       4.86694       4.51843
-------------------------------------------------------------------------------
  Compressibility (1/GPa) =    0.05346359
-------------------------------------------------------------------------------
  Stress axis :                     x             y             z
-------------------------------------------------------------------------------
  Youngs Moduli (GPa)     =      32.50575      54.57067      32.49131
-------------------------------------------------------------------------------
  Poissons Ratio (x)      =                     0.27966       0.18982
  Poissons Ratio (y)      =       0.16658                     0.07259
  Poissons Ratio (z)      =       0.18991       0.12192
-------------------------------------------------------------------------------


  Piezoelectric Strain Matrix: (Units=C/m**2)

-------------------------------------------------------------------------------
  Indices      1         2         3         4         5         6    
-------------------------------------------------------------------------------
       x     0.79799  -0.62932  -1.80245   0.53630  -0.43470   0.19159
       y     1.14777   2.14077   0.61138  -0.49150   0.16605  -0.12467
       z     0.97088   0.22420   0.57680   0.55931  -1.07678   0.15556
-------------------------------------------------------------------------------


  Piezoelectric Stress Matrix: (Units=10**-11 C/N)

-------------------------------------------------------------------------------
  Indices      1         2         3         4         5         6    
-------------------------------------------------------------------------------
       x     3.91658  -1.09853  -6.06904   8.12256  -1.12836   0.82263
       y     1.94658   3.24725   1.15763  -6.81330   1.02335   4.31423
       z     2.19752  -0.07007   1.64808   5.51357  -9.24150   0.73220
-------------------------------------------------------------------------------


  Static dielectric constant tensor : 

-------------------------------------------------------------------------------
              x         y         z
-------------------------------------------------------------------------------
       x     4.26105   0.01888   0.21648
       y     0.01888   4.52132  -0.03367
       z     0.21648  -0.03367   3.30688
--------------------------------------------------------------------------------

  High frequency dielectric constant tensor : 

-------------------------------------------------------------------------------
              x         y         z
-------------------------------------------------------------------------------
       x     1.65819  -0.00209   0.01014
       y    -0.00209   1.66560   0.00152
       z     0.01014   0.00152   1.60641
-------------------------------------------------------------------------------

  Static refractive indices : 

-------------------------------------------------------------------------------
    1 =    1.80527      2 =    2.07540      3 =    2.12673
-------------------------------------------------------------------------------

  High frequency refractive indices : 

-------------------------------------------------------------------------------
    1 =    1.26666      2 =    1.28825      3 =    1.29080
-------------------------------------------------------------------------------


  Time to end of optimisation =       2.4022 seconds


  Peak dynamic memory used =       2.76 MB 


  Timing analysis for GULP :

--------------------------------------------------------------------------------
  Task / Subroutine                                          Time (Seconds)
--------------------------------------------------------------------------------
  Calculation of reciprocal space energy and derivatives          0.1551
  Calculation of real space energy and derivatives                1.9522
  Calculation of three-body energy and derivatives                0.0808
  Calculation and manipulation of Hessian matrix                  0.2689
  Calculation of matrix inversion                                 0.0040
--------------------------------------------------------------------------------
  Total CPU time                                                  2.4022
--------------------------------------------------------------------------------


  Dump file written as c00010.vasp.grs
  CIF file written as c00010.vasp.cif


  Job Finished at 21:26.38  6th October    2025                               

