********************************************************************************
*                       GENERAL UTILITY LATTICE PROGRAM                        *
*                                 Julian Gale                                  *
*                       Curtin Institute for Computation                       *
*                    School of Molecular and Life Sciences                     *
*                    Curtin University, Western Australia                      *
********************************************************************************
* Version = 6.1.2 * Last modified =   3rd November 2022                        *
********************************************************************************
*  optimise     - perform optimisation run                                     *
*  conp         - constant pressure calculation                                *
*  property     - calculate properties for final geometry                      *
********************************************************************************

  Job Started  at 21:26.50  6th October    2025                               

  Number of CPUs =     1


  Total number of configurations input =      1

********************************************************************************
*  Input for Configuration =   1 : c00015.vasp                                 *
********************************************************************************

  Formula = Ge3Si9O24                                                   

  Number of irreducible atoms/shells =      60


  Total number atoms/shells =      60

  Dimensionality = 3               :  Bulk   



  Cartesian lattice vectors (Angstroms) :

        9.086940    0.000000    0.000000
        0.000000    7.554810    0.000000
       -3.295144    0.000000    9.944380

  Cell parameters (Angstroms/Degrees):

  a =       9.0869    alpha =  90.0000
  b =       7.5548    beta  = 108.3330
  c =      10.4761    gamma =  90.0000

  Initial cell volume =         682.682735 Angs**3

  Temperature of configuration =   0.00     K 

  Pressure of configuration =         0.000 GPa 

  Fractional coordinates of asymmetric unit :

--------------------------------------------------------------------------------
   No.  Atomic       x           y          z         Charge      Occupancy
        Label      (Frac)      (Frac)     (Frac)        (e)         (Frac)  
--------------------------------------------------------------------------------
      1 Ge    c    0.313820    0.296860    0.309830     4.00000    1.000000    
      2 Ge    c    0.313820 *  0.703140 *  0.309830 *   4.00000    1.000000    
      3 Ge    c    0.906930 *  0.000000 *  0.841770 *   4.00000    1.000000    
      4 Si    c    0.686180 *  0.296860 *  0.690170 *   4.00000    1.000000    
      5 Si    c    0.686180 *  0.703140 *  0.690170 *   4.00000    1.000000    
      6 Si    c    0.331050 *  0.296920 *  0.607380 *   4.00000    1.000000    
      7 Si    c    0.668950 *  0.296920 *  0.392620 *   4.00000    1.000000    
      8 Si    c    0.668950 *  0.703080 *  0.392620 *   4.00000    1.000000    
      9 Si    c    0.331050 *  0.703080 *  0.607380 *   4.00000    1.000000    
     10 Si    c    0.879680 *  0.000000 *  0.350160 *   4.00000    1.000000    
     11 Si    c    0.120320 *  0.000000 *  0.649840 *   4.00000    1.000000    
     12 Si    c    0.093070 *  0.000000 *  0.158230 *   4.00000    1.000000    
     13 O3    c    0.268740 *  0.279030 *  0.446100 *   1.33043    1.000000    
     14 O2    c    0.731260 *  0.279030 *  0.553900 *   0.87073    1.000000    
     15 O2    c    0.731260 *  0.720970 *  0.553900 *   0.87073    1.000000    
     16 O3    c    0.268740 *  0.720970 *  0.446100 *   1.33043    1.000000    
     17 O1    c    0.295480 *  0.500000 *  0.260860 *   1.73396    1.000000    
     18 O2    c    0.704520 *  0.500000 *  0.739140 *   0.87073    1.000000    
     19 O3    c    0.490600 *  0.234690 *  0.337530 *   1.33043    1.000000    
     20 O2    c    0.509400 *  0.234690 *  0.662470 *   0.87073    1.000000    
     21 O2    c    0.509400 *  0.765310 *  0.662470 *   0.87073    1.000000    
     22 O3    c    0.490600 *  0.765310 *  0.337530 *   1.33043    1.000000    
     23 O3    c    0.200440 *  0.174000 *  0.194980 *   1.33043    1.000000    
     24 O3    c    0.799560 *  0.174000 *  0.805020 *   1.33043    1.000000    
     25 O3    c    0.799560 *  0.826000 *  0.805020 *   1.33043    1.000000    
     26 O3    c    0.200440 *  0.826000 *  0.194980 *   1.33043    1.000000    
     27 O2    c    0.317860 *  0.500000 *  0.649090 *   0.87073    1.000000    
     28 O2    c    0.682140 *  0.500000 *  0.350910 *   0.87073    1.000000    
     29 O2    c    0.227920 *  0.173870 *  0.671620 *   0.87073    1.000000    
     30 O2    c    0.772080 *  0.173870 *  0.328380 *   0.87073    1.000000    
     31 O2    c    0.772080 *  0.826130 *  0.328380 *   0.87073    1.000000    
     32 O2    c    0.227920 *  0.826130 *  0.671620 *   0.87073    1.000000    
     33 O2    c    0.000000 *  0.000000 *  0.500000 *   0.87073    1.000000    
     34 O2    c    0.971960 *  0.000000 *  0.241930 *   0.87073    1.000000    
     35 O3    c    0.028040 *  0.000000 *  0.758070 *   1.33043    1.000000    
     36 O3    c    0.000000 *  0.000000 *  0.000000 *   1.33043    1.000000    
     37 O3    s    0.268740 *  0.279030 *  0.446100 *  -3.33043    1.000000    
     38 O2    s    0.731260 *  0.279030 *  0.553900 *  -2.87073    1.000000    
     39 O2    s    0.731260 *  0.720970 *  0.553900 *  -2.87073    1.000000    
     40 O3    s    0.268740 *  0.720970 *  0.446100 *  -3.33043    1.000000    
     41 O1    s    0.295480 *  0.500000 *  0.260860 *  -3.73396    1.000000    
     42 O2    s    0.704520 *  0.500000 *  0.739140 *  -2.87073    1.000000    
     43 O3    s    0.490600 *  0.234690 *  0.337530 *  -3.33043    1.000000    
     44 O2    s    0.509400 *  0.234690 *  0.662470 *  -2.87073    1.000000    
     45 O2    s    0.509400 *  0.765310 *  0.662470 *  -2.87073    1.000000    
     46 O3    s    0.490600 *  0.765310 *  0.337530 *  -3.33043    1.000000    
     47 O3    s    0.200440 *  0.174000 *  0.194980 *  -3.33043    1.000000    
     48 O3    s    0.799560 *  0.174000 *  0.805020 *  -3.33043    1.000000    
     49 O3    s    0.799560 *  0.826000 *  0.805020 *  -3.33043    1.000000    
     50 O3    s    0.200440 *  0.826000 *  0.194980 *  -3.33043    1.000000    
     51 O2    s    0.317860 *  0.500000 *  0.649090 *  -2.87073    1.000000    
     52 O2    s    0.682140 *  0.500000 *  0.350910 *  -2.87073    1.000000    
     53 O2    s    0.227920 *  0.173870 *  0.671620 *  -2.87073    1.000000    
     54 O2    s    0.772080 *  0.173870 *  0.328380 *  -2.87073    1.000000    
     55 O2    s    0.772080 *  0.826130 *  0.328380 *  -2.87073    1.000000    
     56 O2    s    0.227920 *  0.826130 *  0.671620 *  -2.87073    1.000000    
     57 O2    s    0.000000 *  0.000000 *  0.500000 *  -2.87073    1.000000    
     58 O2    s    0.971960 *  0.000000 *  0.241930 *  -2.87073    1.000000    
     59 O3    s    0.028040 *  0.000000 *  0.758070 *  -3.33043    1.000000    
     60 O3    s    0.000000 *  0.000000 *  0.000000 *  -3.33043    1.000000    
--------------------------------------------------------------------------------



********************************************************************************
*  General input information                                                   *
********************************************************************************

  Species output for all configurations : 

--------------------------------------------------------------------------------
  Species    Type    Atomic    Atomic    Charge       Radii (Angs)     Library
                     Number     Mass       (e)     Cova   Ionic  VDW   Symbol
--------------------------------------------------------------------------------
    Ge       Core       32      72.61   4.000000   1.170  0.000  1.750 Ge       
    Si       Core       14      28.09   4.000000   1.200  0.000  2.100 Si       
    O1       Core        8      16.00   1.733957   0.730  0.000  1.360 O1       
    O2       Core        8      16.00   0.870733   0.730  0.000  1.360 O2       
    O3       Core        8      16.00   1.330431   0.730  0.000  1.360 O3       
    O1       Shell       8       0.00  -3.733957   0.730  0.000  0.000 O1       
    O2       Shell       8       0.00  -2.870733   0.730  0.000  0.000 O2       
    O3       Shell       8       0.00  -3.330431   0.730  0.000  0.000 O3       
--------------------------------------------------------------------------------


  Lattice summation method               =    Ewald          (3-D)
                                         =    Parry          (2-D)
                                         =    Saunders et al (1-D)
  Accuracy factor for lattice sums       =   12.000


  Analytic derivatives to be used

  Time limit = Infinity

  Maximum range for interatomic potentials =    100000.000000 Angstroms

  General interatomic potentials :

--------------------------------------------------------------------------------
Atom  Types   Potential      Parameter       Value         Units   Cutoffs(Ang)
  1     2                                                            Min /  Max 
--------------------------------------------------------------------------------
Si   c O1   s Buckingham    Buckingham A     1315.2478    eV        0.000 16.000
                            Buckingham rho  0.31775900    Ang       
                            Buckingham C     10.141118    eV*Ang^6  
--------------------------------------------------------------------------------
Si   c O2   s Buckingham    Buckingham A     1315.2478    eV        0.000 16.000
                            Buckingham rho  0.31775900    Ang       
                            Buckingham C     10.141118    eV*Ang^6  
--------------------------------------------------------------------------------
Si   c O3   s Buckingham    Buckingham A     1315.2478    eV        0.000 16.000
                            Buckingham rho  0.31775900    Ang       
                            Buckingham C     10.141118    eV*Ang^6  
--------------------------------------------------------------------------------
Ge   c O1   s Buckingham    Buckingham A     1497.3996    eV        0.000 16.000
                            Buckingham rho  0.32564600    Ang       
                            Buckingham C     16.808599    eV*Ang^6  
--------------------------------------------------------------------------------
Ge   c O2   s Buckingham    Buckingham A     1497.3996    eV        0.000 16.000
                            Buckingham rho  0.32564600    Ang       
                            Buckingham C     16.808599    eV*Ang^6  
--------------------------------------------------------------------------------
Ge   c O3   s Buckingham    Buckingham A     1497.3996    eV        0.000 16.000
                            Buckingham rho  0.32564600    Ang       
                            Buckingham C     16.808599    eV*Ang^6  
--------------------------------------------------------------------------------
O1   s O1   s Buckingham    Buckingham A     22764.000    eV        0.000 16.000
                            Buckingham rho  0.14900000    Ang       
                            Buckingham C     10.937044    eV*Ang^6  
--------------------------------------------------------------------------------
O1   s O2   s Buckingham    Buckingham A     22764.000    eV        0.000 16.000
                            Buckingham rho  0.14900000    Ang       
                            Buckingham C     10.937044    eV*Ang^6  
--------------------------------------------------------------------------------
O1   s O3   s Buckingham    Buckingham A     22764.000    eV        0.000 16.000
                            Buckingham rho  0.14900000    Ang       
                            Buckingham C     10.937044    eV*Ang^6  
--------------------------------------------------------------------------------
O2   s O2   s Buckingham    Buckingham A     22764.000    eV        0.000 16.000
                            Buckingham rho  0.14900000    Ang       
                            Buckingham C     10.937044    eV*Ang^6  
--------------------------------------------------------------------------------
O2   s O3   s Buckingham    Buckingham A     22764.000    eV        0.000 16.000
                            Buckingham rho  0.14900000    Ang       
                            Buckingham C     10.937044    eV*Ang^6  
--------------------------------------------------------------------------------
O3   s O3   s Buckingham    Buckingham A     22764.000    eV        0.000 16.000
                            Buckingham rho  0.14900000    Ang       
                            Buckingham C     10.937044    eV*Ang^6  
--------------------------------------------------------------------------------
O1   c O1   s Spring (c-s)  Spring k 2       180.31577    eV*Ang^-2 0.000  0.800
                            Spring k 4       0.0000000    eV*Ang^-4 
--------------------------------------------------------------------------------
O2   c O2   s Spring (c-s)  Spring k 2       75.969800    eV*Ang^-2 0.000  0.800
                            Spring k 4       0.0000000    eV*Ang^-4 
--------------------------------------------------------------------------------
O3   c O3   s Spring (c-s)  Spring k 2       128.14270    eV*Ang^-2 0.000  0.800
                            Spring k 4       0.0000000    eV*Ang^-4 
--------------------------------------------------------------------------------

  General Three-body potentials :

--------------------------------------------------------------------------------
  Atoms       Potential      Parameter       Value         Units   Cutoffs(Ang)
  1 / 2 / 3                                                          Min /  Max 
--------------------------------------------------------------------------------
Si    core    Harmonic      Three-body cnst  1.2614000    eV*rad^-2 0.000  1.900
O1    shel                  Three-body angl  109.47000    degrees   0.000  1.900
O1    shel                  Three-body k4    0.0000000    eV*rad^-4 0.000  3.500
                            Three-body k3    0.0000000    eV*rad^-3 
--------------------------------------------------------------------------------
Si    core    Harmonic      Three-body cnst  1.2614000    eV*rad^-2 0.000  1.900
O1    shel                  Three-body angl  109.47000    degrees   0.000  1.900
õ(1   shel                  Three-body k4    0.0000000    eV*rad^-4 0.000  3.500
                            Three-body k3    0.0000000    eV*rad^-3 
--------------------------------------------------------------------------------
Si    core    Harmonic      Three-body cnst  1.2614000    eV*rad^-2 0.000  1.900
õ(1   shel                  Three-body angl  109.47000    degrees   0.000  1.900
õ(1   shel                  Three-body k4    0.0000000    eV*rad^-4 0.000  3.500
                            Three-body k3    0.0000000    eV*rad^-3 
--------------------------------------------------------------------------------
Si    core    Harmonic      Three-body cnst  1.2614000    eV*rad^-2 0.000  1.900
O1    shel                  Three-body angl  109.47000    degrees   0.000  1.900
O2    shel                  Three-body k4    0.0000000    eV*rad^-4 0.000  3.500
                            Three-body k3    0.0000000    eV*rad^-3 
--------------------------------------------------------------------------------
Si    core    Harmonic      Three-body cnst  1.2614000    eV*rad^-2 0.000  1.900
O1    shel                  Three-body angl  109.47000    degrees   0.000  1.900
õ(2   shel                  Three-body k4    0.0000000    eV*rad^-4 0.000  3.500
                            Three-body k3    0.0000000    eV*rad^-3 
--------------------------------------------------------------------------------
Si    core    Harmonic      Three-body cnst  1.2614000    eV*rad^-2 0.000  1.900
O2    shel                  Three-body angl  109.47000    degrees   0.000  1.900
õ(1   shel                  Three-body k4    0.0000000    eV*rad^-4 0.000  3.500
                            Three-body k3    0.0000000    eV*rad^-3 
--------------------------------------------------------------------------------
Si    core    Harmonic      Three-body cnst  1.2614000    eV*rad^-2 0.000  1.900
õ(1   shel                  Three-body angl  109.47000    degrees   0.000  1.900
õ(2   shel                  Three-body k4    0.0000000    eV*rad^-4 0.000  3.500
                            Three-body k3    0.0000000    eV*rad^-3 
--------------------------------------------------------------------------------
Si    core    Harmonic      Three-body cnst  1.2614000    eV*rad^-2 0.000  1.900
O2    shel                  Three-body angl  109.47000    degrees   0.000  1.900
O2    shel                  Three-body k4    0.0000000    eV*rad^-4 0.000  3.500
                            Three-body k3    0.0000000    eV*rad^-3 
--------------------------------------------------------------------------------
Si    core    Harmonic      Three-body cnst  1.2614000    eV*rad^-2 0.000  1.900
O2    shel                  Three-body angl  109.47000    degrees   0.000  1.900
õ(2   shel                  Three-body k4    0.0000000    eV*rad^-4 0.000  3.500
                            Three-body k3    0.0000000    eV*rad^-3 
--------------------------------------------------------------------------------
Si    core    Harmonic      Three-body cnst  1.2614000    eV*rad^-2 0.000  1.900
õ(2   shel                  Three-body angl  109.47000    degrees   0.000  1.900
õ(2   shel                  Three-body k4    0.0000000    eV*rad^-4 0.000  3.500
                            Three-body k3    0.0000000    eV*rad^-3 
--------------------------------------------------------------------------------

********************************************************************************
*  Output for configuration   1 : c00015.vasp                                  *
********************************************************************************


  Components of energy : 

--------------------------------------------------------------------------------
  Interatomic potentials     =         392.29363225 eV    
  Three-body potentials      =           0.00013544 eV    
  Monopole - monopole (real) =       -1236.99964305 eV    
  Monopole - monopole (recip)=        -659.26603192 eV    
  Monopole - monopole (total)=       -1896.26567496 eV    
--------------------------------------------------------------------------------
  Total lattice energy       =       -1503.97190727 eV    
--------------------------------------------------------------------------------
  Total lattice energy       =         -145110.2987 kJ/(mole unit cells)
--------------------------------------------------------------------------------


  Number of variables =      183

  Maximum number of calculations  =          1000
  Maximum Hessian update interval =            10
  Maximum step size               =   0.100000000
  Maximum parameter tolerance     =   0.000010000
  Maximum function  tolerance     =   0.000010000
  Maximum gradient  tolerance     =   0.001000000
  Maximum gradient  component     =   0.010000000

  Symmetry not applied to optimisation

  Cell parameters to be optimised using strains

  Newton-Raphson optimiser to be used

  BFGS hessian update to be used

  Lower half triangular hessian to be used

  Minimiser to switch to RFO
  When gradient norm is less than     0.050000

  Dumpfile to be written after every cycle

  Start of bulk optimisation :

  Cycle:      0 Energy:     -1503.971907  Gnorm:      5.301551  CPU:    0.029
  ** Hessian calculated **
  Cycle:      1 Energy:     -1519.327890  Gnorm:      1.379694  CPU:    0.067
  ** Hessian calculated **
  Cycle:      2 Energy:     -1520.947908  Gnorm:      0.783104  CPU:    0.129
  Cycle:      3 Energy:     -1521.639790  Gnorm:      0.480197  CPU:    0.166
  Cycle:      4 Energy:     -1522.194293  Gnorm:      0.376625  CPU:    0.211
  Cycle:      5 Energy:     -1522.696495  Gnorm:      0.316315  CPU:    0.256
  Cycle:      6 Energy:     -1522.977038  Gnorm:      0.246883  CPU:    0.293
  Cycle:      7 Energy:     -1523.153206  Gnorm:      0.208761  CPU:    0.331
  Cycle:      8 Energy:     -1523.242754  Gnorm:      0.124157  CPU:    0.370
  Cycle:      9 Energy:     -1523.279010  Gnorm:      0.087704  CPU:    0.409
  Cycle:     10 Energy:     -1523.306643  Gnorm:      0.076653  CPU:    0.454
  Cycle:     11 Energy:     -1523.327659  Gnorm:      0.072893  CPU:    0.499
  ** Hessian calculated **
  Cycle:     12 Energy:     -1523.350326  Gnorm:      0.069282  CPU:    0.568
  Cycle:     13 Energy:     -1523.385980  Gnorm:      0.063238  CPU:    0.621
  Cycle:     14 Energy:     -1523.426463  Gnorm:      0.055696  CPU:    0.666
  Cycle:     15 Energy:     -1523.473633  Gnorm:      0.045637  CPU:    0.711
  ** Hessian has wrong structure
  ** Imaginary eigenvectors =   2
  Cycle:     16 Energy:     -1523.474025  Gnorm:      0.055907  CPU:    0.778
  ** Hessian has wrong structure
  ** Imaginary eigenvectors =   2
  Cycle:     17 Energy:     -1523.513534  Gnorm:      0.059265  CPU:    0.932
  ** Hessian has wrong structure
  ** Imaginary eigenvectors =   2
  Cycle:     18 Energy:     -1523.567243  Gnorm:      0.079113  CPU:    1.067
  ** Hessian has required structure
  Cycle:     19 Energy:     -1523.685192  Gnorm:      0.046886  CPU:    1.144
  ** Hessian has required structure
  Cycle:     20 Energy:     -1523.725051  Gnorm:      0.031551  CPU:    1.198
  ** Hessian has required structure
  Cycle:     21 Energy:     -1523.742847  Gnorm:      0.019328  CPU:    1.250
  ** Hessian has required structure
  Cycle:     22 Energy:     -1523.752129  Gnorm:      0.017350  CPU:    1.302
  ** Hessian has required structure
  Cycle:     23 Energy:     -1523.757843  Gnorm:      0.013461  CPU:    1.346
  ** Hessian has required structure
  Cycle:     24 Energy:     -1523.763669  Gnorm:      0.015404  CPU:    1.397
  ** Hessian has required structure
  Cycle:     25 Energy:     -1523.768875  Gnorm:      0.011340  CPU:    1.451
  ** Hessian has required structure
  Cycle:     26 Energy:     -1523.772646  Gnorm:      0.019191  CPU:    1.503
  ** Hessian has required structure
  Cycle:     27 Energy:     -1523.780414  Gnorm:      0.027146  CPU:    1.555
  ** Hessian has required structure
  Cycle:     28 Energy:     -1523.788624  Gnorm:      0.026649  CPU:    1.607
  ** Hessian has required structure
  Cycle:     29 Energy:     -1523.808269  Gnorm:      0.022341  CPU:    1.683
  ** Hessian has required structure
  Cycle:     30 Energy:     -1523.817844  Gnorm:      0.014132  CPU:    1.737
  ** Hessian has required structure
  Cycle:     31 Energy:     -1523.821083  Gnorm:      0.007757  CPU:    1.791
  ** Hessian has required structure
  Cycle:     32 Energy:     -1523.822277  Gnorm:      0.005679  CPU:    1.845
  ** Hessian has required structure
  Cycle:     33 Energy:     -1523.822664  Gnorm:      0.001117  CPU:    1.890
  ** Hessian has required structure
  Cycle:     34 Energy:     -1523.822803  Gnorm:      0.000657  CPU:    1.935
  ** Hessian has required structure
  Cycle:     35 Energy:     -1523.822825  Gnorm:      0.000469  CPU:    1.981
  ** Hessian has required structure
  Cycle:     36 Energy:     -1523.822835  Gnorm:      0.000244  CPU:    2.041
  ** Hessian has required structure
  Cycle:     37 Energy:     -1523.822836  Gnorm:      0.000174  CPU:    2.079
  ** Hessian has required structure
  Cycle:     38 Energy:     -1523.822837  Gnorm:      0.000137  CPU:    2.117
  ** Hessian has required structure


  **** Optimisation achieved ****


  Final energy =   -1523.82283713 eV      
  Final Gnorm  =       0.00009566

  Components of energy : 

--------------------------------------------------------------------------------
  Interatomic potentials     =         405.99517882 eV    
  Three-body potentials      =           0.06930419 eV    
  Monopole - monopole (real) =        -880.67875804 eV    
  Monopole - monopole (recip)=       -1049.20856209 eV    
  Monopole - monopole (total)=       -1929.88732013 eV    
--------------------------------------------------------------------------------
  Total lattice energy       =       -1523.82283713 eV    
--------------------------------------------------------------------------------
  Total lattice energy       =         -147025.6100 kJ/(mole unit cells)
--------------------------------------------------------------------------------

  Final fractional coordinates of atoms :

--------------------------------------------------------------------------------
   No.  Atomic        x           y          z          Radius
        Label       (Frac)      (Frac)     (Frac)       (Angs) 
--------------------------------------------------------------------------------
     1  Ge    c     0.313820    0.296860    0.309830    0.000000
     2  Ge    c     0.347749    0.710972    0.321672    0.000000
     3  Ge    c     0.916272    0.962174    0.871365    0.000000
     4  Si    c     0.681476    0.257610    0.707751    0.000000
     5  Si    c     0.712862    0.653492    0.718143    0.000000
     6  Si    c     0.326608    0.301598    0.623922    0.000000
     7  Si    c     0.679191    0.253716    0.400089    0.000000
     8  Si    c     0.707839    0.653350    0.409379    0.000000
     9  Si    c     0.359493    0.703530    0.636550    0.000000
    10  Si    c     0.914159    0.956738    0.396591    0.000000
    11  Si    c     0.142418    0.000213    0.690678    0.000000
    12  Si    c     0.104040    0.994876    0.183650    0.000000
    13  O3    c     0.299303    0.242203    0.469241    0.000000
    14  O2    c     0.687741    0.206166    0.555781    0.000000
    15  O2    c     0.715056    0.699493    0.565406    0.000000
    16  O3    c     0.343342    0.766722    0.484907    0.000000
    17  O1    c     0.270818    0.510959    0.276185    0.000000
    18  O2    c     0.752184    0.448669    0.747405    0.000000
    19  O3    c     0.503253    0.246724    0.308505    0.000000
    20  O2    c     0.503707    0.262067    0.710244    0.000000
    21  O2    c     0.539138    0.699884    0.726882    0.000000
    22  O3    c     0.537972    0.700998    0.315774    0.000000
    23  O3    c     0.175514    0.184611    0.189861    0.000000
    24  O3    c     0.773863    0.119658    0.815723    0.000000
    25  O3    c     0.840572    0.759082    0.825823    0.000000
    26  O3    c     0.249447    0.860742    0.203762    0.000000
    27  O2    c     0.289208    0.509460    0.631080    0.000000
    28  O2    c     0.744509    0.447461    0.392717    0.000000
    29  O2    c     0.216860    0.188997    0.688398    0.000000
    30  O2    c     0.786583    0.113494    0.348152    0.000000
    31  O2    c     0.833658    0.768683    0.367421    0.000000
    32  O2    c     0.266554    0.840487    0.706032    0.000000
    33  O2    c     0.997156    0.975427    0.557460    0.000000
    34  O2    c     0.038133    0.961826    0.312820    0.000000
    35  O3    c     0.079047    0.998343    0.820883    0.000000
    36  O3    c     0.969944    0.966108    0.046966    0.000000
    37  O3    s     0.303258    0.252612    0.472202    0.000000
    38  O2    s     0.686214    0.216556    0.555565    0.000000
    39  O2    s     0.714036    0.689701    0.565163    0.000000
    40  O3    s     0.345328    0.755864    0.487043    0.000000
    41  O1    s     0.280438    0.509273    0.282525    0.000000
    42  O2    s     0.740539    0.450231    0.740094    0.000000
    43  O3    s     0.506267    0.251244    0.317764    0.000000
    44  O2    s     0.503843    0.265918    0.700692    0.000000
    45  O2    s     0.538280    0.695458    0.716560    0.000000
    46  O3    s     0.540158    0.696953    0.325797    0.000000
    47  O3    s     0.179813    0.175066    0.199010    0.000000
    48  O3    s     0.776009    0.121218    0.808671    0.000000
    49  O3    s     0.833209    0.764686    0.818063    0.000000
    50  O3    s     0.243766    0.860972    0.211789    0.000000
    51  O2    s     0.300203    0.507816    0.630913    0.000000
    52  O2    s     0.734012    0.448971    0.395230    0.000000
    53  O2    s     0.220830    0.181233    0.681653    0.000000
    54  O2    s     0.788314    0.112195    0.358811    0.000000
    55  O2    s     0.828554    0.775955    0.375005    0.000000
    56  O2    s     0.263462    0.842544    0.696729    0.000000
    57  O2    s     0.003677    0.976060    0.554305    0.000000
    58  O2    s     0.030877    0.964618    0.308966    0.000000
    59  O3    s     0.071974    0.995509    0.811692    0.000000
    60  O3    s     0.979742    0.968871    0.046801    0.000000
--------------------------------------------------------------------------------

  Final Cartesian lattice vectors (Angstroms) :

        8.999911    0.129617    0.160199
        0.108848    7.660674   -0.015844
       -3.087497   -0.066465    9.729932


  Final cell parameters and derivatives :

--------------------------------------------------------------------------------
       a            9.002270 Angstrom     dE/de1(xx)     0.001275 eV/strain
       b            7.661464 Angstrom     dE/de2(yy)     0.002571 eV/strain
       c           10.208263 Angstrom     dE/de3(zz)     0.000830 eV/strain
       alpha       90.732160 Degrees      dE/de4(yz)    -0.000650 eV/strain
       beta       106.588958 Degrees      dE/de5(xz)     0.000418 eV/strain
       gamma       88.363210 Degrees      dE/de6(xy)    -0.000686 eV/strain
--------------------------------------------------------------------------------

  Primitive cell volume =           674.481427 Angs**3

  Density of cell =      2.104114 g/cm**3

  Non-primitive cell volume =           674.481427 Angs**3


  Final internal derivatives :

--------------------------------------------------------------------------------
   No.  Atomic          a             b             c           Radius
        Label          (eV)          (eV)          (eV)        (eV/Angs)
--------------------------------------------------------------------------------
      1 Ge    c       0.000000      0.000000      0.000000      0.000000
      2 Ge    c       0.000537      0.000140      0.001851      0.000000
      3 Ge    c       0.000349     -0.000215      0.000395      0.000000
      4 Si    c      -0.000795      0.000194      0.000468      0.000000
      5 Si    c      -0.000142      0.001045     -0.001066      0.000000
      6 Si    c      -0.000742      0.000250      0.000677      0.000000
      7 Si    c       0.000836      0.000091     -0.000614      0.000000
      8 Si    c       0.001641      0.000035      0.002854      0.000000
      9 Si    c       0.001417     -0.000397     -0.001984      0.000000
     10 Si    c       0.000363     -0.000010     -0.000211      0.000000
     11 Si    c      -0.000204      0.000342      0.000119      0.000000
     12 Si    c       0.000434     -0.000003     -0.000269      0.000000
     13 O3    c      -0.000263      0.000404     -0.000952      0.000000
     14 O2    c      -0.000305     -0.000564      0.000912      0.000000
     15 O2    c      -0.000650     -0.000111      0.000213      0.000000
     16 O3    c      -0.000365     -0.001530      0.002533      0.000000
     17 O1    c       0.001458      0.008766     -0.006127      0.000000
     18 O2    c       0.000083     -0.001583      0.000437      0.000000
     19 O3    c       0.002313     -0.001352     -0.000958      0.000000
     20 O2    c       0.002075      0.000002      0.000284      0.000000
     21 O2    c      -0.000900     -0.000191     -0.000676      0.000000
     22 O3    c      -0.008015      0.002483     -0.001769      0.000000
     23 O3    c      -0.000412     -0.000330     -0.000342      0.000000
     24 O3    c      -0.000189      0.000200      0.000208      0.000000
     25 O3    c      -0.000343     -0.000518     -0.000017      0.000000
     26 O3    c      -0.000732      0.000355     -0.000007      0.000000
     27 O2    c       0.000903      0.000625      0.000003      0.000000
     28 O2    c       0.000750     -0.002491     -0.001303      0.000000
     29 O2    c       0.000683      0.000435     -0.000380      0.000000
     30 O2    c       0.000095      0.000014     -0.000027      0.000000
     31 O2    c       0.001204      0.000512     -0.000895      0.000000
     32 O2    c       0.000275     -0.000269      0.000108      0.000000
     33 O2    c      -0.000052     -0.000089     -0.000622      0.000000
     34 O2    c      -0.000845      0.000031      0.000341      0.000000
     35 O3    c       0.000625      0.000160     -0.000487      0.000000
     36 O3    c       0.000282      0.000070     -0.000282      0.000000
     37 O3    s      -0.001306     -0.000453      0.002014      0.000000
     38 O2    s      -0.000254      0.000261      0.000140      0.000000
     39 O2    s       0.000252      0.000256      0.001995      0.000000
     40 O3    s      -0.000379      0.000031     -0.000317      0.000000
     41 O1    s      -0.000037     -0.002797      0.001410      0.000000
     42 O2    s       0.000164     -0.000059     -0.000482      0.000000
     43 O3    s       0.000147     -0.000222     -0.000619      0.000000
     44 O2    s      -0.000147     -0.000070      0.000204      0.000000
     45 O2    s      -0.000082      0.000264     -0.000805      0.000000
     46 O3    s       0.002102      0.000119      0.000212      0.000000
     47 O3    s      -0.000491     -0.000797     -0.000120      0.000000
     48 O3    s      -0.000630      0.000058      0.000371      0.000000
     49 O3    s       0.000153      0.000401     -0.000246      0.000000
     50 O3    s       0.000690     -0.000233      0.000549      0.000000
     51 O2    s       0.000051      0.000797     -0.000566      0.000000
     52 O2    s       0.000508     -0.000813      0.000059      0.000000
     53 O2    s      -0.000377      0.000070      0.000040      0.000000
     54 O2    s      -0.000530     -0.000169      0.000187      0.000000
     55 O2    s       0.000815      0.001100      0.000334      0.000000
     56 O2    s       0.000395     -0.000520     -0.000248      0.000000
     57 O2    s      -0.000253      0.000326     -0.000110      0.000000
     58 O2    s       0.000474     -0.000344     -0.000145      0.000000
     59 O3    s      -0.000268     -0.000244      0.000182      0.000000
     60 O3    s       0.000101      0.000138      0.000341      0.000000
--------------------------------------------------------------------------------
  Maximum abs         0.008015      0.008766      0.006127      0.000000
--------------------------------------------------------------------------------


  Born effective charge tensors : 

-------------------------------------------------------------------------------
  Atom             x           y             z
-------------------------------------------------------------------------------
    1 Ge    x       3.8808      0.2127      0.2263
            y       0.2364      4.1999      0.2719
            z       0.3383      0.0388      3.5593
-------------------------------------------------------------------------------
    2 Ge    x       3.8566     -0.3676      0.2341
            y      -0.0468      4.1794     -0.2102
            z       0.2880     -0.1223      3.5517
-------------------------------------------------------------------------------
    3 Ge    x       3.9995      0.2221      0.2442
            y      -0.1298      3.9199      0.0006
            z       0.0095      0.0237      4.7149
-------------------------------------------------------------------------------
    4 Si    x       3.1696     -0.4046      0.2198
            y      -0.1361      3.6242     -0.4055
            z       0.2555     -0.3653      3.0885
-------------------------------------------------------------------------------
    5 Si    x       3.2808      0.3143      0.2557
            y       0.3373      3.5401      0.4134
            z       0.4126      0.2580      3.0910
-------------------------------------------------------------------------------
    6 Si    x       3.3110      0.2523      0.0056
            y       0.3112      3.5359     -0.0386
            z      -0.0433      0.1385      2.9553
-------------------------------------------------------------------------------
    7 Si    x       3.5647     -0.3010      0.2132
            y      -0.1719      3.4841      0.1233
            z       0.1727     -0.0534      2.8233
-------------------------------------------------------------------------------
    8 Si    x       3.5172      0.1767      0.2268
            y       0.2617      3.5133     -0.1402
            z       0.1304     -0.0124      2.8113
-------------------------------------------------------------------------------
    9 Si    x       3.3277     -0.3185     -0.0137
            y      -0.1674      3.5448      0.0435
            z      -0.0562     -0.1658      2.9385
-------------------------------------------------------------------------------
   10 Si    x       3.5748      0.1144      0.2244
            y      -0.0657      3.2704     -0.0330
            z      -0.3787      0.0093      2.8395
-------------------------------------------------------------------------------
   11 Si    x       3.8567      0.1239     -0.3632
            y      -0.0569      3.3108     -0.0708
            z      -0.3569      0.0103      3.2676
-------------------------------------------------------------------------------
   12 Si    x       3.6593      0.2141     -0.0268
            y      -0.1112      3.6113     -0.0331
            z       0.8297      0.1756      4.3161
-------------------------------------------------------------------------------
   13 O3    x      -1.4222     -0.1206      0.3149
            y      -0.0948     -1.4365     -0.1690
            z       0.3237     -0.1236     -2.4991
-------------------------------------------------------------------------------
   14 O2    x      -1.3117      0.1247      0.3297
            y       0.0714     -1.3054     -0.0133
            z       0.2978      0.0138     -1.9217
-------------------------------------------------------------------------------
   15 O2    x      -1.3099     -0.1067      0.3271
            y      -0.1031     -1.2972      0.0015
            z       0.2933     -0.0078     -1.9258
-------------------------------------------------------------------------------
   16 O3    x      -1.4313      0.1131      0.3430
            y       0.0393     -1.4523      0.1845
            z       0.3367      0.1481     -2.4688
-------------------------------------------------------------------------------
   17 O1    x      -1.3907     -0.1017     -0.1225
            y      -0.1763     -3.3170     -0.0647
            z      -0.1567     -0.0335     -1.3388
-------------------------------------------------------------------------------
   18 O2    x      -1.1749     -0.0655     -0.0729
            y      -0.1138     -2.4375     -0.0363
            z      -0.1113     -0.0186     -1.1158
-------------------------------------------------------------------------------
   19 O3    x      -2.8375      0.1225     -0.5847
            y       0.0390     -1.3510     -0.0751
            z      -0.6016      0.0015     -1.4590
-------------------------------------------------------------------------------
   20 O2    x      -2.2765      0.0939     -0.2919
            y       0.0219     -1.2521      0.0741
            z      -0.3100      0.0614     -1.1450
-------------------------------------------------------------------------------
   21 O2    x      -2.2814      0.1482     -0.2988
            y       0.1178     -1.2584     -0.0421
            z      -0.3059      0.0018     -1.1699
-------------------------------------------------------------------------------
   22 O3    x      -2.7780      0.2293     -0.5449
            y       0.1674     -1.3863      0.1570
            z      -0.5647      0.1302     -1.4497
-------------------------------------------------------------------------------
   23 O3    x      -1.7092     -0.7625     -0.3262
            y      -0.7517     -2.4322     -0.5075
            z      -0.4752     -0.5077     -1.7398
-------------------------------------------------------------------------------
   24 O3    x      -1.7169      0.7403     -0.5596
            y       0.7389     -2.3593      0.8543
            z      -0.5409      0.8328     -1.9449
-------------------------------------------------------------------------------
   25 O3    x      -1.7033     -0.7689     -0.5716
            y      -0.7197     -2.4040     -0.7870
            z      -0.5852     -0.7785     -1.9149
-------------------------------------------------------------------------------
   26 O3    x      -1.9808      0.7680     -0.3682
            y       0.8043     -2.1613      0.5768
            z      -0.4766      0.5301     -1.7614
-------------------------------------------------------------------------------
   27 O2    x      -1.2688     -0.0656     -0.0319
            y      -0.1340     -2.5713     -0.0507
            z       0.0034     -0.0280     -0.9846
-------------------------------------------------------------------------------
   28 O2    x      -1.2358     -0.0600      0.0155
            y      -0.1253     -2.5468     -0.0427
            z       0.0327     -0.0201     -1.0114
-------------------------------------------------------------------------------
   29 O2    x      -1.8196     -0.7714      0.1940
            y      -0.6815     -2.0340      0.1819
            z       0.1822      0.1299     -1.0981
-------------------------------------------------------------------------------
   30 O2    x      -1.8688      0.7707      0.0001
            y       0.7558     -1.9520     -0.0184
            z       0.0987     -0.0238     -1.1003
-------------------------------------------------------------------------------
   31 O2    x      -1.8218     -0.7796      0.0375
            y      -0.7028     -2.0438      0.0428
            z       0.1372      0.0334     -1.0605
-------------------------------------------------------------------------------
   32 O2    x      -1.8716      0.7836      0.1446
            y       0.7378     -1.9639     -0.1293
            z       0.1514     -0.1146     -1.1113
-------------------------------------------------------------------------------
   33 O2    x      -1.5916     -0.0932     -0.5671
            y      -0.0196     -1.1644     -0.0889
            z      -0.3031     -0.1122     -1.9903
-------------------------------------------------------------------------------
   34 O2    x      -2.1078     -0.1298      0.6953
            y      -0.0356     -1.1690      0.0888
            z       0.6596      0.0918     -1.7763
-------------------------------------------------------------------------------
   35 O3    x      -2.6573     -0.1967      0.9359
            y      -0.0738     -1.2315      0.0647
            z       0.9674      0.0855     -2.1738
-------------------------------------------------------------------------------
   36 O3    x      -1.4313     -0.1109     -0.4433
            y      -0.0227     -1.2065     -0.1229
            z      -0.6545     -0.2267     -3.7955
-------------------------------------------------------------------------------




  Elastic Constant Matrix: (Units=GPa)

-------------------------------------------------------------------------------
  Indices      1         2         3         4         5         6    
-------------------------------------------------------------------------------
       1     44.1270   20.8060    7.3519    2.4052   -0.3016   14.8728
       2     20.8060   66.6358   10.5170    3.6091    2.6935   21.0520
       3      7.3519   10.5170   33.3620    2.6172    8.2790    6.5037
       4      2.4052    3.6091    2.6172   11.9063    1.5911    5.7529
       5     -0.3016    2.6935    8.2790    1.5911   12.0450    3.7786
       6     14.8728   21.0520    6.5037    5.7529    3.7786   25.1778
-------------------------------------------------------------------------------


  Elastic Compliance Matrix: (Units=1/GPa)

-------------------------------------------------------------------------------
  Indices      1         2         3         4         5         6    
-------------------------------------------------------------------------------
       1    0.030618 -0.004569 -0.004947  0.002223  0.009580 -0.014934
       2   -0.004569  0.021609 -0.003487  0.002261  0.001944 -0.015277
       3   -0.004947 -0.003487  0.038699 -0.003230 -0.025652  0.000429
       4    0.002223  0.002261 -0.003230  0.095457 -0.003414 -0.023668
       5    0.009580  0.001944 -0.025652 -0.003414  0.105855 -0.015764
       6   -0.014934 -0.015277  0.000429 -0.023668 -0.015764  0.068976
-------------------------------------------------------------------------------

  Mechanical properties :

-------------------------------------------------------------------------------
  Convention :                    Reuss         Voigt         Hill
-------------------------------------------------------------------------------
  Bulk  Modulus (GPa)     =      15.40351      24.60829      20.00590
  Shear Modulus (GPa)     =      12.22911      16.85580      14.54246
-------------------------------------------------------------------------------
  Velocity S-wave (km/s)  =       2.41081       2.83035       2.62896
  Velocity P-wave (km/s)  =       3.88201       4.73038       4.32704
-------------------------------------------------------------------------------
  Compressibility (1/GPa) =    0.06492025
-------------------------------------------------------------------------------
  Stress axis :                     x             y             z
-------------------------------------------------------------------------------
  Youngs Moduli (GPa)     =      32.66044      46.27659      25.84042
-------------------------------------------------------------------------------
  Poissons Ratio (x)      =                     0.21143       0.12784
  Poissons Ratio (y)      =       0.14922                     0.09010
  Poissons Ratio (z)      =       0.16159       0.16136
-------------------------------------------------------------------------------


  Piezoelectric Strain Matrix: (Units=C/m**2)

-------------------------------------------------------------------------------
  Indices      1         2         3         4         5         6    
-------------------------------------------------------------------------------
       x     1.00493  -0.24212  -1.21455  -0.05274  -0.52134   0.12402
       y    -1.23017  -1.40575  -0.65315  -0.77040  -0.31574  -0.19713
       z     0.17072   0.01032   0.98028  -0.25391  -0.64869  -0.15428
-------------------------------------------------------------------------------


  Piezoelectric Stress Matrix: (Units=10**-11 C/N)

-------------------------------------------------------------------------------
  Indices      1         2         3         4         5         6    
-------------------------------------------------------------------------------
       x     3.09203  -0.86157  -3.75326  -0.05807  -1.66497   0.61911
       y    -2.98049  -2.18236  -0.37854  -7.16006  -2.54476   4.91813
       z    -0.41446  -0.34531   5.44489  -2.11350  -8.88574   0.33075
-------------------------------------------------------------------------------


  Static dielectric constant tensor : 

-------------------------------------------------------------------------------
              x         y         z
-------------------------------------------------------------------------------
       x     4.20827   0.09603   0.33634
       y     0.09603   4.55632   0.09771
       z     0.33634   0.09771   3.75644
--------------------------------------------------------------------------------

  High frequency dielectric constant tensor : 

-------------------------------------------------------------------------------
              x         y         z
-------------------------------------------------------------------------------
       x     1.65398   0.00324   0.01208
       y     0.00324   1.66227  -0.00050
       z     0.01208  -0.00050   1.59761
-------------------------------------------------------------------------------

  Static refractive indices : 

-------------------------------------------------------------------------------
    1 =    1.89088      2 =    2.07770      3 =    2.15145
-------------------------------------------------------------------------------

  High frequency refractive indices : 

-------------------------------------------------------------------------------
    1 =    1.26297      2 =    1.28652      3 =    1.28981
-------------------------------------------------------------------------------


  Time to end of optimisation =       2.2273 seconds


  Peak dynamic memory used =       2.76 MB 


  Timing analysis for GULP :

--------------------------------------------------------------------------------
  Task / Subroutine                                          Time (Seconds)
--------------------------------------------------------------------------------
  Calculation of reciprocal space energy and derivatives          0.1462
  Calculation of real space energy and derivatives                1.8153
  Calculation of three-body energy and derivatives                0.0670
  Calculation and manipulation of Hessian matrix                  0.3129
  Calculation of matrix inversion                                 0.0023
--------------------------------------------------------------------------------
  Total CPU time                                                  2.2273
--------------------------------------------------------------------------------


  Dump file written as c00015.vasp.grs
  CIF file written as c00015.vasp.cif


  Job Finished at 21:26.53  6th October    2025                               

