********************************************************************************
*                       GENERAL UTILITY LATTICE PROGRAM                        *
*                                 Julian Gale                                  *
*                       Curtin Institute for Computation                       *
*                    School of Molecular and Life Sciences                     *
*                    Curtin University, Western Australia                      *
********************************************************************************
* Version = 6.1.2 * Last modified =   3rd November 2022                        *
********************************************************************************
*  optimise     - perform optimisation run                                     *
*  conp         - constant pressure calculation                                *
*  property     - calculate properties for final geometry                      *
********************************************************************************

  Job Started  at 21:28.07  6th October    2025                               

  Number of CPUs =     1


  Total number of configurations input =      1

********************************************************************************
*  Input for Configuration =   1 : c00037.vasp                                 *
********************************************************************************

  Formula = Ge3Si9O24                                                   

  Number of irreducible atoms/shells =      60


  Total number atoms/shells =      60

  Dimensionality = 3               :  Bulk   



  Cartesian lattice vectors (Angstroms) :

        9.086940    0.000000    0.000000
        0.000000    7.554810    0.000000
       -3.295144    0.000000    9.944380

  Cell parameters (Angstroms/Degrees):

  a =       9.0869    alpha =  90.0000
  b =       7.5548    beta  = 108.3330
  c =      10.4761    gamma =  90.0000

  Initial cell volume =         682.682735 Angs**3

  Temperature of configuration =   0.00     K 

  Pressure of configuration =         0.000 GPa 

  Fractional coordinates of asymmetric unit :

--------------------------------------------------------------------------------
   No.  Atomic       x           y          z         Charge      Occupancy
        Label      (Frac)      (Frac)     (Frac)        (e)         (Frac)  
--------------------------------------------------------------------------------
      1 Ge    c    0.313820    0.296860    0.309830     4.00000    1.000000    
      2 Ge    c    0.331050 *  0.703080 *  0.607380 *   4.00000    1.000000    
      3 Ge    c    0.906930 *  0.000000 *  0.841770 *   4.00000    1.000000    
      4 Si    c    0.686180 *  0.296860 *  0.690170 *   4.00000    1.000000    
      5 Si    c    0.686180 *  0.703140 *  0.690170 *   4.00000    1.000000    
      6 Si    c    0.313820 *  0.703140 *  0.309830 *   4.00000    1.000000    
      7 Si    c    0.331050 *  0.296920 *  0.607380 *   4.00000    1.000000    
      8 Si    c    0.668950 *  0.296920 *  0.392620 *   4.00000    1.000000    
      9 Si    c    0.668950 *  0.703080 *  0.392620 *   4.00000    1.000000    
     10 Si    c    0.879680 *  0.000000 *  0.350160 *   4.00000    1.000000    
     11 Si    c    0.120320 *  0.000000 *  0.649840 *   4.00000    1.000000    
     12 Si    c    0.093070 *  0.000000 *  0.158230 *   4.00000    1.000000    
     13 O3    c    0.268740 *  0.279030 *  0.446100 *   1.33043    1.000000    
     14 O2    c    0.731260 *  0.279030 *  0.553900 *   0.87073    1.000000    
     15 O2    c    0.731260 *  0.720970 *  0.553900 *   0.87073    1.000000    
     16 O3    c    0.268740 *  0.720970 *  0.446100 *   1.33043    1.000000    
     17 O3    c    0.295480 *  0.500000 *  0.260860 *   1.33043    1.000000    
     18 O2    c    0.704520 *  0.500000 *  0.739140 *   0.87073    1.000000    
     19 O3    c    0.490600 *  0.234690 *  0.337530 *   1.33043    1.000000    
     20 O2    c    0.509400 *  0.234690 *  0.662470 *   0.87073    1.000000    
     21 O3    c    0.509400 *  0.765310 *  0.662470 *   1.33043    1.000000    
     22 O2    c    0.490600 *  0.765310 *  0.337530 *   0.87073    1.000000    
     23 O3    c    0.200440 *  0.174000 *  0.194980 *   1.33043    1.000000    
     24 O3    c    0.799560 *  0.174000 *  0.805020 *   1.33043    1.000000    
     25 O3    c    0.799560 *  0.826000 *  0.805020 *   1.33043    1.000000    
     26 O2    c    0.200440 *  0.826000 *  0.194980 *   0.87073    1.000000    
     27 O3    c    0.317860 *  0.500000 *  0.649090 *   1.33043    1.000000    
     28 O2    c    0.682140 *  0.500000 *  0.350910 *   0.87073    1.000000    
     29 O2    c    0.227920 *  0.173870 *  0.671620 *   0.87073    1.000000    
     30 O2    c    0.772080 *  0.173870 *  0.328380 *   0.87073    1.000000    
     31 O2    c    0.772080 *  0.826130 *  0.328380 *   0.87073    1.000000    
     32 O3    c    0.227920 *  0.826130 *  0.671620 *   1.33043    1.000000    
     33 O2    c    0.000000 *  0.000000 *  0.500000 *   0.87073    1.000000    
     34 O2    c    0.971960 *  0.000000 *  0.241930 *   0.87073    1.000000    
     35 O3    c    0.028040 *  0.000000 *  0.758070 *   1.33043    1.000000    
     36 O3    c    0.000000 *  0.000000 *  0.000000 *   1.33043    1.000000    
     37 O3    s    0.268740 *  0.279030 *  0.446100 *  -3.33043    1.000000    
     38 O2    s    0.731260 *  0.279030 *  0.553900 *  -2.87073    1.000000    
     39 O2    s    0.731260 *  0.720970 *  0.553900 *  -2.87073    1.000000    
     40 O3    s    0.268740 *  0.720970 *  0.446100 *  -3.33043    1.000000    
     41 O3    s    0.295480 *  0.500000 *  0.260860 *  -3.33043    1.000000    
     42 O2    s    0.704520 *  0.500000 *  0.739140 *  -2.87073    1.000000    
     43 O3    s    0.490600 *  0.234690 *  0.337530 *  -3.33043    1.000000    
     44 O2    s    0.509400 *  0.234690 *  0.662470 *  -2.87073    1.000000    
     45 O3    s    0.509400 *  0.765310 *  0.662470 *  -3.33043    1.000000    
     46 O2    s    0.490600 *  0.765310 *  0.337530 *  -2.87073    1.000000    
     47 O3    s    0.200440 *  0.174000 *  0.194980 *  -3.33043    1.000000    
     48 O3    s    0.799560 *  0.174000 *  0.805020 *  -3.33043    1.000000    
     49 O3    s    0.799560 *  0.826000 *  0.805020 *  -3.33043    1.000000    
     50 O2    s    0.200440 *  0.826000 *  0.194980 *  -2.87073    1.000000    
     51 O3    s    0.317860 *  0.500000 *  0.649090 *  -3.33043    1.000000    
     52 O2    s    0.682140 *  0.500000 *  0.350910 *  -2.87073    1.000000    
     53 O2    s    0.227920 *  0.173870 *  0.671620 *  -2.87073    1.000000    
     54 O2    s    0.772080 *  0.173870 *  0.328380 *  -2.87073    1.000000    
     55 O2    s    0.772080 *  0.826130 *  0.328380 *  -2.87073    1.000000    
     56 O3    s    0.227920 *  0.826130 *  0.671620 *  -3.33043    1.000000    
     57 O2    s    0.000000 *  0.000000 *  0.500000 *  -2.87073    1.000000    
     58 O2    s    0.971960 *  0.000000 *  0.241930 *  -2.87073    1.000000    
     59 O3    s    0.028040 *  0.000000 *  0.758070 *  -3.33043    1.000000    
     60 O3    s    0.000000 *  0.000000 *  0.000000 *  -3.33043    1.000000    
--------------------------------------------------------------------------------



********************************************************************************
*  General input information                                                   *
********************************************************************************

  Species output for all configurations : 

--------------------------------------------------------------------------------
  Species    Type    Atomic    Atomic    Charge       Radii (Angs)     Library
                     Number     Mass       (e)     Cova   Ionic  VDW   Symbol
--------------------------------------------------------------------------------
    Ge       Core       32      72.61   4.000000   1.170  0.000  1.750 Ge       
    Si       Core       14      28.09   4.000000   1.200  0.000  2.100 Si       
    O1       Core        8      16.00   1.733957   0.730  0.000  0.000 O1       
    O2       Core        8      16.00   0.870733   0.730  0.000  1.360 O2       
    O3       Core        8      16.00   1.330431   0.730  0.000  1.360 O3       
    O1       Shell       8       0.00  -3.733957   0.730  0.000  0.000 O1       
    O2       Shell       8       0.00  -2.870733   0.730  0.000  0.000 O2       
    O3       Shell       8       0.00  -3.330431   0.730  0.000  0.000 O3       
--------------------------------------------------------------------------------


  Lattice summation method               =    Ewald          (3-D)
                                         =    Parry          (2-D)
                                         =    Saunders et al (1-D)
  Accuracy factor for lattice sums       =   12.000


  Analytic derivatives to be used

  Time limit = Infinity

  Maximum range for interatomic potentials =    100000.000000 Angstroms

  General interatomic potentials :

--------------------------------------------------------------------------------
Atom  Types   Potential      Parameter       Value         Units   Cutoffs(Ang)
  1     2                                                            Min /  Max 
--------------------------------------------------------------------------------
Si   c O1   s Buckingham    Buckingham A     1315.2478    eV        0.000 16.000
                            Buckingham rho  0.31775900    Ang       
                            Buckingham C     10.141118    eV*Ang^6  
--------------------------------------------------------------------------------
Si   c O2   s Buckingham    Buckingham A     1315.2478    eV        0.000 16.000
                            Buckingham rho  0.31775900    Ang       
                            Buckingham C     10.141118    eV*Ang^6  
--------------------------------------------------------------------------------
Si   c O3   s Buckingham    Buckingham A     1315.2478    eV        0.000 16.000
                            Buckingham rho  0.31775900    Ang       
                            Buckingham C     10.141118    eV*Ang^6  
--------------------------------------------------------------------------------
Ge   c O1   s Buckingham    Buckingham A     1497.3996    eV        0.000 16.000
                            Buckingham rho  0.32564600    Ang       
                            Buckingham C     16.808599    eV*Ang^6  
--------------------------------------------------------------------------------
Ge   c O2   s Buckingham    Buckingham A     1497.3996    eV        0.000 16.000
                            Buckingham rho  0.32564600    Ang       
                            Buckingham C     16.808599    eV*Ang^6  
--------------------------------------------------------------------------------
Ge   c O3   s Buckingham    Buckingham A     1497.3996    eV        0.000 16.000
                            Buckingham rho  0.32564600    Ang       
                            Buckingham C     16.808599    eV*Ang^6  
--------------------------------------------------------------------------------
O1   s O1   s Buckingham    Buckingham A     22764.000    eV        0.000 16.000
                            Buckingham rho  0.14900000    Ang       
                            Buckingham C     10.937044    eV*Ang^6  
--------------------------------------------------------------------------------
O1   s O2   s Buckingham    Buckingham A     22764.000    eV        0.000 16.000
                            Buckingham rho  0.14900000    Ang       
                            Buckingham C     10.937044    eV*Ang^6  
--------------------------------------------------------------------------------
O1   s O3   s Buckingham    Buckingham A     22764.000    eV        0.000 16.000
                            Buckingham rho  0.14900000    Ang       
                            Buckingham C     10.937044    eV*Ang^6  
--------------------------------------------------------------------------------
O2   s O2   s Buckingham    Buckingham A     22764.000    eV        0.000 16.000
                            Buckingham rho  0.14900000    Ang       
                            Buckingham C     10.937044    eV*Ang^6  
--------------------------------------------------------------------------------
O2   s O3   s Buckingham    Buckingham A     22764.000    eV        0.000 16.000
                            Buckingham rho  0.14900000    Ang       
                            Buckingham C     10.937044    eV*Ang^6  
--------------------------------------------------------------------------------
O3   s O3   s Buckingham    Buckingham A     22764.000    eV        0.000 16.000
                            Buckingham rho  0.14900000    Ang       
                            Buckingham C     10.937044    eV*Ang^6  
--------------------------------------------------------------------------------
O1   c O1   s Spring (c-s)  Spring k 2       180.31577    eV*Ang^-2 0.000  0.800
                            Spring k 4       0.0000000    eV*Ang^-4 
--------------------------------------------------------------------------------
O2   c O2   s Spring (c-s)  Spring k 2       75.969800    eV*Ang^-2 0.000  0.800
                            Spring k 4       0.0000000    eV*Ang^-4 
--------------------------------------------------------------------------------
O3   c O3   s Spring (c-s)  Spring k 2       128.14270    eV*Ang^-2 0.000  0.800
                            Spring k 4       0.0000000    eV*Ang^-4 
--------------------------------------------------------------------------------

  General Three-body potentials :

--------------------------------------------------------------------------------
  Atoms       Potential      Parameter       Value         Units   Cutoffs(Ang)
  1 / 2 / 3                                                          Min /  Max 
--------------------------------------------------------------------------------
Si    core    Harmonic      Three-body cnst  1.2614000    eV*rad^-2 0.000  1.900
O1    shel                  Three-body angl  109.47000    degrees   0.000  1.900
O1    shel                  Three-body k4    0.0000000    eV*rad^-4 0.000  3.500
                            Three-body k3    0.0000000    eV*rad^-3 
--------------------------------------------------------------------------------
Si    core    Harmonic      Three-body cnst  1.2614000    eV*rad^-2 0.000  1.900
O1    shel                  Three-body angl  109.47000    degrees   0.000  1.900
õ(1   shel                  Three-body k4    0.0000000    eV*rad^-4 0.000  3.500
                            Three-body k3    0.0000000    eV*rad^-3 
--------------------------------------------------------------------------------
Si    core    Harmonic      Three-body cnst  1.2614000    eV*rad^-2 0.000  1.900
õ(1   shel                  Three-body angl  109.47000    degrees   0.000  1.900
õ(1   shel                  Three-body k4    0.0000000    eV*rad^-4 0.000  3.500
                            Three-body k3    0.0000000    eV*rad^-3 
--------------------------------------------------------------------------------
Si    core    Harmonic      Three-body cnst  1.2614000    eV*rad^-2 0.000  1.900
O1    shel                  Three-body angl  109.47000    degrees   0.000  1.900
O2    shel                  Three-body k4    0.0000000    eV*rad^-4 0.000  3.500
                            Three-body k3    0.0000000    eV*rad^-3 
--------------------------------------------------------------------------------
Si    core    Harmonic      Three-body cnst  1.2614000    eV*rad^-2 0.000  1.900
O1    shel                  Three-body angl  109.47000    degrees   0.000  1.900
õ(2   shel                  Three-body k4    0.0000000    eV*rad^-4 0.000  3.500
                            Three-body k3    0.0000000    eV*rad^-3 
--------------------------------------------------------------------------------
Si    core    Harmonic      Three-body cnst  1.2614000    eV*rad^-2 0.000  1.900
O2    shel                  Three-body angl  109.47000    degrees   0.000  1.900
õ(1   shel                  Three-body k4    0.0000000    eV*rad^-4 0.000  3.500
                            Three-body k3    0.0000000    eV*rad^-3 
--------------------------------------------------------------------------------
Si    core    Harmonic      Three-body cnst  1.2614000    eV*rad^-2 0.000  1.900
õ(1   shel                  Three-body angl  109.47000    degrees   0.000  1.900
õ(2   shel                  Three-body k4    0.0000000    eV*rad^-4 0.000  3.500
                            Three-body k3    0.0000000    eV*rad^-3 
--------------------------------------------------------------------------------
Si    core    Harmonic      Three-body cnst  1.2614000    eV*rad^-2 0.000  1.900
O2    shel                  Three-body angl  109.47000    degrees   0.000  1.900
O2    shel                  Three-body k4    0.0000000    eV*rad^-4 0.000  3.500
                            Three-body k3    0.0000000    eV*rad^-3 
--------------------------------------------------------------------------------
Si    core    Harmonic      Three-body cnst  1.2614000    eV*rad^-2 0.000  1.900
O2    shel                  Three-body angl  109.47000    degrees   0.000  1.900
õ(2   shel                  Three-body k4    0.0000000    eV*rad^-4 0.000  3.500
                            Three-body k3    0.0000000    eV*rad^-3 
--------------------------------------------------------------------------------
Si    core    Harmonic      Three-body cnst  1.2614000    eV*rad^-2 0.000  1.900
õ(2   shel                  Three-body angl  109.47000    degrees   0.000  1.900
õ(2   shel                  Three-body k4    0.0000000    eV*rad^-4 0.000  3.500
                            Three-body k3    0.0000000    eV*rad^-3 
--------------------------------------------------------------------------------

********************************************************************************
*  Output for configuration   1 : c00037.vasp                                  *
********************************************************************************


  Components of energy : 

--------------------------------------------------------------------------------
  Interatomic potentials     =         392.29273547 eV    
  Three-body potentials      =           0.00013761 eV    
  Monopole - monopole (real) =       -1236.99964305 eV    
  Monopole - monopole (recip)=        -659.26603192 eV    
  Monopole - monopole (total)=       -1896.26567496 eV    
--------------------------------------------------------------------------------
  Total lattice energy       =       -1503.97280188 eV    
--------------------------------------------------------------------------------
  Total lattice energy       =         -145110.3851 kJ/(mole unit cells)
--------------------------------------------------------------------------------


  Number of variables =      183

  Maximum number of calculations  =          1000
  Maximum Hessian update interval =            10
  Maximum step size               =   0.100000000
  Maximum parameter tolerance     =   0.000010000
  Maximum function  tolerance     =   0.000010000
  Maximum gradient  tolerance     =   0.001000000
  Maximum gradient  component     =   0.010000000

  Symmetry not applied to optimisation

  Cell parameters to be optimised using strains

  Newton-Raphson optimiser to be used

  BFGS hessian update to be used

  Lower half triangular hessian to be used

  Minimiser to switch to RFO
  When gradient norm is less than     0.050000

  Dumpfile to be written after every cycle

  Start of bulk optimisation :

  Cycle:      0 Energy:     -1503.972802  Gnorm:      5.367299  CPU:    0.031
  ** Hessian calculated **
  Cycle:      1 Energy:     -1519.464817  Gnorm:      1.409187  CPU:    0.071
  ** Hessian calculated **
  Cycle:      2 Energy:     -1522.553244  Gnorm:      0.694548  CPU:    0.142
  ** Hessian calculated **
  Cycle:      3 Energy:     -1523.120415  Gnorm:      0.487358  CPU:    0.206
  ** Hessian calculated **
  Cycle:      4 Energy:     -1523.317177  Gnorm:      0.272810  CPU:    0.270
  Cycle:      5 Energy:     -1523.404810  Gnorm:      0.176060  CPU:    0.310
  Cycle:      6 Energy:     -1523.483897  Gnorm:      0.135535  CPU:    0.358
  Cycle:      7 Energy:     -1523.554178  Gnorm:      0.110095  CPU:    0.406
  Cycle:      8 Energy:     -1523.588679  Gnorm:      0.081243  CPU:    0.445
  Cycle:      9 Energy:     -1523.607680  Gnorm:      0.064297  CPU:    0.485
  Cycle:     10 Energy:     -1523.617332  Gnorm:      0.044765  CPU:    0.525
  ** Hessian has required structure
  Cycle:     11 Energy:     -1523.620608  Gnorm:      0.050568  CPU:    0.565
  ** Hessian has required structure
  Cycle:     12 Energy:     -1523.624809  Gnorm:      0.060630  CPU:    0.604
  ** Hessian has required structure
  Cycle:     13 Energy:     -1523.630050  Gnorm:      0.058702  CPU:    0.651
  ** Hessian has wrong structure
  ** Imaginary eigenvectors =   2
  Cycle:     14 Energy:     -1523.638432  Gnorm:      0.058794  CPU:    0.811
  ** Hessian has wrong structure
  ** Imaginary eigenvectors =   2
  ** Hessian has wrong structure
  ** Imaginary eigenvectors =   2
  Cycle:     15 Energy:     -1523.656981  Gnorm:      0.059251  CPU:    0.987
  ** Hessian has wrong structure
  ** Imaginary eigenvectors =   2
  Cycle:     16 Energy:     -1523.682724  Gnorm:      0.063548  CPU:    1.100
  ** Hessian has wrong structure
  ** Imaginary eigenvectors =   1
  ** Hessian has wrong structure
  ** Imaginary eigenvectors =   1
  Cycle:     17 Energy:     -1523.716889  Gnorm:      0.063098  CPU:    1.269
  ** Hessian has required structure
  Cycle:     18 Energy:     -1523.746557  Gnorm:      0.064412  CPU:    1.324
  ** Hessian has required structure
  Cycle:     19 Energy:     -1523.800304  Gnorm:      0.062525  CPU:    1.377
  ** Hessian has required structure
  Cycle:     20 Energy:     -1523.843408  Gnorm:      0.039479  CPU:    1.424
  ** Hessian has required structure
  Cycle:     21 Energy:     -1523.868548  Gnorm:      0.029344  CPU:    1.470
  ** Hessian has required structure
  Cycle:     22 Energy:     -1523.882049  Gnorm:      0.015187  CPU:    1.517
  ** Hessian has required structure
  Cycle:     23 Energy:     -1523.887865  Gnorm:      0.014274  CPU:    1.564
  ** Hessian has required structure
  Cycle:     24 Energy:     -1523.890494  Gnorm:      0.011046  CPU:    1.603
  ** Hessian has required structure
  Cycle:     25 Energy:     -1523.892725  Gnorm:      0.007076  CPU:    1.649
  ** Hessian has required structure
  Cycle:     26 Energy:     -1523.893765  Gnorm:      0.006914  CPU:    1.703
  ** Hessian has required structure
  Cycle:     27 Energy:     -1523.895346  Gnorm:      0.004849  CPU:    1.781
  ** Hessian has required structure
  Cycle:     28 Energy:     -1523.896738  Gnorm:      0.003798  CPU:    1.835
  ** Hessian has required structure
  Cycle:     29 Energy:     -1523.897583  Gnorm:      0.004444  CPU:    1.889
  ** Hessian has required structure
  Cycle:     30 Energy:     -1523.898847  Gnorm:      0.008169  CPU:    1.942
  ** Hessian has required structure
  Cycle:     31 Energy:     -1523.899992  Gnorm:      0.017076  CPU:    1.988
  ** Hessian has required structure
  Cycle:     32 Energy:     -1523.901546  Gnorm:      0.020519  CPU:    2.042
  ** Hessian has required structure
  Cycle:     33 Energy:     -1523.905943  Gnorm:      0.023980  CPU:    2.095
  ** Hessian has required structure
  Cycle:     34 Energy:     -1523.912334  Gnorm:      0.029936  CPU:    2.149
  ** Hessian has required structure
  Cycle:     35 Energy:     -1523.920818  Gnorm:      0.036027  CPU:    2.195
  ** Hessian has required structure
  Cycle:     36 Energy:     -1523.925504  Gnorm:      0.031716  CPU:    2.233
  ** Hessian has required structure
  Cycle:     37 Energy:     -1523.937879  Gnorm:      0.023117  CPU:    2.303
  ** Hessian has required structure
  Cycle:     38 Energy:     -1523.941632  Gnorm:      0.013316  CPU:    2.350
  ** Hessian has required structure
  Cycle:     39 Energy:     -1523.943111  Gnorm:      0.010485  CPU:    2.404
  ** Hessian has required structure
  Cycle:     40 Energy:     -1523.944886  Gnorm:      0.008194  CPU:    2.458
  ** Hessian has required structure
  Cycle:     41 Energy:     -1523.945967  Gnorm:      0.015615  CPU:    2.504
  ** Hessian has required structure
  Cycle:     42 Energy:     -1523.948313  Gnorm:      0.024321  CPU:    2.558
  ** Hessian has required structure
  Cycle:     43 Energy:     -1523.950100  Gnorm:      0.018008  CPU:    2.604
  ** Hessian has required structure
  Cycle:     44 Energy:     -1523.951364  Gnorm:      0.018917  CPU:    2.665
  ** Hessian has required structure
  Cycle:     45 Energy:     -1523.953557  Gnorm:      0.019580  CPU:    2.726
  ** Hessian has required structure
  Cycle:     46 Energy:     -1523.957101  Gnorm:      0.019783  CPU:    2.780
  ** Hessian has required structure
  Cycle:     47 Energy:     -1523.963334  Gnorm:      0.017873  CPU:    2.857
  ** Hessian has required structure
  Cycle:     48 Energy:     -1523.969727  Gnorm:      0.018382  CPU:    2.911
  ** Hessian has required structure
  Cycle:     49 Energy:     -1523.972588  Gnorm:      0.009047  CPU:    2.958
  ** Hessian has required structure
  Cycle:     50 Energy:     -1523.974069  Gnorm:      0.008396  CPU:    3.013
  ** Hessian has required structure
  Cycle:     51 Energy:     -1523.974902  Gnorm:      0.003538  CPU:    3.067
  ** Hessian has required structure
  Cycle:     52 Energy:     -1523.975172  Gnorm:      0.002535  CPU:    3.121
  ** Hessian has required structure
  Cycle:     53 Energy:     -1523.975252  Gnorm:      0.001334  CPU:    3.167
  ** Hessian has required structure
  Cycle:     54 Energy:     -1523.975283  Gnorm:      0.000893  CPU:    3.214
  ** Hessian has required structure
  Cycle:     55 Energy:     -1523.975298  Gnorm:      0.000489  CPU:    3.260
  ** Hessian has required structure
  Cycle:     56 Energy:     -1523.975301  Gnorm:      0.000294  CPU:    3.299
  ** Hessian has required structure
  Cycle:     57 Energy:     -1523.975303  Gnorm:      0.000231  CPU:    3.362
  ** Hessian has required structure
  Cycle:     58 Energy:     -1523.975303  Gnorm:      0.000176  CPU:    3.401
  ** Hessian has required structure


  **** Optimisation achieved ****


  Final energy =   -1523.97530444 eV      
  Final Gnorm  =       0.00013129

  Components of energy : 

--------------------------------------------------------------------------------
  Interatomic potentials     =         406.08789567 eV    
  Three-body potentials      =           0.04872914 eV    
  Monopole - monopole (real) =        -882.79583006 eV    
  Monopole - monopole (recip)=       -1047.31609920 eV    
  Monopole - monopole (total)=       -1930.11192925 eV    
--------------------------------------------------------------------------------
  Total lattice energy       =       -1523.97530444 eV    
--------------------------------------------------------------------------------
  Total lattice energy       =         -147040.3208 kJ/(mole unit cells)
--------------------------------------------------------------------------------

  Final fractional coordinates of atoms :

--------------------------------------------------------------------------------
   No.  Atomic        x           y          z          Radius
        Label       (Frac)      (Frac)     (Frac)       (Angs) 
--------------------------------------------------------------------------------
     1  Ge    c     0.313820    0.296860    0.309830    0.000000
     2  Ge    c     0.366147    0.699629    0.638882    0.000000
     3  Ge    c     0.922765    0.953714    0.870724    0.000000
     4  Si    c     0.684015    0.250377    0.705094    0.000000
     5  Si    c     0.727241    0.641858    0.722718    0.000000
     6  Si    c     0.342983    0.704951    0.324507    0.000000
     7  Si    c     0.325035    0.297354    0.619812    0.000000
     8  Si    c     0.677929    0.261220    0.398092    0.000000
     9  Si    c     0.699491    0.657573    0.410135    0.000000
    10  Si    c     0.907254    0.961187    0.393369    0.000000
    11  Si    c     0.143888    0.994718    0.690554    0.000000
    12  Si    c     0.103450    0.990841    0.187548    0.000000
    13  O3    c     0.300411    0.235259    0.466881    0.000000
    14  O2    c     0.684936    0.208326    0.552071    0.000000
    15  O2    c     0.716516    0.694404    0.567441    0.000000
    16  O3    c     0.344433    0.765564    0.473469    0.000000
    17  O3    c     0.270692    0.516824    0.286664    0.000000
    18  O2    c     0.765521    0.435428    0.749720    0.000000
    19  O3    c     0.500805    0.254927    0.303032    0.000000
    20  O2    c     0.507010    0.267584    0.706798    0.000000
    21  O3    c     0.559381    0.689945    0.737535    0.000000
    22  O2    c     0.520839    0.697254    0.319660    0.000000
    23  O3    c     0.178335    0.179059    0.190282    0.000000
    24  O3    c     0.768260    0.098134    0.806705    0.000000
    25  O3    c     0.862897    0.744473    0.826800    0.000000
    26  O2    c     0.244839    0.847703    0.213826    0.000000
    27  O3    c     0.281286    0.497927    0.627673    0.000000
    28  O2    c     0.742673    0.455885    0.392002    0.000000
    29  O2    c     0.218671    0.181063    0.683332    0.000000
    30  O2    c     0.788556    0.127056    0.350235    0.000000
    31  O2    c     0.812423    0.782133    0.360070    0.000000
    32  O3    c     0.272379    0.841577    0.715637    0.000000
    33  O2    c     0.000596    0.960066    0.554089    0.000000
    34  O2    c     0.025473    0.967887    0.307315    0.000000
    35  O3    c     0.079371    0.002662    0.817895    0.000000
    36  O3    c     0.974007    0.963066    0.045418    0.000000
    37  O3    s     0.303961    0.246430    0.469252    0.000000
    38  O2    s     0.684128    0.218337    0.552020    0.000000
    39  O2    s     0.715774    0.684946    0.566608    0.000000
    40  O3    s     0.346050    0.754274    0.472359    0.000000
    41  O3    s     0.281393    0.517595    0.292270    0.000000
    42  O2    s     0.753149    0.437585    0.742299    0.000000
    43  O3    s     0.503878    0.258842    0.313079    0.000000
    44  O2    s     0.507130    0.268907    0.697512    0.000000
    45  O3    s     0.560002    0.686096    0.728115    0.000000
    46  O2    s     0.521511    0.693754    0.329789    0.000000
    47  O3    s     0.182197    0.170558    0.199764    0.000000
    48  O3    s     0.772099    0.102531    0.801000    0.000000
    49  O3    s     0.853533    0.750757    0.819426    0.000000
    50  O2    s     0.240791    0.847077    0.222971    0.000000
    51  O3    s     0.292441    0.493538    0.627785    0.000000
    52  O2    s     0.731524    0.457186    0.394542    0.000000
    53  O2    s     0.222268    0.173710    0.677047    0.000000
    54  O2    s     0.789003    0.124098    0.360069    0.000000
    55  O2    s     0.810067    0.787320    0.369059    0.000000
    56  O3    s     0.267347    0.844946    0.706517    0.000000
    57  O2    s     0.005557    0.963851    0.551056    0.000000
    58  O2    s     0.020201    0.969575    0.304373    0.000000
    59  O3    s     0.072694    0.997685    0.809367    0.000000
    60  O3    s     0.983482    0.965251    0.045663    0.000000
--------------------------------------------------------------------------------

  Final Cartesian lattice vectors (Angstroms) :

        9.025225    0.094856    0.027010
        0.081399    7.679246    0.060193
       -3.239799    0.053189    9.762646


  Final cell parameters and derivatives :

--------------------------------------------------------------------------------
       a            9.025764 Angstrom     dE/de1(xx)     0.005618 eV/strain
       b            7.679914 Angstrom     dE/de2(yy)     0.008579 eV/strain
       c           10.286320 Angstrom     dE/de3(zz)     0.003654 eV/strain
       alpha       89.468814 Degrees      dE/de4(yz)     0.000153 eV/strain
       beta       108.182728 Degrees      dE/de5(xz)    -0.000404 eV/strain
       gamma       88.789232 Degrees      dE/de6(xy)    -0.000794 eV/strain
--------------------------------------------------------------------------------

  Primitive cell volume =           677.168335 Angs**3

  Density of cell =      2.095765 g/cm**3

  Non-primitive cell volume =           677.168335 Angs**3


  Final internal derivatives :

--------------------------------------------------------------------------------
   No.  Atomic          a             b             c           Radius
        Label          (eV)          (eV)          (eV)        (eV/Angs)
--------------------------------------------------------------------------------
      1 Ge    c       0.000000      0.000000      0.000000      0.000000
      2 Ge    c       0.004386     -0.000495     -0.004605      0.000000
      3 Ge    c       0.000600      0.000758     -0.000261      0.000000
      4 Si    c       0.002184     -0.002762      0.000231      0.000000
      5 Si    c       0.000114      0.002349      0.000617      0.000000
      6 Si    c       0.000573      0.001155     -0.000317      0.000000
      7 Si    c       0.000227     -0.002161     -0.000708      0.000000
      8 Si    c      -0.001174     -0.000797      0.000301      0.000000
      9 Si    c      -0.000640      0.000597      0.000605      0.000000
     10 Si    c       0.000211     -0.000025      0.000695      0.000000
     11 Si    c      -0.003508      0.003467      0.002571      0.000000
     12 Si    c       0.000763     -0.000506     -0.001253      0.000000
     13 O3    c      -0.000630     -0.001019      0.000519      0.000000
     14 O2    c      -0.000565      0.000201      0.000504      0.000000
     15 O2    c      -0.000134     -0.000369     -0.000730      0.000000
     16 O3    c      -0.001049      0.000766      0.000749      0.000000
     17 O3    c      -0.001197      0.000388     -0.000780      0.000000
     18 O2    c       0.001231      0.000091      0.000445      0.000000
     19 O3    c       0.002003      0.000258      0.000441      0.000000
     20 O2    c      -0.000016     -0.000137      0.000578      0.000000
     21 O3    c       0.001680      0.000123      0.000249      0.000000
     22 O2    c      -0.000159     -0.000178     -0.000047      0.000000
     23 O3    c       0.001180      0.001883      0.000077      0.000000
     24 O3    c      -0.000896      0.000552     -0.002211      0.000000
     25 O3    c      -0.000032     -0.000849     -0.001262      0.000000
     26 O2    c      -0.000158      0.000253     -0.000300      0.000000
     27 O3    c      -0.004060      0.000443      0.002392      0.000000
     28 O2    c       0.000598     -0.000194     -0.000374      0.000000
     29 O2    c       0.002460      0.005625     -0.000484      0.000000
     30 O2    c       0.000035      0.000855     -0.000617      0.000000
     31 O2    c      -0.000182     -0.000749     -0.000614      0.000000
     32 O3    c       0.001613     -0.008026      0.006554      0.000000
     33 O2    c      -0.003806     -0.000549     -0.006478      0.000000
     34 O2    c      -0.000176     -0.000165      0.001169      0.000000
     35 O3    c      -0.001510      0.000340      0.002970      0.000000
     36 O3    c       0.000077      0.000236      0.000654      0.000000
     37 O3    s       0.000358      0.000068     -0.001065      0.000000
     38 O2    s       0.000390     -0.000100      0.000094      0.000000
     39 O2    s       0.000022      0.000303      0.000403      0.000000
     40 O3    s       0.001232     -0.000057     -0.001304      0.000000
     41 O3    s       0.000386     -0.000376     -0.000214      0.000000
     42 O2    s      -0.000426      0.000141     -0.000199      0.000000
     43 O3    s      -0.000136     -0.000079     -0.000627      0.000000
     44 O2    s       0.000936     -0.000439      0.000764      0.000000
     45 O3    s       0.000878      0.000125      0.000130      0.000000
     46 O2    s       0.000570      0.000203      0.000039      0.000000
     47 O3    s       0.000038     -0.000878     -0.000504      0.000000
     48 O3    s      -0.000171     -0.001625      0.000058      0.000000
     49 O3    s      -0.000060      0.000855      0.000111      0.000000
     50 O2    s       0.000989      0.000082     -0.000835      0.000000
     51 O3    s       0.001689     -0.000676     -0.001051      0.000000
     52 O2    s      -0.000603      0.000029      0.000725      0.000000
     53 O2    s       0.002015      0.002794      0.001311      0.000000
     54 O2    s      -0.000518      0.000247     -0.000107      0.000000
     55 O2    s      -0.000698     -0.000192      0.000995      0.000000
     56 O3    s       0.001322     -0.000857     -0.000402      0.000000
     57 O2    s      -0.004310      0.000294      0.001546      0.000000
     58 O2    s      -0.000105      0.000333     -0.000884      0.000000
     59 O3    s      -0.003493      0.000623      0.002473      0.000000
     60 O3    s      -0.000687     -0.000642     -0.000973      0.000000
--------------------------------------------------------------------------------
  Maximum abs         0.004386      0.008026      0.006554      0.000000
--------------------------------------------------------------------------------


  Born effective charge tensors : 

-------------------------------------------------------------------------------
  Atom             x           y             z
-------------------------------------------------------------------------------
    1 Ge    x       3.8575      0.3063      0.1703
            y       0.2663      4.1854      0.3610
            z       0.2935      0.1181      3.4758
-------------------------------------------------------------------------------
    2 Ge    x       3.9984     -0.4081      0.0017
            y      -0.1963      4.1421      0.2549
            z      -0.0267     -0.0536      3.2960
-------------------------------------------------------------------------------
    3 Ge    x       3.9033      0.2586      0.2290
            y      -0.2101      3.8988     -0.0140
            z      -0.0308      0.0710      4.7659
-------------------------------------------------------------------------------
    4 Si    x       3.1212     -0.4395      0.1837
            y      -0.0883      3.6514     -0.3757
            z       0.2219     -0.4008      3.0678
-------------------------------------------------------------------------------
    5 Si    x       3.5955      0.2507      0.2112
            y       0.2973      3.6074      0.4097
            z       0.4196      0.2449      3.1406
-------------------------------------------------------------------------------
    6 Si    x       3.2841     -0.3236      0.1401
            y      -0.0135      3.7872     -0.0139
            z       0.2040      0.0385      3.1570
-------------------------------------------------------------------------------
    7 Si    x       3.4169      0.1769     -0.0331
            y       0.1697      3.8104      0.0056
            z      -0.0890      0.1879      2.9706
-------------------------------------------------------------------------------
    8 Si    x       3.5486     -0.3140      0.2229
            y      -0.1966      3.4945      0.1208
            z       0.1508     -0.0404      2.8126
-------------------------------------------------------------------------------
    9 Si    x       3.2539      0.2854      0.0453
            y       0.2797      3.4294     -0.1074
            z      -0.0043      0.0333      2.6485
-------------------------------------------------------------------------------
   10 Si    x       3.6405      0.0815      0.1628
            y      -0.0209      3.2948      0.0031
            z      -0.3873     -0.0229      2.8415
-------------------------------------------------------------------------------
   11 Si    x       4.0732     -0.1060     -0.3097
            y      -0.2466      3.4708     -0.1068
            z      -0.3703      0.0722      3.3037
-------------------------------------------------------------------------------
   12 Si    x       3.4874      0.3304     -0.0736
            y       0.0755      3.5163      0.0152
            z       0.6789      0.2594      4.2778
-------------------------------------------------------------------------------
   13 O3    x      -1.4444     -0.1291      0.3436
            y      -0.1077     -1.4395     -0.1074
            z       0.3469     -0.1134     -2.4606
-------------------------------------------------------------------------------
   14 O2    x      -1.3026      0.1153      0.3174
            y       0.0574     -1.3002      0.0028
            z       0.3054      0.0323     -1.9367
-------------------------------------------------------------------------------
   15 O2    x      -1.2490     -0.1178      0.2477
            y      -0.0988     -1.2964      0.0114
            z       0.2120      0.0299     -1.9921
-------------------------------------------------------------------------------
   16 O3    x      -1.4359      0.1633      0.3664
            y       0.0920     -1.4469     -0.0172
            z       0.3248     -0.0083     -2.4651
-------------------------------------------------------------------------------
   17 O3    x      -1.3365     -0.1623     -0.1148
            y      -0.2123     -3.1535     -0.1376
            z      -0.1507     -0.0883     -1.2149
-------------------------------------------------------------------------------
   18 O2    x      -1.1846     -0.1017     -0.0795
            y      -0.1673     -2.4105     -0.0701
            z      -0.1192     -0.0530     -1.1392
-------------------------------------------------------------------------------
   19 O3    x      -2.8060      0.1081     -0.5480
            y       0.0452     -1.3644     -0.0805
            z      -0.5776     -0.0086     -1.4421
-------------------------------------------------------------------------------
   20 O2    x      -2.3006      0.0823     -0.2796
            y       0.0149     -1.2447      0.0559
            z      -0.3023      0.0452     -1.1595
-------------------------------------------------------------------------------
   21 O3    x      -2.8477      0.2520     -0.3352
            y       0.2198     -1.4015     -0.0508
            z      -0.3143      0.0012     -1.3344
-------------------------------------------------------------------------------
   22 O2    x      -2.2771      0.1451     -0.3597
            y       0.0850     -1.2476      0.0866
            z      -0.3626      0.0636     -1.1940
-------------------------------------------------------------------------------
   23 O3    x      -1.7133     -0.8084     -0.3157
            y      -0.7682     -2.5364     -0.5014
            z      -0.4528     -0.5212     -1.7080
-------------------------------------------------------------------------------
   24 O3    x      -1.7091      0.7335     -0.5377
            y       0.7193     -2.3887      0.8352
            z      -0.5248      0.8426     -1.9072
-------------------------------------------------------------------------------
   25 O3    x      -1.6604     -0.7455     -0.5442
            y      -0.6556     -2.4218     -0.7514
            z      -0.5484     -0.7638     -1.8929
-------------------------------------------------------------------------------
   26 O2    x      -1.6067      0.5597     -0.2811
            y       0.5820     -1.8481      0.4274
            z      -0.3848      0.4022     -1.5194
-------------------------------------------------------------------------------
   27 O3    x      -1.4431      0.0025     -0.0154
            y      -0.0950     -3.1501     -0.1098
            z       0.0202     -0.0457     -1.0809
-------------------------------------------------------------------------------
   28 O2    x      -1.2404     -0.0155      0.0106
            y      -0.0583     -2.5344     -0.0454
            z       0.0349     -0.0438     -0.9993
-------------------------------------------------------------------------------
   29 O2    x      -1.8386     -0.7148      0.2027
            y      -0.6663     -1.9497      0.1887
            z       0.2042      0.1304     -1.1136
-------------------------------------------------------------------------------
   30 O2    x      -1.8569      0.7796      0.0281
            y       0.7563     -1.9827     -0.0380
            z       0.1307     -0.0479     -1.0801
-------------------------------------------------------------------------------
   31 O2    x      -1.8500     -0.8101      0.0464
            y      -0.7526     -2.0384      0.0439
            z       0.1392      0.0393     -1.0621
-------------------------------------------------------------------------------
   32 O3    x      -2.3038      1.0481      0.1814
            y       1.0252     -2.3477     -0.1707
            z       0.1630     -0.1234     -1.2699
-------------------------------------------------------------------------------
   33 O2    x      -1.5784     -0.0945     -0.5445
            y      -0.0351     -1.1806     -0.0962
            z      -0.2948     -0.1076     -2.0046
-------------------------------------------------------------------------------
   34 O2    x      -2.1945     -0.0932      0.7479
            y      -0.0123     -1.1466      0.0371
            z       0.7247      0.0470     -1.7458
-------------------------------------------------------------------------------
   35 O3    x      -2.6108     -0.1952      0.9354
            y      -0.0835     -1.2406      0.0655
            z       0.9617      0.0533     -2.1720
-------------------------------------------------------------------------------
   36 O3    x      -1.3903     -0.1001     -0.4227
            y      -0.0005     -1.2174     -0.1307
            z      -0.5957     -0.2695     -3.8638
-------------------------------------------------------------------------------




  Elastic Constant Matrix: (Units=GPa)

-------------------------------------------------------------------------------
  Indices      1         2         3         4         5         6    
-------------------------------------------------------------------------------
       1     44.6512   23.4762    6.4732    1.4413   -1.4810   12.8814
       2     23.4762   71.8069   10.7786    3.3466    3.2641   18.7234
       3      6.4732   10.7786   28.6583    3.0589    6.6525    5.6832
       4      1.4413    3.3466    3.0589   11.1762    1.7767    5.1188
       5     -1.4810    3.2641    6.6525    1.7767   11.6176    3.7860
       6     12.8814   18.7234    5.6832    5.1188    3.7860   24.6587
-------------------------------------------------------------------------------


  Elastic Compliance Matrix: (Units=1/GPa)

-------------------------------------------------------------------------------
  Indices      1         2         3         4         5         6    
-------------------------------------------------------------------------------
       1    0.030484 -0.006730 -0.005105  0.003111  0.012185 -0.012155
       2   -0.006730  0.019381 -0.003572  0.000977 -0.001010 -0.010425
       3   -0.005105 -0.003572  0.043519 -0.006580 -0.023675  0.000349
       4    0.003111  0.000977 -0.006580  0.100989 -0.004680 -0.021097
       5    0.012185 -0.001010 -0.023675 -0.004680  0.107283 -0.015642
       6   -0.012155 -0.010425  0.000349 -0.021097 -0.015642  0.061520
-------------------------------------------------------------------------------

  Mechanical properties :

-------------------------------------------------------------------------------
  Convention :                    Reuss         Voigt         Hill
-------------------------------------------------------------------------------
  Bulk  Modulus (GPa)     =      15.98155      25.17472      20.57813
  Shear Modulus (GPa)     =      12.05264      16.44972      14.25118
-------------------------------------------------------------------------------
  Velocity S-wave (km/s)  =       2.39811       2.80161       2.60768
  Velocity P-wave (km/s)  =       3.91070       4.74105       4.34575
-------------------------------------------------------------------------------
  Compressibility (1/GPa) =    0.06257217
-------------------------------------------------------------------------------
  Stress axis :                     x             y             z
-------------------------------------------------------------------------------
  Youngs Moduli (GPa)     =      32.80362      51.59607      22.97852
-------------------------------------------------------------------------------
  Poissons Ratio (x)      =                     0.34723       0.11730
  Poissons Ratio (y)      =       0.22076                     0.08207
  Poissons Ratio (z)      =       0.16746       0.18429
-------------------------------------------------------------------------------


  Piezoelectric Strain Matrix: (Units=C/m**2)

-------------------------------------------------------------------------------
  Indices      1         2         3         4         5         6    
-------------------------------------------------------------------------------
       x     1.24964  -0.25906  -1.46771  -0.09157  -0.50517  -0.01289
       y    -0.76030  -1.26746  -0.41583  -0.80190  -0.13850  -0.45103
       z     0.02171  -0.31024   0.51289  -0.16408  -0.83957  -0.02247
-------------------------------------------------------------------------------


  Piezoelectric Stress Matrix: (Units=10**-11 C/N)

-------------------------------------------------------------------------------
  Indices      1         2         3         4         5         6    
-------------------------------------------------------------------------------
       x     4.10465  -0.76332  -5.67691   0.66797  -0.33301  -0.39604
       y    -1.12253  -1.39050  -0.12910  -7.16885  -0.21901   1.36467
       z    -1.03363  -0.70689   4.42660  -1.57774 -10.05166   1.83614
-------------------------------------------------------------------------------


  Static dielectric constant tensor : 

-------------------------------------------------------------------------------
              x         y         z
-------------------------------------------------------------------------------
       x     4.41594   0.07504   0.29755
       y     0.07504   4.57953   0.21335
       z     0.29755   0.21335   3.74370
--------------------------------------------------------------------------------

  High frequency dielectric constant tensor : 

-------------------------------------------------------------------------------
              x         y         z
-------------------------------------------------------------------------------
       x     1.64966   0.00264   0.00970
       y     0.00264   1.65936   0.00230
       z     0.00970   0.00230   1.59424
-------------------------------------------------------------------------------

  Static refractive indices : 

-------------------------------------------------------------------------------
    1 =    1.89728      2 =    2.10254      3 =    2.17228
-------------------------------------------------------------------------------

  High frequency refractive indices : 

-------------------------------------------------------------------------------
    1 =    1.26196      2 =    1.28465      3 =    1.28856
-------------------------------------------------------------------------------


  Time to end of optimisation =       3.4878 seconds


  Peak dynamic memory used =       2.76 MB 


  Timing analysis for GULP :

--------------------------------------------------------------------------------
  Task / Subroutine                                          Time (Seconds)
--------------------------------------------------------------------------------
  Calculation of reciprocal space energy and derivatives          0.2174
  Calculation of real space energy and derivatives                2.7755
  Calculation of three-body energy and derivatives                0.0912
  Calculation and manipulation of Hessian matrix                  0.6157
  Calculation of matrix inversion                                 0.0032
--------------------------------------------------------------------------------
  Total CPU time                                                  3.4878
--------------------------------------------------------------------------------


  Dump file written as c00037.vasp.grs
  CIF file written as c00037.vasp.cif


  Job Finished at 21:28.10  6th October    2025                               

