********************************************************************************
*                       GENERAL UTILITY LATTICE PROGRAM                        *
*                                 Julian Gale                                  *
*                       Curtin Institute for Computation                       *
*                    School of Molecular and Life Sciences                     *
*                    Curtin University, Western Australia                      *
********************************************************************************
* Version = 6.1.2 * Last modified =   3rd November 2022                        *
********************************************************************************
*  optimise     - perform optimisation run                                     *
*  conp         - constant pressure calculation                                *
*  property     - calculate properties for final geometry                      *
********************************************************************************

  Job Started  at 21:27.27  6th October    2025                               

  Number of CPUs =     1


  Total number of configurations input =      1

********************************************************************************
*  Input for Configuration =   1 : c00026.vasp                                 *
********************************************************************************

  Formula = Ge3Si9O24                                                   

  Number of irreducible atoms/shells =      60


  Total number atoms/shells =      60

  Dimensionality = 3               :  Bulk   



  Cartesian lattice vectors (Angstroms) :

        9.086940    0.000000    0.000000
        0.000000    7.554810    0.000000
       -3.295144    0.000000    9.944380

  Cell parameters (Angstroms/Degrees):

  a =       9.0869    alpha =  90.0000
  b =       7.5548    beta  = 108.3330
  c =      10.4761    gamma =  90.0000

  Initial cell volume =         682.682735 Angs**3

  Temperature of configuration =   0.00     K 

  Pressure of configuration =         0.000 GPa 

  Fractional coordinates of asymmetric unit :

--------------------------------------------------------------------------------
   No.  Atomic       x           y          z         Charge      Occupancy
        Label      (Frac)      (Frac)     (Frac)        (e)         (Frac)  
--------------------------------------------------------------------------------
      1 Ge    c    0.313820    0.296860    0.309830     4.00000    1.000000    
      2 Ge    c    0.668950 *  0.296920 *  0.392620 *   4.00000    1.000000    
      3 Ge    c    0.120320 *  0.000000 *  0.649840 *   4.00000    1.000000    
      4 Si    c    0.686180 *  0.296860 *  0.690170 *   4.00000    1.000000    
      5 Si    c    0.686180 *  0.703140 *  0.690170 *   4.00000    1.000000    
      6 Si    c    0.313820 *  0.703140 *  0.309830 *   4.00000    1.000000    
      7 Si    c    0.331050 *  0.296920 *  0.607380 *   4.00000    1.000000    
      8 Si    c    0.668950 *  0.703080 *  0.392620 *   4.00000    1.000000    
      9 Si    c    0.331050 *  0.703080 *  0.607380 *   4.00000    1.000000    
     10 Si    c    0.879680 *  0.000000 *  0.350160 *   4.00000    1.000000    
     11 Si    c    0.093070 *  0.000000 *  0.158230 *   4.00000    1.000000    
     12 Si    c    0.906930 *  0.000000 *  0.841770 *   4.00000    1.000000    
     13 O3    c    0.268740 *  0.279030 *  0.446100 *   1.33043    1.000000    
     14 O3    c    0.731260 *  0.279030 *  0.553900 *   1.33043    1.000000    
     15 O2    c    0.731260 *  0.720970 *  0.553900 *   0.87073    1.000000    
     16 O2    c    0.268740 *  0.720970 *  0.446100 *   0.87073    1.000000    
     17 O3    c    0.295480 *  0.500000 *  0.260860 *   1.33043    1.000000    
     18 O2    c    0.704520 *  0.500000 *  0.739140 *   0.87073    1.000000    
     19 O1    c    0.490600 *  0.234690 *  0.337530 *   1.73396    1.000000    
     20 O2    c    0.509400 *  0.234690 *  0.662470 *   0.87073    1.000000    
     21 O2    c    0.509400 *  0.765310 *  0.662470 *   0.87073    1.000000    
     22 O2    c    0.490600 *  0.765310 *  0.337530 *   0.87073    1.000000    
     23 O3    c    0.200440 *  0.174000 *  0.194980 *   1.33043    1.000000    
     24 O2    c    0.799560 *  0.174000 *  0.805020 *   0.87073    1.000000    
     25 O2    c    0.799560 *  0.826000 *  0.805020 *   0.87073    1.000000    
     26 O2    c    0.200440 *  0.826000 *  0.194980 *   0.87073    1.000000    
     27 O2    c    0.317860 *  0.500000 *  0.649090 *   0.87073    1.000000    
     28 O3    c    0.682140 *  0.500000 *  0.350910 *   1.33043    1.000000    
     29 O3    c    0.227920 *  0.173870 *  0.671620 *   1.33043    1.000000    
     30 O3    c    0.772080 *  0.173870 *  0.328380 *   1.33043    1.000000    
     31 O2    c    0.772080 *  0.826130 *  0.328380 *   0.87073    1.000000    
     32 O3    c    0.227920 *  0.826130 *  0.671620 *   1.33043    1.000000    
     33 O3    c    0.000000 *  0.000000 *  0.500000 *   1.33043    1.000000    
     34 O2    c    0.971960 *  0.000000 *  0.241930 *   0.87073    1.000000    
     35 O3    c    0.028040 *  0.000000 *  0.758070 *   1.33043    1.000000    
     36 O2    c    0.000000 *  0.000000 *  0.000000 *   0.87073    1.000000    
     37 O3    s    0.268740 *  0.279030 *  0.446100 *  -3.33043    1.000000    
     38 O3    s    0.731260 *  0.279030 *  0.553900 *  -3.33043    1.000000    
     39 O2    s    0.731260 *  0.720970 *  0.553900 *  -2.87073    1.000000    
     40 O2    s    0.268740 *  0.720970 *  0.446100 *  -2.87073    1.000000    
     41 O3    s    0.295480 *  0.500000 *  0.260860 *  -3.33043    1.000000    
     42 O2    s    0.704520 *  0.500000 *  0.739140 *  -2.87073    1.000000    
     43 O1    s    0.490600 *  0.234690 *  0.337530 *  -3.73396    1.000000    
     44 O2    s    0.509400 *  0.234690 *  0.662470 *  -2.87073    1.000000    
     45 O2    s    0.509400 *  0.765310 *  0.662470 *  -2.87073    1.000000    
     46 O2    s    0.490600 *  0.765310 *  0.337530 *  -2.87073    1.000000    
     47 O3    s    0.200440 *  0.174000 *  0.194980 *  -3.33043    1.000000    
     48 O2    s    0.799560 *  0.174000 *  0.805020 *  -2.87073    1.000000    
     49 O2    s    0.799560 *  0.826000 *  0.805020 *  -2.87073    1.000000    
     50 O2    s    0.200440 *  0.826000 *  0.194980 *  -2.87073    1.000000    
     51 O2    s    0.317860 *  0.500000 *  0.649090 *  -2.87073    1.000000    
     52 O3    s    0.682140 *  0.500000 *  0.350910 *  -3.33043    1.000000    
     53 O3    s    0.227920 *  0.173870 *  0.671620 *  -3.33043    1.000000    
     54 O3    s    0.772080 *  0.173870 *  0.328380 *  -3.33043    1.000000    
     55 O2    s    0.772080 *  0.826130 *  0.328380 *  -2.87073    1.000000    
     56 O3    s    0.227920 *  0.826130 *  0.671620 *  -3.33043    1.000000    
     57 O3    s    0.000000 *  0.000000 *  0.500000 *  -3.33043    1.000000    
     58 O2    s    0.971960 *  0.000000 *  0.241930 *  -2.87073    1.000000    
     59 O3    s    0.028040 *  0.000000 *  0.758070 *  -3.33043    1.000000    
     60 O2    s    0.000000 *  0.000000 *  0.000000 *  -2.87073    1.000000    
--------------------------------------------------------------------------------



********************************************************************************
*  General input information                                                   *
********************************************************************************

  Species output for all configurations : 

--------------------------------------------------------------------------------
  Species    Type    Atomic    Atomic    Charge       Radii (Angs)     Library
                     Number     Mass       (e)     Cova   Ionic  VDW   Symbol
--------------------------------------------------------------------------------
    Ge       Core       32      72.61   4.000000   1.170  0.000  1.750 Ge       
    Si       Core       14      28.09   4.000000   1.200  0.000  2.100 Si       
    O1       Core        8      16.00   1.733957   0.730  0.000  1.360 O1       
    O2       Core        8      16.00   0.870733   0.730  0.000  1.360 O2       
    O3       Core        8      16.00   1.330431   0.730  0.000  1.360 O3       
    O1       Shell       8       0.00  -3.733957   0.730  0.000  0.000 O1       
    O2       Shell       8       0.00  -2.870733   0.730  0.000  0.000 O2       
    O3       Shell       8       0.00  -3.330431   0.730  0.000  0.000 O3       
--------------------------------------------------------------------------------


  Lattice summation method               =    Ewald          (3-D)
                                         =    Parry          (2-D)
                                         =    Saunders et al (1-D)
  Accuracy factor for lattice sums       =   12.000


  Analytic derivatives to be used

  Time limit = Infinity

  Maximum range for interatomic potentials =    100000.000000 Angstroms

  General interatomic potentials :

--------------------------------------------------------------------------------
Atom  Types   Potential      Parameter       Value         Units   Cutoffs(Ang)
  1     2                                                            Min /  Max 
--------------------------------------------------------------------------------
Si   c O1   s Buckingham    Buckingham A     1315.2478    eV        0.000 16.000
                            Buckingham rho  0.31775900    Ang       
                            Buckingham C     10.141118    eV*Ang^6  
--------------------------------------------------------------------------------
Si   c O2   s Buckingham    Buckingham A     1315.2478    eV        0.000 16.000
                            Buckingham rho  0.31775900    Ang       
                            Buckingham C     10.141118    eV*Ang^6  
--------------------------------------------------------------------------------
Si   c O3   s Buckingham    Buckingham A     1315.2478    eV        0.000 16.000
                            Buckingham rho  0.31775900    Ang       
                            Buckingham C     10.141118    eV*Ang^6  
--------------------------------------------------------------------------------
Ge   c O1   s Buckingham    Buckingham A     1497.3996    eV        0.000 16.000
                            Buckingham rho  0.32564600    Ang       
                            Buckingham C     16.808599    eV*Ang^6  
--------------------------------------------------------------------------------
Ge   c O2   s Buckingham    Buckingham A     1497.3996    eV        0.000 16.000
                            Buckingham rho  0.32564600    Ang       
                            Buckingham C     16.808599    eV*Ang^6  
--------------------------------------------------------------------------------
Ge   c O3   s Buckingham    Buckingham A     1497.3996    eV        0.000 16.000
                            Buckingham rho  0.32564600    Ang       
                            Buckingham C     16.808599    eV*Ang^6  
--------------------------------------------------------------------------------
O1   s O1   s Buckingham    Buckingham A     22764.000    eV        0.000 16.000
                            Buckingham rho  0.14900000    Ang       
                            Buckingham C     10.937044    eV*Ang^6  
--------------------------------------------------------------------------------
O1   s O2   s Buckingham    Buckingham A     22764.000    eV        0.000 16.000
                            Buckingham rho  0.14900000    Ang       
                            Buckingham C     10.937044    eV*Ang^6  
--------------------------------------------------------------------------------
O1   s O3   s Buckingham    Buckingham A     22764.000    eV        0.000 16.000
                            Buckingham rho  0.14900000    Ang       
                            Buckingham C     10.937044    eV*Ang^6  
--------------------------------------------------------------------------------
O2   s O2   s Buckingham    Buckingham A     22764.000    eV        0.000 16.000
                            Buckingham rho  0.14900000    Ang       
                            Buckingham C     10.937044    eV*Ang^6  
--------------------------------------------------------------------------------
O2   s O3   s Buckingham    Buckingham A     22764.000    eV        0.000 16.000
                            Buckingham rho  0.14900000    Ang       
                            Buckingham C     10.937044    eV*Ang^6  
--------------------------------------------------------------------------------
O3   s O3   s Buckingham    Buckingham A     22764.000    eV        0.000 16.000
                            Buckingham rho  0.14900000    Ang       
                            Buckingham C     10.937044    eV*Ang^6  
--------------------------------------------------------------------------------
O1   c O1   s Spring (c-s)  Spring k 2       180.31577    eV*Ang^-2 0.000  0.800
                            Spring k 4       0.0000000    eV*Ang^-4 
--------------------------------------------------------------------------------
O2   c O2   s Spring (c-s)  Spring k 2       75.969800    eV*Ang^-2 0.000  0.800
                            Spring k 4       0.0000000    eV*Ang^-4 
--------------------------------------------------------------------------------
O3   c O3   s Spring (c-s)  Spring k 2       128.14270    eV*Ang^-2 0.000  0.800
                            Spring k 4       0.0000000    eV*Ang^-4 
--------------------------------------------------------------------------------

  General Three-body potentials :

--------------------------------------------------------------------------------
  Atoms       Potential      Parameter       Value         Units   Cutoffs(Ang)
  1 / 2 / 3                                                          Min /  Max 
--------------------------------------------------------------------------------
Si    core    Harmonic      Three-body cnst  1.2614000    eV*rad^-2 0.000  1.900
O1    shel                  Three-body angl  109.47000    degrees   0.000  1.900
O1    shel                  Three-body k4    0.0000000    eV*rad^-4 0.000  3.500
                            Three-body k3    0.0000000    eV*rad^-3 
--------------------------------------------------------------------------------
Si    core    Harmonic      Three-body cnst  1.2614000    eV*rad^-2 0.000  1.900
O1    shel                  Three-body angl  109.47000    degrees   0.000  1.900
õ(1   shel                  Three-body k4    0.0000000    eV*rad^-4 0.000  3.500
                            Three-body k3    0.0000000    eV*rad^-3 
--------------------------------------------------------------------------------
Si    core    Harmonic      Three-body cnst  1.2614000    eV*rad^-2 0.000  1.900
õ(1   shel                  Three-body angl  109.47000    degrees   0.000  1.900
õ(1   shel                  Three-body k4    0.0000000    eV*rad^-4 0.000  3.500
                            Three-body k3    0.0000000    eV*rad^-3 
--------------------------------------------------------------------------------
Si    core    Harmonic      Three-body cnst  1.2614000    eV*rad^-2 0.000  1.900
O1    shel                  Three-body angl  109.47000    degrees   0.000  1.900
O2    shel                  Three-body k4    0.0000000    eV*rad^-4 0.000  3.500
                            Three-body k3    0.0000000    eV*rad^-3 
--------------------------------------------------------------------------------
Si    core    Harmonic      Three-body cnst  1.2614000    eV*rad^-2 0.000  1.900
O1    shel                  Three-body angl  109.47000    degrees   0.000  1.900
õ(2   shel                  Three-body k4    0.0000000    eV*rad^-4 0.000  3.500
                            Three-body k3    0.0000000    eV*rad^-3 
--------------------------------------------------------------------------------
Si    core    Harmonic      Three-body cnst  1.2614000    eV*rad^-2 0.000  1.900
O2    shel                  Three-body angl  109.47000    degrees   0.000  1.900
õ(1   shel                  Three-body k4    0.0000000    eV*rad^-4 0.000  3.500
                            Three-body k3    0.0000000    eV*rad^-3 
--------------------------------------------------------------------------------
Si    core    Harmonic      Three-body cnst  1.2614000    eV*rad^-2 0.000  1.900
õ(1   shel                  Three-body angl  109.47000    degrees   0.000  1.900
õ(2   shel                  Three-body k4    0.0000000    eV*rad^-4 0.000  3.500
                            Three-body k3    0.0000000    eV*rad^-3 
--------------------------------------------------------------------------------
Si    core    Harmonic      Three-body cnst  1.2614000    eV*rad^-2 0.000  1.900
O2    shel                  Three-body angl  109.47000    degrees   0.000  1.900
O2    shel                  Three-body k4    0.0000000    eV*rad^-4 0.000  3.500
                            Three-body k3    0.0000000    eV*rad^-3 
--------------------------------------------------------------------------------
Si    core    Harmonic      Three-body cnst  1.2614000    eV*rad^-2 0.000  1.900
O2    shel                  Three-body angl  109.47000    degrees   0.000  1.900
õ(2   shel                  Three-body k4    0.0000000    eV*rad^-4 0.000  3.500
                            Three-body k3    0.0000000    eV*rad^-3 
--------------------------------------------------------------------------------
Si    core    Harmonic      Three-body cnst  1.2614000    eV*rad^-2 0.000  1.900
õ(2   shel                  Three-body angl  109.47000    degrees   0.000  1.900
õ(2   shel                  Three-body k4    0.0000000    eV*rad^-4 0.000  3.500
                            Three-body k3    0.0000000    eV*rad^-3 
--------------------------------------------------------------------------------

********************************************************************************
*  Output for configuration   1 : c00026.vasp                                  *
********************************************************************************


  Components of energy : 

--------------------------------------------------------------------------------
  Interatomic potentials     =         392.29488358 eV    
  Three-body potentials      =           0.00006575 eV    
  Monopole - monopole (real) =       -1236.99964305 eV    
  Monopole - monopole (recip)=        -659.26603192 eV    
  Monopole - monopole (total)=       -1896.26567496 eV    
--------------------------------------------------------------------------------
  Total lattice energy       =       -1503.97072563 eV    
--------------------------------------------------------------------------------
  Total lattice energy       =         -145110.1847 kJ/(mole unit cells)
--------------------------------------------------------------------------------


  Number of variables =      183

  Maximum number of calculations  =          1000
  Maximum Hessian update interval =            10
  Maximum step size               =   0.100000000
  Maximum parameter tolerance     =   0.000010000
  Maximum function  tolerance     =   0.000010000
  Maximum gradient  tolerance     =   0.001000000
  Maximum gradient  component     =   0.010000000

  Symmetry not applied to optimisation

  Cell parameters to be optimised using strains

  Newton-Raphson optimiser to be used

  BFGS hessian update to be used

  Lower half triangular hessian to be used

  Minimiser to switch to RFO
  When gradient norm is less than     0.050000

  Dumpfile to be written after every cycle

  Start of bulk optimisation :

  Cycle:      0 Energy:     -1503.970726  Gnorm:      5.402492  CPU:    0.036
  ** Hessian calculated **
  Cycle:      1 Energy:     -1519.518096  Gnorm:      1.352112  CPU:    0.080
  ** Hessian calculated **
  Cycle:      2 Energy:     -1521.840818  Gnorm:      0.853176  CPU:    0.158
  ** Hessian calculated **
  Cycle:      3 Energy:     -1522.460169  Gnorm:      0.480366  CPU:    0.229
  Cycle:      4 Energy:     -1522.741505  Gnorm:      0.306400  CPU:    0.273
  Cycle:      5 Energy:     -1522.981539  Gnorm:      0.237852  CPU:    0.326
  Cycle:      6 Energy:     -1523.192613  Gnorm:      0.199260  CPU:    0.379
  Cycle:      7 Energy:     -1523.314039  Gnorm:      0.167137  CPU:    0.424
  Cycle:      8 Energy:     -1523.388628  Gnorm:      0.127798  CPU:    0.468
  Cycle:      9 Energy:     -1523.421929  Gnorm:      0.082543  CPU:    0.513
  Cycle:     10 Energy:     -1523.438503  Gnorm:      0.061645  CPU:    0.557
  Cycle:     11 Energy:     -1523.450410  Gnorm:      0.052229  CPU:    0.602
  Cycle:     12 Energy:     -1523.463126  Gnorm:      0.056258  CPU:    0.655
  ** Hessian calculated **
  Cycle:     13 Energy:     -1523.469907  Gnorm:      0.055716  CPU:    0.733
  Cycle:     14 Energy:     -1523.481684  Gnorm:      0.054752  CPU:    0.795
  Cycle:     15 Energy:     -1523.501891  Gnorm:      0.053014  CPU:    0.857
  Cycle:     16 Energy:     -1523.531774  Gnorm:      0.050252  CPU:    0.910
  Cycle:     17 Energy:     -1523.585560  Gnorm:      0.044843  CPU:    0.971
  ** Hessian has wrong structure
  ** Imaginary eigenvectors =   2
  Cycle:     18 Energy:     -1523.586191  Gnorm:      0.061833  CPU:    1.050
  ** Hessian has wrong structure
  ** Imaginary eigenvectors =   2
  ** Hessian has wrong structure
  ** Imaginary eigenvectors =   2
  Cycle:     19 Energy:     -1523.622189  Gnorm:      0.071274  CPU:    1.226
  ** Hessian has wrong structure
  ** Imaginary eigenvectors =   1
  ** Hessian has required structure
  Cycle:     20 Energy:     -1523.769248  Gnorm:      0.043399  CPU:    1.361
  ** Hessian has required structure
  Cycle:     21 Energy:     -1523.813615  Gnorm:      0.026201  CPU:    1.421
  ** Hessian has required structure
  Cycle:     22 Energy:     -1523.827677  Gnorm:      0.025770  CPU:    1.473
  ** Hessian has required structure
  Cycle:     23 Energy:     -1523.836457  Gnorm:      0.013567  CPU:    1.533
  ** Hessian has required structure
  Cycle:     24 Energy:     -1523.839338  Gnorm:      0.013482  CPU:    1.576
  ** Hessian has required structure
  Cycle:     25 Energy:     -1523.841989  Gnorm:      0.011454  CPU:    1.627
  ** Hessian has required structure
  Cycle:     26 Energy:     -1523.843686  Gnorm:      0.008171  CPU:    1.686
  ** Hessian has required structure
  Cycle:     27 Energy:     -1523.845438  Gnorm:      0.008711  CPU:    1.746
  ** Hessian has required structure
  Cycle:     28 Energy:     -1523.848179  Gnorm:      0.007463  CPU:    1.806
  ** Hessian has required structure
  Cycle:     29 Energy:     -1523.851318  Gnorm:      0.015361  CPU:    1.866
  ** Hessian has wrong structure
  ** Imaginary eigenvectors =   1
  Cycle:     30 Energy:     -1523.859862  Gnorm:      0.028245  CPU:    1.994
  ** Hessian has required structure
  Cycle:     31 Energy:     -1523.874285  Gnorm:      0.021159  CPU:    2.079
  ** Hessian has required structure
  Cycle:     32 Energy:     -1523.881958  Gnorm:      0.015153  CPU:    2.139
  ** Hessian has required structure
  Cycle:     33 Energy:     -1523.886076  Gnorm:      0.006284  CPU:    2.199
  ** Hessian has required structure
  Cycle:     34 Energy:     -1523.887265  Gnorm:      0.009613  CPU:    2.250
  ** Hessian has required structure
  Cycle:     35 Energy:     -1523.888123  Gnorm:      0.004277  CPU:    2.301
  ** Hessian has required structure
  Cycle:     36 Energy:     -1523.888276  Gnorm:      0.002589  CPU:    2.353
  ** Hessian has required structure
  Cycle:     37 Energy:     -1523.888349  Gnorm:      0.001513  CPU:    2.405
  ** Hessian has required structure
  Cycle:     38 Energy:     -1523.888381  Gnorm:      0.000644  CPU:    2.466
  ** Hessian has required structure
  Cycle:     39 Energy:     -1523.888387  Gnorm:      0.000386  CPU:    2.514
  ** Hessian has required structure
  Cycle:     40 Energy:     -1523.888389  Gnorm:      0.000282  CPU:    2.553
  ** Hessian has required structure
  Cycle:     41 Energy:     -1523.888390  Gnorm:      0.000225  CPU:    2.618
  ** Hessian has required structure
  Cycle:     42 Energy:     -1523.888391  Gnorm:      0.000175  CPU:    2.659
  ** Hessian has required structure


  **** Optimisation achieved ****


  Final energy =   -1523.88839124 eV      
  Final Gnorm  =       0.00013209

  Components of energy : 

--------------------------------------------------------------------------------
  Interatomic potentials     =         404.78906660 eV    
  Three-body potentials      =           0.05788234 eV    
  Monopole - monopole (real) =        -886.33180671 eV    
  Monopole - monopole (recip)=       -1042.40353347 eV    
  Monopole - monopole (total)=       -1928.73534018 eV    
--------------------------------------------------------------------------------
  Total lattice energy       =       -1523.88839124 eV    
--------------------------------------------------------------------------------
  Total lattice energy       =         -147031.9350 kJ/(mole unit cells)
--------------------------------------------------------------------------------

  Final fractional coordinates of atoms :

--------------------------------------------------------------------------------
   No.  Atomic        x           y          z          Radius
        Label       (Frac)      (Frac)     (Frac)       (Angs) 
--------------------------------------------------------------------------------
     1  Ge    c     0.313820    0.296860    0.309830    0.000000
     2  Ge    c     0.687673    0.300893    0.388033    0.000000
     3  Ge    c     0.143218    0.972098    0.678481    0.000000
     4  Si    c     0.711354    0.273939    0.703713    0.000000
     5  Si    c     0.711822    0.673344    0.710878    0.000000
     6  Si    c     0.322112    0.699293    0.325309    0.000000
     7  Si    c     0.353806    0.272504    0.624697    0.000000
     8  Si    c     0.685210    0.697488    0.403530    0.000000
     9  Si    c     0.353532    0.676675    0.629828    0.000000
    10  Si    c     0.894918    0.995976    0.371091    0.000000
    11  Si    c     0.098695    0.992584    0.177370    0.000000
    12  Si    c     0.927758    0.968819    0.864225    0.000000
    13  O3    c     0.316203    0.219259    0.468941    0.000000
    14  O3    c     0.715289    0.235992    0.555133    0.000000
    15  O2    c     0.722955    0.729633    0.563993    0.000000
    16  O2    c     0.315924    0.748872    0.474000    0.000000
    17  O3    c     0.252226    0.510960    0.285562    0.000000
    18  O2    c     0.763570    0.472208    0.743809    0.000000
    19  O1    c     0.495488    0.276954    0.296540    0.000000
    20  O2    c     0.536782    0.245356    0.705786    0.000000
    21  O2    c     0.536736    0.698768    0.711496    0.000000
    22  O2    c     0.500133    0.693218    0.328996    0.000000
    23  O3    c     0.178538    0.178726    0.189093    0.000000
    24  O2    c     0.826605    0.142841    0.811482    0.000000
    25  O2    c     0.825888    0.795234    0.820907    0.000000
    26  O2    c     0.234325    0.846872    0.215923    0.000000
    27  O2    c     0.308256    0.474304    0.627290    0.000000
    28  O3    c     0.749411    0.512749    0.382564    0.000000
    29  O3    c     0.256805    0.155437    0.695359    0.000000
    30  O3    c     0.810237    0.180063    0.330466    0.000000
    31  O2    c     0.759844    0.850070    0.337984    0.000000
    32  O3    c     0.254128    0.785612    0.698080    0.000000
    33  O3    c     0.990167    0.980828    0.530298    0.000000
    34  O2    c     0.004571    0.965209    0.282404    0.000000
    35  O3    c     0.075229    0.967480    0.814580    0.000000
    36  O2    c     0.982543    0.966496    0.027059    0.000000
    37  O3    s     0.319575    0.230391    0.471508    0.000000
    38  O3    s     0.712665    0.245079    0.556823    0.000000
    39  O2    s     0.717759    0.720214    0.562863    0.000000
    40  O2    s     0.320399    0.736522    0.474739    0.000000
    41  O3    s     0.264202    0.513024    0.291489    0.000000
    42  O2    s     0.752718    0.472944    0.736202    0.000000
    43  O1    s     0.496540    0.280325    0.304644    0.000000
    44  O2    s     0.536057    0.251353    0.697025    0.000000
    45  O2    s     0.536172    0.693656    0.702815    0.000000
    46  O2    s     0.501042    0.694199    0.336743    0.000000
    47  O3    s     0.181607    0.169633    0.197813    0.000000
    48  O2    s     0.824537    0.138763    0.804958    0.000000
    49  O2    s     0.823809    0.799996    0.812954    0.000000
    50  O2    s     0.229812    0.845780    0.224072    0.000000
    51  O2    s     0.317925    0.474807    0.627300    0.000000
    52  O3    s     0.737992    0.514619    0.385098    0.000000
    53  O3    s     0.257711    0.152753    0.686509    0.000000
    54  O3    s     0.808626    0.171628    0.339205    0.000000
    55  O2    s     0.765523    0.848159    0.348804    0.000000
    56  O3    s     0.255758    0.789046    0.689209    0.000000
    57  O3    s     0.993880    0.981619    0.527009    0.000000
    58  O2    s     0.002365    0.971810    0.281084    0.000000
    59  O3    s     0.065650    0.968018    0.808337    0.000000
    60  O2    s     0.989813    0.969831    0.026051    0.000000
--------------------------------------------------------------------------------

  Final Cartesian lattice vectors (Angstroms) :

        9.107215   -0.031029   -0.048614
       -0.025577    7.704818    0.118026
       -3.354161    0.164037    9.821781


  Final cell parameters and derivatives :

--------------------------------------------------------------------------------
       a            9.107398 Angstrom     dE/de1(xx)     0.001533 eV/strain
       b            7.705765 Angstrom     dE/de2(yy)     0.001728 eV/strain
       c           10.380014 Angstrom     dE/de3(zz)     0.004476 eV/strain
       alpha       88.202523 Degrees      dE/de4(yz)     0.000464 eV/strain
       beta       109.161663 Degrees      dE/de5(xz)    -0.001127 eV/strain
       gamma       90.390047 Degrees      dE/de6(xy)     0.000997 eV/strain
--------------------------------------------------------------------------------

  Primitive cell volume =           687.760848 Angs**3

  Density of cell =      2.063487 g/cm**3

  Non-primitive cell volume =           687.760848 Angs**3


  Final internal derivatives :

--------------------------------------------------------------------------------
   No.  Atomic          a             b             c           Radius
        Label          (eV)          (eV)          (eV)        (eV/Angs)
--------------------------------------------------------------------------------
      1 Ge    c       0.000000      0.000000      0.000000      0.000000
      2 Ge    c      -0.000103     -0.000346     -0.007088      0.000000
      3 Ge    c      -0.001407     -0.000509      0.000270      0.000000
      4 Si    c      -0.001400     -0.000813      0.007492      0.000000
      5 Si    c      -0.000945      0.000365      0.000518      0.000000
      6 Si    c       0.001599      0.000198     -0.000168      0.000000
      7 Si    c       0.001022      0.001793     -0.002804      0.000000
      8 Si    c      -0.003371      0.000505     -0.001418      0.000000
      9 Si    c      -0.000438     -0.000385     -0.000192      0.000000
     10 Si    c      -0.001233      0.001061      0.001470      0.000000
     11 Si    c      -0.001293     -0.000659      0.000030      0.000000
     12 Si    c       0.000333      0.000297     -0.001564      0.000000
     13 O3    c       0.000648      0.000108     -0.001478      0.000000
     14 O3    c       0.007924     -0.003954     -0.003706      0.000000
     15 O2    c       0.001125     -0.000158     -0.000388      0.000000
     16 O2    c      -0.000003     -0.000404     -0.000205      0.000000
     17 O3    c       0.000937     -0.005947      0.000553      0.000000
     18 O2    c       0.000789      0.003589      0.001538      0.000000
     19 O1    c       0.001078      0.000171     -0.001696      0.000000
     20 O2    c      -0.007062     -0.000811      0.003171      0.000000
     21 O2    c       0.001608     -0.000111      0.000135      0.000000
     22 O2    c       0.004165     -0.000842      0.001413      0.000000
     23 O3    c      -0.000287     -0.000424     -0.001409      0.000000
     24 O2    c      -0.000642      0.000270     -0.000090      0.000000
     25 O2    c       0.000172     -0.000150     -0.000010      0.000000
     26 O2    c       0.000742     -0.000325      0.000026      0.000000
     27 O2    c       0.000381     -0.000893     -0.000237      0.000000
     28 O3    c       0.000509      0.003713      0.000378      0.000000
     29 O3    c      -0.001586     -0.000847      0.002979      0.000000
     30 O3    c       0.000491     -0.001781      0.001145      0.000000
     31 O2    c       0.000553     -0.000234      0.000727      0.000000
     32 O3    c       0.001013     -0.001208     -0.000308      0.000000
     33 O3    c      -0.000587      0.000154     -0.003297      0.000000
     34 O2    c       0.000103      0.000245     -0.000254      0.000000
     35 O3    c      -0.001938     -0.000094      0.001101      0.000000
     36 O2    c       0.000796      0.000199      0.001556      0.000000
     37 O3    s       0.002528      0.000751     -0.000542      0.000000
     38 O3    s       0.000708     -0.000953     -0.002358      0.000000
     39 O2    s      -0.001583      0.001021     -0.001606      0.000000
     40 O2    s       0.000408      0.000725      0.000075      0.000000
     41 O3    s      -0.000500      0.002605     -0.000020      0.000000
     42 O2    s       0.001324      0.002043      0.003759      0.000000
     43 O1    s      -0.003220     -0.001056     -0.000059      0.000000
     44 O2    s      -0.003401     -0.001347      0.001986      0.000000
     45 O2    s      -0.000785      0.000592     -0.000084      0.000000
     46 O2    s      -0.000024     -0.000416      0.000659      0.000000
     47 O3    s      -0.000139      0.000773      0.000299      0.000000
     48 O2    s       0.002181     -0.000907      0.001952      0.000000
     49 O2    s      -0.000169     -0.000250      0.000832      0.000000
     50 O2    s      -0.000507     -0.000073     -0.000313      0.000000
     51 O2    s      -0.000505     -0.000146     -0.000205      0.000000
     52 O3    s       0.000349      0.001335     -0.002628      0.000000
     53 O3    s       0.000648      0.000927     -0.000077      0.000000
     54 O3    s       0.001614     -0.000471     -0.001977      0.000000
     55 O2    s      -0.000579     -0.000303     -0.000368      0.000000
     56 O3    s      -0.000558      0.000303     -0.000057      0.000000
     57 O3    s      -0.000226     -0.000596      0.000335      0.000000
     58 O2    s      -0.001070      0.000236      0.000447      0.000000
     59 O3    s       0.000964      0.000165     -0.000168      0.000000
     60 O2    s       0.000194     -0.000184      0.000007      0.000000
--------------------------------------------------------------------------------
  Maximum abs         0.007924      0.005947      0.007492      0.000000
--------------------------------------------------------------------------------


  Born effective charge tensors : 

-------------------------------------------------------------------------------
  Atom             x           y             z
-------------------------------------------------------------------------------
    1 Ge    x       3.8933      0.3169      0.1853
            y       0.1783      4.1905      0.4041
            z       0.2633      0.1620      3.5291
-------------------------------------------------------------------------------
    2 Ge    x       4.0793     -0.3373      0.0502
            y      -0.3056      4.1648      0.1987
            z       0.0411     -0.0222      3.3458
-------------------------------------------------------------------------------
    3 Ge    x       4.5347     -0.0345     -0.1870
            y      -0.0076      3.9710      0.0201
            z      -0.2781      0.0180      3.6548
-------------------------------------------------------------------------------
    4 Si    x       3.1699     -0.2784      0.0164
            y      -0.2089      3.5421     -0.1413
            z       0.1253     -0.0987      3.1662
-------------------------------------------------------------------------------
    5 Si    x       3.0878      0.2261      0.1477
            y       0.1653      3.4207      0.2346
            z       0.2086      0.1440      2.8842
-------------------------------------------------------------------------------
    6 Si    x       3.1469     -0.2769      0.2338
            y       0.0667      3.7129     -0.1350
            z       0.2087     -0.0792      2.9527
-------------------------------------------------------------------------------
    7 Si    x       3.5695      0.4338     -0.1520
            y       0.4060      3.6428     -0.1916
            z      -0.1155      0.0359      3.0910
-------------------------------------------------------------------------------
    8 Si    x       3.3345      0.2676     -0.0703
            y      -0.0194      3.6759     -0.0423
            z      -0.0195      0.0963      2.7625
-------------------------------------------------------------------------------
    9 Si    x       3.5727     -0.4284     -0.1484
            y      -0.4329      3.5190      0.2926
            z      -0.1022      0.0389      2.8038
-------------------------------------------------------------------------------
   10 Si    x       3.8168     -0.2932      0.2211
            y      -0.0255      3.5568     -0.1145
            z      -0.3426     -0.0292      3.2761
-------------------------------------------------------------------------------
   11 Si    x       3.3205      0.2607     -0.0810
            y       0.0448      3.5061     -0.0000
            z       0.4218      0.1738      3.9097
-------------------------------------------------------------------------------
   12 Si    x       3.6460     -0.0042      0.0632
            y      -0.0026      3.3395      0.0255
            z      -0.1509      0.0597      3.9991
-------------------------------------------------------------------------------
   13 O3    x      -1.3460     -0.1380      0.2044
            y      -0.0917     -1.4952     -0.1290
            z       0.2363     -0.0686     -2.5332
-------------------------------------------------------------------------------
   14 O3    x      -1.4281      0.1324      0.4635
            y       0.1149     -1.4497     -0.0111
            z       0.3916      0.0324     -2.5355
-------------------------------------------------------------------------------
   15 O2    x      -1.2616     -0.1420      0.2544
            y      -0.1008     -1.2589      0.0360
            z       0.2280      0.0341     -2.0140
-------------------------------------------------------------------------------
   16 O2    x      -1.2564      0.1205      0.1919
            y       0.0799     -1.3047      0.0897
            z       0.1937      0.1041     -1.9779
-------------------------------------------------------------------------------
   17 O3    x      -1.3098     -0.1320     -0.1266
            y      -0.1046     -3.1284     -0.1789
            z      -0.1426     -0.1786     -1.2459
-------------------------------------------------------------------------------
   18 O2    x      -1.1430      0.0112     -0.0647
            y       0.0108     -2.5745     -0.0277
            z      -0.0955     -0.0030     -1.0980
-------------------------------------------------------------------------------
   19 O1    x      -3.0462     -0.0070     -0.4074
            y       0.0068     -1.4432     -0.1131
            z      -0.4539     -0.0598     -1.4467
-------------------------------------------------------------------------------
   20 O2    x      -2.2908      0.0028     -0.3229
            y      -0.0072     -1.2657      0.0649
            z      -0.3237      0.0417     -1.1480
-------------------------------------------------------------------------------
   21 O2    x      -2.3041      0.0043     -0.3274
            y       0.0064     -1.2232     -0.0770
            z      -0.3310     -0.0381     -1.1693
-------------------------------------------------------------------------------
   22 O2    x      -2.3567      0.0040     -0.3134
            y       0.0008     -1.2280      0.0404
            z      -0.3364      0.0085     -1.1635
-------------------------------------------------------------------------------
   23 O3    x      -1.6755     -0.7948     -0.3765
            y      -0.7694     -2.5427     -0.5969
            z      -0.4740     -0.5981     -1.7551
-------------------------------------------------------------------------------
   24 O2    x      -1.4403      0.5851     -0.3778
            y       0.5513     -2.0415      0.5584
            z      -0.3721      0.5680     -1.5682
-------------------------------------------------------------------------------
   25 O2    x      -1.4267     -0.5737     -0.3933
            y      -0.5409     -2.0038     -0.5798
            z      -0.3818     -0.5942     -1.6117
-------------------------------------------------------------------------------
   26 O2    x      -1.5336      0.5683     -0.3449
            y       0.5473     -1.8653      0.5147
            z      -0.3811      0.4770     -1.5646
-------------------------------------------------------------------------------
   27 O2    x      -1.2602     -0.0111      0.0061
            y       0.0037     -2.5029     -0.0183
            z       0.0213     -0.0083     -1.0118
-------------------------------------------------------------------------------
   28 O3    x      -1.4637      0.2052      0.0660
            y       0.1693     -3.0663     -0.1478
            z       0.0739     -0.1228     -1.1259
-------------------------------------------------------------------------------
   29 O3    x      -2.3318     -1.0799      0.3300
            y      -1.0303     -2.3436      0.2775
            z       0.3025      0.2160     -1.2764
-------------------------------------------------------------------------------
   30 O3    x      -2.1025      0.9664      0.1025
            y       0.9293     -2.5304     -0.0277
            z       0.2094     -0.0401     -1.2311
-------------------------------------------------------------------------------
   31 O2    x      -1.8661     -0.7312      0.1140
            y      -0.7127     -1.8944      0.1358
            z       0.1602      0.1024     -1.1275
-------------------------------------------------------------------------------
   32 O3    x      -2.3582      1.0882      0.3738
            y       1.0303     -2.3104     -0.2996
            z       0.3582     -0.2544     -1.3059
-------------------------------------------------------------------------------
   33 O3    x      -1.7799      0.0340     -0.7197
            y      -0.0140     -1.2737      0.0297
            z      -0.4326      0.0495     -2.5953
-------------------------------------------------------------------------------
   34 O2    x      -2.1643      0.0488      0.7121
            y       0.0407     -1.1473     -0.0065
            z       0.7071     -0.0294     -1.7292
-------------------------------------------------------------------------------
   35 O3    x      -2.8570      0.0135      0.9413
            y       0.0242     -1.2383     -0.0161
            z       0.9347     -0.0176     -2.0481
-------------------------------------------------------------------------------
   36 O2    x      -1.1693     -0.0273     -0.2644
            y      -0.0026     -1.1100     -0.0687
            z      -0.3523     -0.1202     -3.0920
-------------------------------------------------------------------------------




  Elastic Constant Matrix: (Units=GPa)

-------------------------------------------------------------------------------
  Indices      1         2         3         4         5         6    
-------------------------------------------------------------------------------
       1     59.5815   44.2096   19.5764    5.4961    2.1669   -1.1970
       2     44.2096   94.9733   27.4536    7.0788    8.3616    1.3869
       3     19.5764   27.4536   39.6254    4.4402   13.5493    5.1321
       4      5.4961    7.0788    4.4402   14.7692    2.3783    6.2642
       5      2.1669    8.3616   13.5493    2.3783   14.0804    4.8267
       6     -1.1970    1.3869    5.1321    6.2642    4.8267   17.1133
-------------------------------------------------------------------------------


  Elastic Compliance Matrix: (Units=1/GPa)

-------------------------------------------------------------------------------
  Indices      1         2         3         4         5         6    
-------------------------------------------------------------------------------
       1    0.028554 -0.010892 -0.010421 -0.006265  0.011419  0.005078
       2   -0.010892  0.017705 -0.005557 -0.002831 -0.003527  0.001501
       3   -0.010421 -0.005557  0.048593 -0.000099 -0.040696 -0.003337
       4   -0.006265 -0.002831 -0.000099  0.084691 -0.000970 -0.030906
       5    0.011419 -0.003527 -0.040696 -0.000970  0.117352 -0.019454
       6    0.005078  0.001501 -0.003337 -0.030906 -0.019454  0.076468
-------------------------------------------------------------------------------

  Mechanical properties :

-------------------------------------------------------------------------------
  Convention :                    Reuss         Voigt         Hill
-------------------------------------------------------------------------------
  Bulk  Modulus (GPa)     =      24.32285      41.85104      33.08695
  Shear Modulus (GPa)     =      11.34280      16.05529      13.69905
-------------------------------------------------------------------------------
  Velocity S-wave (km/s)  =       2.34455       2.78938       2.57658
  Velocity P-wave (km/s)  =       4.37224       5.53678       4.98861
-------------------------------------------------------------------------------
  Compressibility (1/GPa) =    0.04111361
-------------------------------------------------------------------------------
  Stress axis :                     x             y             z
-------------------------------------------------------------------------------
  Youngs Moduli (GPa)     =      35.02114      56.48004      20.57896
-------------------------------------------------------------------------------
  Poissons Ratio (x)      =                     0.61519       0.21445
  Poissons Ratio (y)      =       0.38145                     0.11435
  Poissons Ratio (z)      =       0.36495       0.31385
-------------------------------------------------------------------------------


  Piezoelectric Strain Matrix: (Units=C/m**2)

-------------------------------------------------------------------------------
  Indices      1         2         3         4         5         6    
-------------------------------------------------------------------------------
       x     0.02131   0.31534  -1.34987  -0.03022   0.08661  -0.63747
       y    -2.03057  -0.37315  -0.33739   0.06394  -0.45347   0.31368
       z     0.67971   0.45570   0.87417  -0.61948  -0.59579  -0.40745
-------------------------------------------------------------------------------


  Piezoelectric Stress Matrix: (Units=10**-11 C/N)

-------------------------------------------------------------------------------
  Indices      1         2         3         4         5         6    
-------------------------------------------------------------------------------
       x     0.91822   1.16754  -6.89638   1.61663   7.66607  -4.44114
       y    -5.43869   1.92743   2.42400   0.99713  -6.75205   2.10879
       z     0.03442  -0.09492   5.85311  -4.49284  -9.08112   0.07974
-------------------------------------------------------------------------------


  Static dielectric constant tensor : 

-------------------------------------------------------------------------------
              x         y         z
-------------------------------------------------------------------------------
       x     4.41129  -0.10605   0.04994
       y    -0.10605   4.53907   0.07826
       z     0.04994   0.07826   3.32297
--------------------------------------------------------------------------------

  High frequency dielectric constant tensor : 

-------------------------------------------------------------------------------
              x         y         z
-------------------------------------------------------------------------------
       x     1.63731  -0.00087   0.00794
       y    -0.00087   1.65080   0.00272
       z     0.00794   0.00272   1.59304
-------------------------------------------------------------------------------

  Static refractive indices : 

-------------------------------------------------------------------------------
    1 =    1.82072      2 =    2.08754      3 =    2.14488
-------------------------------------------------------------------------------

  High frequency refractive indices : 

-------------------------------------------------------------------------------
    1 =    1.26155      2 =    1.28011      3 =    1.28489
-------------------------------------------------------------------------------


  Time to end of optimisation =       2.7518 seconds


  Peak dynamic memory used =       2.76 MB 


  Timing analysis for GULP :

--------------------------------------------------------------------------------
  Task / Subroutine                                          Time (Seconds)
--------------------------------------------------------------------------------
  Calculation of reciprocal space energy and derivatives          0.1535
  Calculation of real space energy and derivatives                2.3064
  Calculation of three-body energy and derivatives                0.0710
  Calculation and manipulation of Hessian matrix                  0.3926
  Calculation of matrix inversion                                 0.0032
  Global summation overhead                                       0.0001
--------------------------------------------------------------------------------
  Total CPU time                                                  2.7518
--------------------------------------------------------------------------------


  Dump file written as c00026.vasp.grs
  CIF file written as c00026.vasp.cif


  Job Finished at 21:27.30  6th October    2025                               

