********************************************************************************
*                       GENERAL UTILITY LATTICE PROGRAM                        *
*                                 Julian Gale                                  *
*                       Curtin Institute for Computation                       *
*                    School of Molecular and Life Sciences                     *
*                    Curtin University, Western Australia                      *
********************************************************************************
* Version = 6.1.2 * Last modified =   3rd November 2022                        *
********************************************************************************
*  optimise     - perform optimisation run                                     *
*  conp         - constant pressure calculation                                *
*  property     - calculate properties for final geometry                      *
********************************************************************************

  Job Started  at 11:28.37  7th October    2025                               

  Number of CPUs =     1


  Total number of configurations input =      1

********************************************************************************
*  Input for Configuration =   1 : c00016.vasp                                 *
********************************************************************************

  Formula = Ge3Si21O48                                                  

  Number of irreducible atoms/shells =     120


  Total number atoms/shells =     120

  Dimensionality = 3               :  Bulk   



  Cartesian lattice vectors (Angstroms) :

       17.182800    0.000000    0.000000
        0.000000    7.513760    0.000000
        0.000000    0.000000   10.447700

  Cell parameters (Angstroms/Degrees):

  a =      17.1828    alpha =  90.0000
  b =       7.5138    beta  =  90.0000
  c =      10.4477    gamma =  90.0000

  Initial cell volume =        1348.875752 Angs**3

  Temperature of configuration =   0.00     K 

  Pressure of configuration =         0.000 GPa 

  Fractional coordinates of asymmetric unit :

--------------------------------------------------------------------------------
   No.  Atomic       x           y          z         Charge      Occupancy
        Label      (Frac)      (Frac)     (Frac)        (e)         (Frac)  
--------------------------------------------------------------------------------
      1 Ge    c    0.052090    0.000000    0.372270     4.00000    1.000000    
      2 Ge    c    0.552090 *  0.000000 *  0.627730 *   4.00000    1.000000    
      3 Ge    c    0.160190 *  0.293910 *  0.273440 *   4.00000    1.000000    
      4 Si    c    0.447910 *  0.000000 *  0.372270 *   4.00000    1.000000    
      5 Si    c    0.947910 *  0.000000 *  0.627730 *   4.00000    1.000000    
      6 Si    c    0.556730 *  0.000000 *  0.122130 *   4.00000    1.000000    
      7 Si    c    0.943270 *  0.000000 *  0.122130 *   4.00000    1.000000    
      8 Si    c    0.443270 *  0.000000 *  0.877870 *   4.00000    1.000000    
      9 Si    c    0.056730 *  0.000000 *  0.877870 *   4.00000    1.000000    
     10 Si    c    0.339810 *  0.706090 *  0.273440 *   4.00000    1.000000    
     11 Si    c    0.839810 *  0.293910 *  0.726560 *   4.00000    1.000000    
     12 Si    c    0.660190 *  0.706090 *  0.726560 *   4.00000    1.000000    
     13 Si    c    0.839810 *  0.706090 *  0.726560 *   4.00000    1.000000    
     14 Si    c    0.660190 *  0.293910 *  0.726560 *   4.00000    1.000000    
     15 Si    c    0.160190 *  0.706090 *  0.273440 *   4.00000    1.000000    
     16 Si    c    0.339810 *  0.293910 *  0.273440 *   4.00000    1.000000    
     17 Si    c    0.660660 *  0.294090 *  0.017440 *   4.00000    1.000000    
     18 Si    c    0.839340 *  0.705910 *  0.017440 *   4.00000    1.000000    
     19 Si    c    0.339340 *  0.294090 *  0.982560 *   4.00000    1.000000    
     20 Si    c    0.160660 *  0.705910 *  0.982560 *   4.00000    1.000000    
     21 Si    c    0.339340 *  0.705910 *  0.982560 *   4.00000    1.000000    
     22 Si    c    0.160660 *  0.294090 *  0.982560 *   4.00000    1.000000    
     23 Si    c    0.660660 *  0.705910 *  0.017440 *   4.00000    1.000000    
     24 Si    c    0.839340 *  0.294090 *  0.017440 *   4.00000    1.000000    
     25 O1    c    0.106570 *  0.174340 *  0.366200 *   1.73396    1.000000    
     26 O2    c    0.393430 *  0.825660 *  0.366200 *   0.87073    1.000000    
     27 O2    c    0.893430 *  0.174340 *  0.633800 *   0.87073    1.000000    
     28 O3    c    0.606570 *  0.825660 *  0.633800 *   1.33043    1.000000    
     29 O2    c    0.893430 *  0.825660 *  0.633800 *   0.87073    1.000000    
     30 O3    c    0.606570 *  0.174340 *  0.633800 *   1.33043    1.000000    
     31 O3    c    0.106570 *  0.825660 *  0.366200 *   1.33043    1.000000    
     32 O2    c    0.393430 *  0.174340 *  0.366200 *   0.87073    1.000000    
     33 O3    c    0.000000 *  0.000000 *  0.500000 *   1.33043    1.000000    
     34 O3    c    0.500000 *  0.000000 *  0.500000 *   1.33043    1.000000    
     35 O3    c    0.994520 *  0.000000 *  0.250840 *   1.33043    1.000000    
     36 O2    c    0.505480 *  0.000000 *  0.250840 *   0.87073    1.000000    
     37 O2    c    0.005480 *  0.000000 *  0.749160 *   0.87073    1.000000    
     38 O3    c    0.494520 *  0.000000 *  0.749160 *   1.33043    1.000000    
     39 O2    c    0.610230 *  0.175520 *  0.115390 *   0.87073    1.000000    
     40 O2    c    0.889770 *  0.824480 *  0.115390 *   0.87073    1.000000    
     41 O2    c    0.389770 *  0.175520 *  0.884610 *   0.87073    1.000000    
     42 O2    c    0.110230 *  0.824480 *  0.884610 *   0.87073    1.000000    
     43 O2    c    0.389770 *  0.824480 *  0.884610 *   0.87073    1.000000    
     44 O2    c    0.110230 *  0.175520 *  0.884610 *   0.87073    1.000000    
     45 O2    c    0.610230 *  0.824480 *  0.115390 *   0.87073    1.000000    
     46 O2    c    0.889770 *  0.175520 *  0.115390 *   0.87073    1.000000    
     47 O2    c    0.500000 *  0.000000 *  0.000000 *   0.87073    1.000000    
     48 O2    c    0.000000 *  0.000000 *  0.000000 *   0.87073    1.000000    
     49 O3    c    0.151750 *  0.500000 *  0.313330 *   1.33043    1.000000    
     50 O2    c    0.348250 *  0.500000 *  0.313330 *   0.87073    1.000000    
     51 O2    c    0.848250 *  0.500000 *  0.686670 *   0.87073    1.000000    
     52 O2    c    0.651750 *  0.500000 *  0.686670 *   0.87073    1.000000    
     53 O3    c    0.250000 *  0.234950 *  0.285720 *   1.33043    1.000000    
     54 O2    c    0.250000 *  0.765050 *  0.285720 *   0.87073    1.000000    
     55 O2    c    0.750000 *  0.234950 *  0.714280 *   0.87073    1.000000    
     56 O2    c    0.750000 *  0.765050 *  0.714280 *   0.87073    1.000000    
     57 O3    c    0.131410 *  0.268650 *  0.127790 *   1.33043    1.000000    
     58 O2    c    0.368590 *  0.731350 *  0.127790 *   0.87073    1.000000    
     59 O2    c    0.868590 *  0.268650 *  0.872210 *   0.87073    1.000000    
     60 O2    c    0.631410 *  0.731350 *  0.872210 *   0.87073    1.000000    
     61 O2    c    0.868590 *  0.731350 *  0.872210 *   0.87073    1.000000    
     62 O2    c    0.631410 *  0.268650 *  0.872210 *   0.87073    1.000000    
     63 O2    c    0.131410 *  0.731350 *  0.127790 *   0.87073    1.000000    
     64 O2    c    0.368590 *  0.268650 *  0.127790 *   0.87073    1.000000    
     65 O2    c    0.653920 *  0.500000 *  0.058200 *   0.87073    1.000000    
     66 O2    c    0.846080 *  0.500000 *  0.058200 *   0.87073    1.000000    
     67 O2    c    0.346080 *  0.500000 *  0.941800 *   0.87073    1.000000    
     68 O2    c    0.153920 *  0.500000 *  0.941800 *   0.87073    1.000000    
     69 O2    c    0.750000 *  0.231060 *  0.027050 *   0.87073    1.000000    
     70 O2    c    0.750000 *  0.768940 *  0.027050 *   0.87073    1.000000    
     71 O2    c    0.250000 *  0.231060 *  0.972950 *   0.87073    1.000000    
     72 O2    c    0.250000 *  0.768940 *  0.972950 *   0.87073    1.000000    
     73 O1    s    0.106570 *  0.174340 *  0.366200 *  -3.73396    1.000000    
     74 O2    s    0.393430 *  0.825660 *  0.366200 *  -2.87073    1.000000    
     75 O2    s    0.893430 *  0.174340 *  0.633800 *  -2.87073    1.000000    
     76 O3    s    0.606570 *  0.825660 *  0.633800 *  -3.33043    1.000000    
     77 O2    s    0.893430 *  0.825660 *  0.633800 *  -2.87073    1.000000    
     78 O3    s    0.606570 *  0.174340 *  0.633800 *  -3.33043    1.000000    
     79 O3    s    0.106570 *  0.825660 *  0.366200 *  -3.33043    1.000000    
     80 O2    s    0.393430 *  0.174340 *  0.366200 *  -2.87073    1.000000    
     81 O3    s    0.000000 *  0.000000 *  0.500000 *  -3.33043    1.000000    
     82 O3    s    0.500000 *  0.000000 *  0.500000 *  -3.33043    1.000000    
     83 O3    s    0.994520 *  0.000000 *  0.250840 *  -3.33043    1.000000    
     84 O2    s    0.505480 *  0.000000 *  0.250840 *  -2.87073    1.000000    
     85 O2    s    0.005480 *  0.000000 *  0.749160 *  -2.87073    1.000000    
     86 O3    s    0.494520 *  0.000000 *  0.749160 *  -3.33043    1.000000    
     87 O2    s    0.610230 *  0.175520 *  0.115390 *  -2.87073    1.000000    
     88 O2    s    0.889770 *  0.824480 *  0.115390 *  -2.87073    1.000000    
     89 O2    s    0.389770 *  0.175520 *  0.884610 *  -2.87073    1.000000    
     90 O2    s    0.110230 *  0.824480 *  0.884610 *  -2.87073    1.000000    
     91 O2    s    0.389770 *  0.824480 *  0.884610 *  -2.87073    1.000000    
     92 O2    s    0.110230 *  0.175520 *  0.884610 *  -2.87073    1.000000    
     93 O2    s    0.610230 *  0.824480 *  0.115390 *  -2.87073    1.000000    
     94 O2    s    0.889770 *  0.175520 *  0.115390 *  -2.87073    1.000000    
     95 O2    s    0.500000 *  0.000000 *  0.000000 *  -2.87073    1.000000    
     96 O2    s    0.000000 *  0.000000 *  0.000000 *  -2.87073    1.000000    
     97 O3    s    0.151750 *  0.500000 *  0.313330 *  -3.33043    1.000000    
     98 O2    s    0.348250 *  0.500000 *  0.313330 *  -2.87073    1.000000    
     99 O2    s    0.848250 *  0.500000 *  0.686670 *  -2.87073    1.000000    
    100 O2    s    0.651750 *  0.500000 *  0.686670 *  -2.87073    1.000000    
    101 O3    s    0.250000 *  0.234950 *  0.285720 *  -3.33043    1.000000    
    102 O2    s    0.250000 *  0.765050 *  0.285720 *  -2.87073    1.000000    
    103 O2    s    0.750000 *  0.234950 *  0.714280 *  -2.87073    1.000000    
    104 O2    s    0.750000 *  0.765050 *  0.714280 *  -2.87073    1.000000    
    105 O3    s    0.131410 *  0.268650 *  0.127790 *  -3.33043    1.000000    
    106 O2    s    0.368590 *  0.731350 *  0.127790 *  -2.87073    1.000000    
    107 O2    s    0.868590 *  0.268650 *  0.872210 *  -2.87073    1.000000    
    108 O2    s    0.631410 *  0.731350 *  0.872210 *  -2.87073    1.000000    
    109 O2    s    0.868590 *  0.731350 *  0.872210 *  -2.87073    1.000000    
    110 O2    s    0.631410 *  0.268650 *  0.872210 *  -2.87073    1.000000    
    111 O2    s    0.131410 *  0.731350 *  0.127790 *  -2.87073    1.000000    
    112 O2    s    0.368590 *  0.268650 *  0.127790 *  -2.87073    1.000000    
    113 O2    s    0.653920 *  0.500000 *  0.058200 *  -2.87073    1.000000    
    114 O2    s    0.846080 *  0.500000 *  0.058200 *  -2.87073    1.000000    
    115 O2    s    0.346080 *  0.500000 *  0.941800 *  -2.87073    1.000000    
    116 O2    s    0.153920 *  0.500000 *  0.941800 *  -2.87073    1.000000    
    117 O2    s    0.750000 *  0.231060 *  0.027050 *  -2.87073    1.000000    
    118 O2    s    0.750000 *  0.768940 *  0.027050 *  -2.87073    1.000000    
    119 O2    s    0.250000 *  0.231060 *  0.972950 *  -2.87073    1.000000    
    120 O2    s    0.250000 *  0.768940 *  0.972950 *  -2.87073    1.000000    
--------------------------------------------------------------------------------



********************************************************************************
*  General input information                                                   *
********************************************************************************

  Species output for all configurations : 

--------------------------------------------------------------------------------
  Species    Type    Atomic    Atomic    Charge       Radii (Angs)     Library
                     Number     Mass       (e)     Cova   Ionic  VDW   Symbol
--------------------------------------------------------------------------------
    Ge       Core       32      72.61   4.000000   1.170  0.000  1.750 Ge       
    Si       Core       14      28.09   4.000000   1.200  0.000  2.100 Si       
    O1       Core        8      16.00   1.733957   0.730  0.000  1.360 O1       
    O2       Core        8      16.00   0.870733   0.730  0.000  1.360 O2       
    O3       Core        8      16.00   1.330431   0.730  0.000  1.360 O3       
    O1       Shell       8       0.00  -3.733957   0.730  0.000  0.000 O1       
    O2       Shell       8       0.00  -2.870733   0.730  0.000  0.000 O2       
    O3       Shell       8       0.00  -3.330431   0.730  0.000  0.000 O3       
--------------------------------------------------------------------------------


  Lattice summation method               =    Ewald          (3-D)
                                         =    Parry          (2-D)
                                         =    Saunders et al (1-D)
  Accuracy factor for lattice sums       =   12.000


  Analytic derivatives to be used

  Time limit = Infinity

  Maximum range for interatomic potentials =    100000.000000 Angstroms

  General interatomic potentials :

--------------------------------------------------------------------------------
Atom  Types   Potential      Parameter       Value         Units   Cutoffs(Ang)
  1     2                                                            Min /  Max 
--------------------------------------------------------------------------------
Si   c O1   s Buckingham    Buckingham A     1315.2478    eV        0.000 16.000
                            Buckingham rho  0.31775900    Ang       
                            Buckingham C     10.141118    eV*Ang^6  
--------------------------------------------------------------------------------
Si   c O2   s Buckingham    Buckingham A     1315.2478    eV        0.000 16.000
                            Buckingham rho  0.31775900    Ang       
                            Buckingham C     10.141118    eV*Ang^6  
--------------------------------------------------------------------------------
Si   c O3   s Buckingham    Buckingham A     1315.2478    eV        0.000 16.000
                            Buckingham rho  0.31775900    Ang       
                            Buckingham C     10.141118    eV*Ang^6  
--------------------------------------------------------------------------------
Ge   c O1   s Buckingham    Buckingham A     1497.3996    eV        0.000 16.000
                            Buckingham rho  0.32564600    Ang       
                            Buckingham C     16.808599    eV*Ang^6  
--------------------------------------------------------------------------------
Ge   c O2   s Buckingham    Buckingham A     1497.3996    eV        0.000 16.000
                            Buckingham rho  0.32564600    Ang       
                            Buckingham C     16.808599    eV*Ang^6  
--------------------------------------------------------------------------------
Ge   c O3   s Buckingham    Buckingham A     1497.3996    eV        0.000 16.000
                            Buckingham rho  0.32564600    Ang       
                            Buckingham C     16.808599    eV*Ang^6  
--------------------------------------------------------------------------------
O1   s O1   s Buckingham    Buckingham A     22764.000    eV        0.000 16.000
                            Buckingham rho  0.14900000    Ang       
                            Buckingham C     10.937044    eV*Ang^6  
--------------------------------------------------------------------------------
O1   s O2   s Buckingham    Buckingham A     22764.000    eV        0.000 16.000
                            Buckingham rho  0.14900000    Ang       
                            Buckingham C     10.937044    eV*Ang^6  
--------------------------------------------------------------------------------
O1   s O3   s Buckingham    Buckingham A     22764.000    eV        0.000 16.000
                            Buckingham rho  0.14900000    Ang       
                            Buckingham C     10.937044    eV*Ang^6  
--------------------------------------------------------------------------------
O2   s O2   s Buckingham    Buckingham A     22764.000    eV        0.000 16.000
                            Buckingham rho  0.14900000    Ang       
                            Buckingham C     10.937044    eV*Ang^6  
--------------------------------------------------------------------------------
O2   s O3   s Buckingham    Buckingham A     22764.000    eV        0.000 16.000
                            Buckingham rho  0.14900000    Ang       
                            Buckingham C     10.937044    eV*Ang^6  
--------------------------------------------------------------------------------
O3   s O3   s Buckingham    Buckingham A     22764.000    eV        0.000 16.000
                            Buckingham rho  0.14900000    Ang       
                            Buckingham C     10.937044    eV*Ang^6  
--------------------------------------------------------------------------------
O1   c O1   s Spring (c-s)  Spring k 2       180.31577    eV*Ang^-2 0.000  0.800
                            Spring k 4       0.0000000    eV*Ang^-4 
--------------------------------------------------------------------------------
O2   c O2   s Spring (c-s)  Spring k 2       75.969800    eV*Ang^-2 0.000  0.800
                            Spring k 4       0.0000000    eV*Ang^-4 
--------------------------------------------------------------------------------
O3   c O3   s Spring (c-s)  Spring k 2       128.14270    eV*Ang^-2 0.000  0.800
                            Spring k 4       0.0000000    eV*Ang^-4 
--------------------------------------------------------------------------------

  General Three-body potentials :

--------------------------------------------------------------------------------
  Atoms       Potential      Parameter       Value         Units   Cutoffs(Ang)
  1 / 2 / 3                                                          Min /  Max 
--------------------------------------------------------------------------------
Si    core    Harmonic      Three-body cnst  1.2614000    eV*rad^-2 0.000  1.900
O1    shel                  Three-body angl  109.47000    degrees   0.000  1.900
O1    shel                  Three-body k4    0.0000000    eV*rad^-4 0.000  3.500
                            Three-body k3    0.0000000    eV*rad^-3 
--------------------------------------------------------------------------------
Si    core    Harmonic      Three-body cnst  1.2614000    eV*rad^-2 0.000  1.900
O1    shel                  Three-body angl  109.47000    degrees   0.000  1.900
õ(1   shel                  Three-body k4    0.0000000    eV*rad^-4 0.000  3.500
                            Three-body k3    0.0000000    eV*rad^-3 
--------------------------------------------------------------------------------
Si    core    Harmonic      Three-body cnst  1.2614000    eV*rad^-2 0.000  1.900
õ(1   shel                  Three-body angl  109.47000    degrees   0.000  1.900
õ(1   shel                  Three-body k4    0.0000000    eV*rad^-4 0.000  3.500
                            Three-body k3    0.0000000    eV*rad^-3 
--------------------------------------------------------------------------------
Si    core    Harmonic      Three-body cnst  1.2614000    eV*rad^-2 0.000  1.900
O1    shel                  Three-body angl  109.47000    degrees   0.000  1.900
O2    shel                  Three-body k4    0.0000000    eV*rad^-4 0.000  3.500
                            Three-body k3    0.0000000    eV*rad^-3 
--------------------------------------------------------------------------------
Si    core    Harmonic      Three-body cnst  1.2614000    eV*rad^-2 0.000  1.900
O1    shel                  Three-body angl  109.47000    degrees   0.000  1.900
õ(2   shel                  Three-body k4    0.0000000    eV*rad^-4 0.000  3.500
                            Three-body k3    0.0000000    eV*rad^-3 
--------------------------------------------------------------------------------
Si    core    Harmonic      Three-body cnst  1.2614000    eV*rad^-2 0.000  1.900
O2    shel                  Three-body angl  109.47000    degrees   0.000  1.900
õ(1   shel                  Three-body k4    0.0000000    eV*rad^-4 0.000  3.500
                            Three-body k3    0.0000000    eV*rad^-3 
--------------------------------------------------------------------------------
Si    core    Harmonic      Three-body cnst  1.2614000    eV*rad^-2 0.000  1.900
õ(1   shel                  Three-body angl  109.47000    degrees   0.000  1.900
õ(2   shel                  Three-body k4    0.0000000    eV*rad^-4 0.000  3.500
                            Three-body k3    0.0000000    eV*rad^-3 
--------------------------------------------------------------------------------
Si    core    Harmonic      Three-body cnst  1.2614000    eV*rad^-2 0.000  1.900
O2    shel                  Three-body angl  109.47000    degrees   0.000  1.900
O2    shel                  Three-body k4    0.0000000    eV*rad^-4 0.000  3.500
                            Three-body k3    0.0000000    eV*rad^-3 
--------------------------------------------------------------------------------
Si    core    Harmonic      Three-body cnst  1.2614000    eV*rad^-2 0.000  1.900
O2    shel                  Three-body angl  109.47000    degrees   0.000  1.900
õ(2   shel                  Three-body k4    0.0000000    eV*rad^-4 0.000  3.500
                            Three-body k3    0.0000000    eV*rad^-3 
--------------------------------------------------------------------------------
Si    core    Harmonic      Three-body cnst  1.2614000    eV*rad^-2 0.000  1.900
õ(2   shel                  Three-body angl  109.47000    degrees   0.000  1.900
õ(2   shel                  Three-body k4    0.0000000    eV*rad^-4 0.000  3.500
                            Three-body k3    0.0000000    eV*rad^-3 
--------------------------------------------------------------------------------

********************************************************************************
*  Output for configuration   1 : c00016.vasp                                  *
********************************************************************************


  Components of energy : 

--------------------------------------------------------------------------------
  Interatomic potentials     =         760.29927153 eV    
  Three-body potentials      =           0.01400065 eV    
  Monopole - monopole (real) =       -2676.00317478 eV    
  Monopole - monopole (recip)=       -1115.35404472 eV    
  Monopole - monopole (total)=       -3791.35721950 eV    
--------------------------------------------------------------------------------
  Total lattice energy       =       -3031.04394733 eV    
--------------------------------------------------------------------------------
  Total lattice energy       =         -292449.4072 kJ/(mole unit cells)
--------------------------------------------------------------------------------


  Number of variables =      363

  Maximum number of calculations  =          1000
  Maximum Hessian update interval =            10
  Maximum step size               =   0.100000000
  Maximum parameter tolerance     =   0.000010000
  Maximum function  tolerance     =   0.000010000
  Maximum gradient  tolerance     =   0.001000000
  Maximum gradient  component     =   0.010000000

  Symmetry not applied to optimisation

  Cell parameters to be optimised using strains

  Newton-Raphson optimiser to be used

  BFGS hessian update to be used

  Lower half triangular hessian to be used

  Minimiser to switch to RFO
  When gradient norm is less than     0.050000

  Dumpfile to be written after every cycle

  Start of bulk optimisation :

  Cycle:      0 Energy:     -3031.043947  Gnorm:      4.334987  CPU:    0.120
  ** Hessian calculated **
  Cycle:      1 Energy:     -3061.833261  Gnorm:      0.966213  CPU:    0.256
  ** Hessian calculated **
  Cycle:      2 Energy:     -3064.263517  Gnorm:      0.527031  CPU:    0.466
  Cycle:      3 Energy:     -3065.002258  Gnorm:      0.342521  CPU:    0.580
  Cycle:      4 Energy:     -3065.650239  Gnorm:      0.279426  CPU:    0.710
  Cycle:      5 Energy:     -3066.307054  Gnorm:      0.220276  CPU:    0.841
  Cycle:      6 Energy:     -3066.736277  Gnorm:      0.182624  CPU:    0.951
  Cycle:      7 Energy:     -3067.002561  Gnorm:      0.135940  CPU:    1.063
  Cycle:      8 Energy:     -3067.151754  Gnorm:      0.100376  CPU:    1.171
  Cycle:      9 Energy:     -3067.235347  Gnorm:      0.075351  CPU:    1.306
  Cycle:     10 Energy:     -3067.289506  Gnorm:      0.067669  CPU:    1.442
  Cycle:     11 Energy:     -3067.347093  Gnorm:      0.072880  CPU:    1.576
  ** Hessian calculated **
  Cycle:     12 Energy:     -3067.415007  Gnorm:      0.069018  CPU:    1.806
  Cycle:     13 Energy:     -3067.522799  Gnorm:      0.062404  CPU:    1.959
  Cycle:     14 Energy:     -3067.648009  Gnorm:      0.053870  CPU:    2.088
  Cycle:     15 Energy:     -3067.792164  Gnorm:      0.042622  CPU:    2.216
  ** Hessian has wrong structure
  ** Imaginary eigenvectors =   3
  Cycle:     16 Energy:     -3067.802570  Gnorm:      0.099703  CPU:    2.520
  ** Hessian has wrong structure
  ** Imaginary eigenvectors =   3
  ** Hessian has wrong structure
  ** Imaginary eigenvectors =   2
  Cycle:     17 Energy:     -3067.817408  Gnorm:      0.101116  CPU:    3.103
  ** Hessian has wrong structure
  ** Imaginary eigenvectors =   1
  Cycle:     18 Energy:     -3067.831865  Gnorm:      0.104168  CPU:    3.538
  ** Hessian has required structure
  Cycle:     19 Energy:     -3068.056130  Gnorm:      0.056275  CPU:    3.828
  ** Hessian has required structure
  Cycle:     20 Energy:     -3068.140956  Gnorm:      0.035323  CPU:    4.023
  ** Hessian has required structure
  Cycle:     21 Energy:     -3068.186503  Gnorm:      0.020016  CPU:    4.219
  ** Hessian has required structure
  Cycle:     22 Energy:     -3068.204110  Gnorm:      0.023745  CPU:    4.414
  ** Hessian has required structure
  Cycle:     23 Energy:     -3068.227323  Gnorm:      0.016109  CPU:    4.590
  ** Hessian has required structure
  Cycle:     24 Energy:     -3068.237283  Gnorm:      0.013447  CPU:    4.786
  ** Hessian has required structure
  Cycle:     25 Energy:     -3068.241412  Gnorm:      0.018401  CPU:    4.941
  ** Hessian has required structure
  Cycle:     26 Energy:     -3068.247385  Gnorm:      0.014392  CPU:    5.115
  ** Hessian has required structure
  Cycle:     27 Energy:     -3068.251316  Gnorm:      0.009043  CPU:    5.290
  ** Hessian has required structure
  Cycle:     28 Energy:     -3068.253631  Gnorm:      0.007467  CPU:    5.485
  ** Hessian has required structure
  Cycle:     29 Energy:     -3068.256614  Gnorm:      0.005064  CPU:    5.772
  ** Hessian has required structure
  Cycle:     30 Energy:     -3068.258227  Gnorm:      0.003170  CPU:    5.970
  ** Hessian has required structure
  Cycle:     31 Energy:     -3068.258681  Gnorm:      0.001703  CPU:    6.167
  ** Hessian has required structure
  Cycle:     32 Energy:     -3068.258812  Gnorm:      0.001046  CPU:    6.361
  ** Hessian has required structure
  Cycle:     33 Energy:     -3068.258849  Gnorm:      0.000487  CPU:    6.559
  ** Hessian has required structure
  Cycle:     34 Energy:     -3068.258863  Gnorm:      0.000332  CPU:    6.755
  ** Hessian has required structure
  Cycle:     35 Energy:     -3068.258865  Gnorm:      0.000196  CPU:    6.909
  ** Hessian has required structure
  Cycle:     36 Energy:     -3068.258865  Gnorm:      0.000164  CPU:    7.067
  ** Hessian has required structure
  Cycle:     37 Energy:     -3068.258866  Gnorm:      0.000110  CPU:    7.238
  ** Hessian has required structure
  Cycle:     38 Energy:     -3068.258866  Gnorm:      0.000101  CPU:    7.412
  ** Hessian has required structure
  Cycle:     39 Energy:     -3068.258866  Gnorm:      0.000101  CPU:    7.702
  ** Hessian has required structure
  Cycle:     40 Energy:     -3068.258866  Gnorm:      0.000101  CPU:    7.859
  ** Hessian has required structure
  Cycle:     41 Energy:     -3068.258866  Gnorm:      0.000100  CPU:    8.016
  ** Hessian has required structure
  Cycle:     42 Energy:     -3068.258866  Gnorm:      0.000100  CPU:    8.173
  ** Hessian has required structure
  Cycle:     43 Energy:     -3068.258866  Gnorm:      0.000100  CPU:    8.329
  ** Hessian has required structure
  Cycle:     44 Energy:     -3068.258866  Gnorm:      0.000099  CPU:    8.481
  ** Hessian has required structure
  Cycle:     45 Energy:     -3068.258865  Gnorm:      0.000098  CPU:    8.734
  ** Hessian has required structure
  Cycle:     46 Energy:     -3068.258866  Gnorm:      0.000068  CPU:    8.979
  ** Hessian has required structure


  **** Optimisation achieved ****


  Final energy =   -3068.25886622 eV      
  Final Gnorm  =       0.00005474

  Components of energy : 

--------------------------------------------------------------------------------
  Interatomic potentials     =         815.46565505 eV    
  Three-body potentials      =           0.21033475 eV    
  Monopole - monopole (real) =       -2208.50764125 eV    
  Monopole - monopole (recip)=       -1675.42721478 eV    
  Monopole - monopole (total)=       -3883.93485603 eV    
--------------------------------------------------------------------------------
  Total lattice energy       =       -3068.25886622 eV    
--------------------------------------------------------------------------------
  Total lattice energy       =         -296040.0780 kJ/(mole unit cells)
--------------------------------------------------------------------------------

  Final fractional coordinates of atoms :

--------------------------------------------------------------------------------
   No.  Atomic        x           y          z          Radius
        Label       (Frac)      (Frac)     (Frac)       (Angs) 
--------------------------------------------------------------------------------
     1  Ge    c     0.052090    0.000000    0.372270    0.000000
     2  Ge    c     0.552109    0.983743    0.622314    0.000000
     3  Ge    c     0.159886    0.307629    0.295332    0.000000
     4  Si    c     0.455512    0.984298    0.353675    0.000000
     5  Si    c     0.951490    0.977987    0.630268    0.000000
     6  Si    c     0.557167    0.985005    0.099917    0.000000
     7  Si    c     0.948093    0.977946    0.109202    0.000000
     8  Si    c     0.441105    0.974181    0.865262    0.000000
     9  Si    c     0.059701    0.989245    0.871270    0.000000
    10  Si    c     0.350970    0.679758    0.279165    0.000000
    11  Si    c     0.844273    0.280445    0.727305    0.000000
    12  Si    c     0.665774    0.684569    0.724010    0.000000
    13  Si    c     0.842560    0.682518    0.729623    0.000000
    14  Si    c     0.667018    0.278054    0.722416    0.000000
    15  Si    c     0.171578    0.715591    0.285854    0.000000
    16  Si    c     0.341393    0.280295    0.288388    0.000000
    17  Si    c     0.664835    0.280243    0.027723    0.000000
    18  Si    c     0.840215    0.679725    0.038231    0.000000
    19  Si    c     0.334859    0.271938    0.979031    0.000000
    20  Si    c     0.166907    0.696922    0.980576    0.000000
    21  Si    c     0.345579    0.669546    0.973246    0.000000
    22  Si    c     0.156982    0.293425    0.983568    0.000000
    23  Si    c     0.662768    0.680866    0.029947    0.000000
    24  Si    c     0.842924    0.283259    0.035564    0.000000
    25  O1    c     0.095083    0.198651    0.388630    0.000000
    26  O2    c     0.406571    0.805331    0.362845    0.000000
    27  O2    c     0.901239    0.154879    0.646809    0.000000
    28  O3    c     0.607684    0.797534    0.639248    0.000000
    29  O2    c     0.900060    0.807764    0.654305    0.000000
    30  O3    c     0.610067    0.164584    0.636515    0.000000
    31  O3    c     0.128937    0.853249    0.376978    0.000000
    32  O2    c     0.397252    0.149791    0.368090    0.000000
    33  O3    c     0.980492    0.965415    0.483066    0.000000
    34  O3    c     0.520472    0.986902    0.462232    0.000000
    35  O3    c     0.011631    0.972891    0.218835    0.000000
    36  O2    c     0.494615    0.995027    0.211914    0.000000
    37  O2    c     0.027616    0.983095    0.722762    0.000000
    38  O3    c     0.470761    0.987034    0.718437    0.000000
    39  O2    c     0.612397    0.153342    0.112997    0.000000
    40  O2    c     0.892067    0.811128    0.122874    0.000000
    41  O2    c     0.382008    0.132668    0.893787    0.000000
    42  O2    c     0.118879    0.826919    0.887849    0.000000
    43  O2    c     0.398941    0.788431    0.883179    0.000000
    44  O2    c     0.101729    0.174805    0.892688    0.000000
    45  O2    c     0.607809    0.807457    0.114746    0.000000
    46  O2    c     0.896333    0.154920    0.121068    0.000000
    47  O2    c     0.515993    0.987653    0.958325    0.000000
    48  O2    c     0.987778    0.969830    0.967131    0.000000
    49  O3    c     0.139253    0.525381    0.314925    0.000000
    50  O2    c     0.370954    0.478503    0.311799    0.000000
    51  O2    c     0.864117    0.481419    0.694854    0.000000
    52  O2    c     0.648064    0.481337    0.698961    0.000000
    53  O3    c     0.254811    0.262649    0.338363    0.000000
    54  O2    c     0.262855    0.719504    0.317769    0.000000
    55  O2    c     0.756297    0.239216    0.685506    0.000000
    56  O2    c     0.754542    0.723877    0.685710    0.000000
    57  O3    c     0.145655    0.241899    0.133428    0.000000
    58  O2    c     0.362468    0.716880    0.124858    0.000000
    59  O2    c     0.855714    0.245060    0.881674    0.000000
    60  O2    c     0.653653    0.731718    0.877436    0.000000
    61  O2    c     0.850934    0.716430    0.884546    0.000000
    62  O2    c     0.654704    0.230013    0.874942    0.000000
    63  O2    c     0.158024    0.758385    0.131313    0.000000
    64  O2    c     0.343632    0.233552    0.133302    0.000000
    65  O2    c     0.638325    0.480507    0.053331    0.000000
    66  O2    c     0.866592    0.481698    0.071127    0.000000
    67  O2    c     0.365914    0.465811    0.946284    0.000000
    68  O2    c     0.136063    0.498831    0.963441    0.000000
    69  O2    c     0.753664    0.253610    0.071345    0.000000
    70  O2    c     0.750910    0.707915    0.076527    0.000000
    71  O2    c     0.245125    0.258559    0.939520    0.000000
    72  O2    c     0.256132    0.705871    0.938426    0.000000
    73  O1    s     0.096795    0.191628    0.380094    0.000000
    74  O2    s     0.405540    0.810124    0.352680    0.000000
    75  O2    s     0.900235    0.149935    0.654151    0.000000
    76  O3    s     0.609319    0.800923    0.647051    0.000000
    77  O2    s     0.899116    0.812167    0.660360    0.000000
    78  O3    s     0.611411    0.161769    0.644726    0.000000
    79  O3    s     0.127316    0.850327    0.366984    0.000000
    80  O2    s     0.397239    0.146706    0.357872    0.000000
    81  O3    s     0.983709    0.969789    0.488934    0.000000
    82  O3    s     0.515975    0.986323    0.463913    0.000000
    83  O3    s     0.007792    0.975772    0.219357    0.000000
    84  O2    s     0.497722    0.992638    0.214262    0.000000
    85  O2    s     0.023078    0.983254    0.729037    0.000000
    86  O3    s     0.474431    0.985433    0.725730    0.000000
    87  O2    s     0.612380    0.149611    0.102074    0.000000
    88  O2    s     0.892138    0.813906    0.111920    0.000000
    89  O2    s     0.383105    0.131184    0.900472    0.000000
    90  O2    s     0.117879    0.829894    0.896477    0.000000
    91  O2    s     0.397475    0.794905    0.891325    0.000000
    92  O2    s     0.103253    0.167902    0.900314    0.000000
    93  O2    s     0.608525    0.812199    0.103823    0.000000
    94  O2    s     0.895802    0.150798    0.110373    0.000000
    95  O2    s     0.512341    0.985894    0.963602    0.000000
    96  O2    s     0.991515    0.972885    0.971785    0.000000
    97  O3    s     0.144289    0.526198    0.310317    0.000000
    98  O2    s     0.365715    0.479425    0.305832    0.000000
    99  O2    s     0.859717    0.481343    0.701975    0.000000
   100  O2    s     0.652100    0.481338    0.704281    0.000000
   101  O3    s     0.255962    0.268008    0.329891    0.000000
   102  O2    s     0.262752    0.714698    0.310072    0.000000
   103  O2    s     0.756323    0.247675    0.693818    0.000000
   104  O2    s     0.754621    0.715432    0.694325    0.000000
   105  O3    s     0.147889    0.252137    0.130970    0.000000
   106  O2    s     0.359429    0.707901    0.124905    0.000000
   107  O2    s     0.853083    0.252984    0.881590    0.000000
   108  O2    s     0.655897    0.721435    0.877621    0.000000
   109  O2    s     0.848810    0.708672    0.884317    0.000000
   110  O2    s     0.657090    0.240370    0.875308    0.000000
   111  O2    s     0.160355    0.747586    0.130965    0.000000
   112  O2    s     0.342443    0.242622    0.132807    0.000000
   113  O2    s     0.643767    0.480615    0.048100    0.000000
   114  O2    s     0.861269    0.481571    0.063850    0.000000
   115  O2    s     0.360533    0.467101    0.952555    0.000000
   116  O2    s     0.141458    0.498343    0.967317    0.000000
   117  O2    s     0.753728    0.259776    0.062729    0.000000
   118  O2    s     0.751038    0.701870    0.067343    0.000000
   119  O2    s     0.245508    0.263813    0.948516    0.000000
   120  O2    s     0.256160    0.700883    0.946786    0.000000
--------------------------------------------------------------------------------

  Final Cartesian lattice vectors (Angstroms) :

       17.311366    0.080083   -0.060399
        0.035052    7.644538   -0.028363
       -0.037221   -0.039584   10.180140


  Final cell parameters and derivatives :

--------------------------------------------------------------------------------
       a           17.311657 Angstrom     dE/de1(xx)     0.004508 eV/strain
       b            7.644671 Angstrom     dE/de2(yy)     0.005267 eV/strain
       c           10.180285 Angstrom     dE/de3(zz)     0.003209 eV/strain
       alpha       90.436322 Degrees      dE/de4(yz)     0.000073 eV/strain
       beta        90.410412 Degrees      dE/de5(xz)    -0.000205 eV/strain
       gamma       89.471501 Degrees      dE/de6(xy)     0.000515 eV/strain
--------------------------------------------------------------------------------

  Primitive cell volume =          1347.148193 Angs**3

  Density of cell =      1.942315 g/cm**3

  Non-primitive cell volume =          1347.148193 Angs**3


  Final internal derivatives :

--------------------------------------------------------------------------------
   No.  Atomic          a             b             c           Radius
        Label          (eV)          (eV)          (eV)        (eV/Angs)
--------------------------------------------------------------------------------
      1 Ge    c       0.000000      0.000000      0.000000      0.000000
      2 Ge    c      -0.000936     -0.000165      0.000001      0.000000
      3 Ge    c      -0.001195     -0.000625      0.000371      0.000000
      4 Si    c       0.000527      0.000075     -0.000219      0.000000
      5 Si    c       0.000398      0.000018      0.000385      0.000000
      6 Si    c      -0.000537     -0.000155     -0.000185      0.000000
      7 Si    c      -0.000029     -0.000085     -0.000462      0.000000
      8 Si    c       0.000282     -0.000020     -0.000005      0.000000
      9 Si    c       0.000085     -0.000205     -0.000553      0.000000
     10 Si    c       0.000808      0.000242      0.000057      0.000000
     11 Si    c       0.000063     -0.000334     -0.000340      0.000000
     12 Si    c      -0.000114      0.000265     -0.000128      0.000000
     13 Si    c       0.000252      0.000283     -0.000274      0.000000
     14 Si    c       0.000051     -0.000153     -0.000117      0.000000
     15 Si    c      -0.003023      0.001204     -0.001396      0.000000
     16 Si    c       0.004356     -0.001220     -0.000772      0.000000
     17 Si    c       0.000856     -0.000030      0.000068      0.000000
     18 Si    c      -0.000371      0.000237      0.000295      0.000000
     19 Si    c       0.000623     -0.000374     -0.000087      0.000000
     20 Si    c      -0.000324      0.000379      0.000095      0.000000
     21 Si    c      -0.000492      0.000205     -0.000281      0.000000
     22 Si    c       0.000468      0.000139     -0.000154      0.000000
     23 Si    c       0.000363      0.000281      0.000254      0.000000
     24 Si    c      -0.000411     -0.000250      0.000296      0.000000
     25 O1    c       0.003005      0.001701     -0.000341      0.000000
     26 O2    c      -0.000952     -0.000562     -0.000149      0.000000
     27 O2    c      -0.000136      0.000212      0.000171      0.000000
     28 O3    c       0.000063     -0.000101      0.000146      0.000000
     29 O2    c      -0.000614     -0.000403      0.000428      0.000000
     30 O3    c       0.000590      0.000441      0.000143      0.000000
     31 O3    c       0.003001     -0.000563      0.000947      0.000000
     32 O2    c      -0.001104      0.000734      0.000180      0.000000
     33 O3    c      -0.001768     -0.000197      0.000296      0.000000
     34 O3    c       0.000734     -0.000002      0.000378      0.000000
     35 O3    c       0.001152     -0.000202     -0.001166      0.000000
     36 O2    c      -0.001019      0.000061     -0.000208      0.000000
     37 O2    c       0.000067     -0.000000     -0.000113      0.000000
     38 O3    c       0.000433      0.000070     -0.000884      0.000000
     39 O2    c       0.000434      0.000369      0.000126      0.000000
     40 O2    c      -0.000764     -0.000542     -0.000065      0.000000
     41 O2    c      -0.001619      0.000803      0.000244      0.000000
     42 O2    c       0.001285     -0.000706      0.000156      0.000000
     43 O2    c      -0.000502     -0.000784      0.000247      0.000000
     44 O2    c       0.000687      0.000713      0.000138      0.000000
     45 O2    c       0.000596     -0.000487     -0.000094      0.000000
     46 O2    c      -0.000822      0.000611     -0.000057      0.000000
     47 O2    c       0.000398     -0.000036     -0.000142      0.000000
     48 O2    c      -0.001657     -0.000103      0.000293      0.000000
     49 O3    c      -0.003340     -0.002685      0.001589      0.000000
     50 O2    c       0.001586      0.002419      0.000946      0.000000
     51 O2    c       0.000110      0.000237     -0.000167      0.000000
     52 O2    c      -0.000070     -0.000040     -0.000166      0.000000
     53 O3    c      -0.009022     -0.001148      0.001690      0.000000
     54 O2    c       0.007475      0.000629      0.000705      0.000000
     55 O2    c      -0.000087      0.000043      0.000129      0.000000
     56 O2    c       0.000324     -0.000065      0.000165      0.000000
     57 O3    c      -0.000547     -0.000268     -0.000349      0.000000
     58 O2    c       0.000431      0.000242      0.000123      0.000000
     59 O2    c      -0.000039     -0.000066      0.000155      0.000000
     60 O2    c       0.000258     -0.000038      0.000052      0.000000
     61 O2    c      -0.000235      0.000023     -0.000195      0.000000
     62 O2    c       0.000262     -0.000005      0.000164      0.000000
     63 O2    c      -0.000412      0.000224      0.000308      0.000000
     64 O2    c       0.000244     -0.000225     -0.000077      0.000000
     65 O2    c       0.000163     -0.000229      0.000043      0.000000
     66 O2    c      -0.000085      0.000038      0.000096      0.000000
     67 O2    c       0.000910      0.000806     -0.000465      0.000000
     68 O2    c      -0.000504     -0.001118     -0.000123      0.000000
     69 O2    c      -0.000539      0.000225     -0.000265      0.000000
     70 O2    c      -0.000261     -0.000199     -0.000317      0.000000
     71 O2    c      -0.003203     -0.000112     -0.000280      0.000000
     72 O2    c       0.001875      0.000049     -0.000242      0.000000
     73 O1    s      -0.001412     -0.000089      0.000384      0.000000
     74 O2    s      -0.000199     -0.000222      0.000177      0.000000
     75 O2    s      -0.000341      0.000055      0.000245      0.000000
     76 O3    s       0.000031     -0.000005      0.000124      0.000000
     77 O2    s      -0.000396     -0.000042      0.000171      0.000000
     78 O3    s      -0.000017     -0.000179      0.000050      0.000000
     79 O3    s      -0.002248      0.000783      0.000591      0.000000
     80 O2    s       0.001687     -0.000682      0.000379      0.000000
     81 O3    s      -0.000508      0.000001     -0.000051      0.000000
     82 O3    s       0.000437      0.000004     -0.000124      0.000000
     83 O3    s      -0.001299      0.000105      0.000299      0.000000
     84 O2    s       0.001040     -0.000030     -0.000161      0.000000
     85 O2    s      -0.000179      0.000092     -0.000357      0.000000
     86 O3    s       0.000487     -0.000191     -0.000054      0.000000
     87 O2    s       0.000532      0.000312      0.000083      0.000000
     88 O2    s      -0.000741     -0.000230      0.000060      0.000000
     89 O2    s       0.000584     -0.000084     -0.000112      0.000000
     90 O2    s      -0.000001      0.000146     -0.000415      0.000000
     91 O2    s      -0.000345     -0.000282     -0.000360      0.000000
     92 O2    s       0.000589      0.000368     -0.000353      0.000000
     93 O2    s       0.000644     -0.000207     -0.000032      0.000000
     94 O2    s      -0.000654      0.000217     -0.000065      0.000000
     95 O2    s       0.001025     -0.000060     -0.000223      0.000000
     96 O2    s      -0.000655      0.000186     -0.000265      0.000000
     97 O3    s      -0.000742     -0.000538      0.000255      0.000000
     98 O2    s       0.001222      0.000439      0.000829      0.000000
     99 O2    s      -0.000224      0.000059      0.000162      0.000000
    100 O2    s       0.000344     -0.000012      0.000235      0.000000
    101 O3    s       0.001535     -0.000277      0.000678      0.000000
    102 O2    s       0.001399      0.000695      0.000819      0.000000
    103 O2    s      -0.000071      0.000017     -0.000113      0.000000
    104 O2    s       0.000122     -0.000054     -0.000064      0.000000
    105 O3    s      -0.000090     -0.000042      0.000072      0.000000
    106 O2    s       0.000632      0.000097      0.000137      0.000000
    107 O2    s      -0.000374      0.000177      0.000154      0.000000
    108 O2    s       0.000238     -0.000135      0.000238      0.000000
    109 O2    s      -0.000259     -0.000288      0.000057      0.000000
    110 O2    s       0.000344      0.000260      0.000276      0.000000
    111 O2    s      -0.002295      0.000813     -0.001114      0.000000
    112 O2    s       0.002351     -0.000830     -0.000844      0.000000
    113 O2    s       0.000496     -0.000005     -0.000418      0.000000
    114 O2    s      -0.000231     -0.000001     -0.000283      0.000000
    115 O2    s       0.001251      0.000270     -0.000594      0.000000
    116 O2    s      -0.001109     -0.000370     -0.000438      0.000000
    117 O2    s      -0.000124      0.000075     -0.000008      0.000000
    118 O2    s      -0.000140     -0.000004      0.000080      0.000000
    119 O2    s      -0.000925     -0.000394     -0.000638      0.000000
    120 O2    s       0.000429      0.000500     -0.000967      0.000000
--------------------------------------------------------------------------------
  Maximum abs         0.009022      0.002685      0.001690      0.000000
--------------------------------------------------------------------------------


  Born effective charge tensors : 

-------------------------------------------------------------------------------
  Atom             x           y             z
-------------------------------------------------------------------------------
    1 Ge    x       4.2661      0.2816     -0.0016
            y      -0.0629      3.8988      0.0496
            z      -0.8945     -0.0808      4.5219
-------------------------------------------------------------------------------
    2 Ge    x       4.2394     -0.0042      0.4130
            y       0.0338      3.9385     -0.0302
            z       0.2773     -0.0305      4.6525
-------------------------------------------------------------------------------
    3 Ge    x       4.0308      0.3209     -0.1726
            y       0.3615      4.1346     -0.2838
            z      -0.2704     -0.0778      3.5203
-------------------------------------------------------------------------------
    4 Si    x       3.6656      0.0694      0.1523
            y      -0.0420      3.2794      0.0182
            z       0.9422      0.0084      4.0016
-------------------------------------------------------------------------------
    5 Si    x       3.5199     -0.0119     -0.4769
            y       0.0193      3.3222     -0.0181
            z      -0.3631      0.0798      4.2295
-------------------------------------------------------------------------------
    6 Si    x       3.5402     -0.0202     -0.0041
            y       0.0379      3.2795      0.0033
            z      -0.6073      0.0259      2.9163
-------------------------------------------------------------------------------
    7 Si    x       3.7992     -0.0324      0.1858
            y       0.0246      3.3137     -0.0385
            z       0.8230     -0.0349      3.2439
-------------------------------------------------------------------------------
    8 Si    x       3.6444      0.1099     -0.4901
            y      -0.0746      3.3238     -0.0014
            z      -0.4834     -0.0849      3.5637
-------------------------------------------------------------------------------
    9 Si    x       3.5626      0.0718      0.3610
            y      -0.0821      3.2780      0.0131
            z       0.3639     -0.0069      3.0734
-------------------------------------------------------------------------------
   10 Si    x       3.1527      0.2538      0.0906
            y       0.2381      3.3955      0.1519
            z       0.0784      0.0549      2.7998
-------------------------------------------------------------------------------
   11 Si    x       3.1690     -0.2315     -0.0804
            y      -0.2698      3.4321      0.1366
            z      -0.1057      0.0786      2.7924
-------------------------------------------------------------------------------
   12 Si    x       3.4337     -0.3732      0.2424
            y      -0.4244      3.5496     -0.3137
            z       0.2960     -0.1848      2.9924
-------------------------------------------------------------------------------
   13 Si    x       3.1782      0.2409     -0.0770
            y       0.2697      3.4493     -0.1260
            z      -0.1323     -0.0905      2.7868
-------------------------------------------------------------------------------
   14 Si    x       3.4278      0.3820      0.2592
            y       0.4149      3.5585      0.3132
            z       0.2986      0.1857      2.9895
-------------------------------------------------------------------------------
   15 Si    x       3.4256     -0.4019     -0.2690
            y      -0.1374      3.8904      0.2790
            z      -0.2202      0.1511      3.0709
-------------------------------------------------------------------------------
   16 Si    x       3.5071     -0.2688     -0.0263
            y      -0.1781      3.5050     -0.1777
            z       0.0104     -0.0735      2.8811
-------------------------------------------------------------------------------
   17 Si    x       3.2534      0.2984     -0.1490
            y       0.2022      3.4275     -0.1771
            z      -0.1390     -0.0423      2.6646
-------------------------------------------------------------------------------
   18 Si    x       3.2333      0.2903      0.1165
            y       0.1981      3.4043      0.1350
            z       0.1139      0.0607      2.6863
-------------------------------------------------------------------------------
   19 Si    x       3.2199     -0.3140     -0.1102
            y      -0.1393      3.4592      0.1668
            z      -0.1262      0.0910      2.7364
-------------------------------------------------------------------------------
   20 Si    x       3.2798     -0.3170      0.1776
            y      -0.1503      3.4404     -0.2139
            z       0.1488     -0.0457      2.7018
-------------------------------------------------------------------------------
   21 Si    x       3.2603      0.2490     -0.1268
            y       0.2331      3.4240     -0.1964
            z      -0.1139     -0.0711      2.7255
-------------------------------------------------------------------------------
   22 Si    x       3.3556      0.2976      0.1095
            y       0.2707      3.5511      0.1523
            z       0.1347     -0.0203      3.0013
-------------------------------------------------------------------------------
   23 Si    x       3.2572     -0.2947     -0.1305
            y      -0.2293      3.4141      0.1719
            z      -0.1455      0.0298      2.6599
-------------------------------------------------------------------------------
   24 Si    x       3.2434     -0.2799      0.1188
            y      -0.2202      3.3916     -0.1421
            z       0.1110     -0.0661      2.6912
-------------------------------------------------------------------------------
   25 O1    x      -2.1279     -0.9631      0.4017
            y      -0.9524     -2.5576      0.3744
            z       0.5574      0.3756     -1.7009
-------------------------------------------------------------------------------
   26 O2    x      -1.6568     -0.7233     -0.2348
            y      -0.6734     -1.9975     -0.2617
            z      -0.3230     -0.2604     -1.3341
-------------------------------------------------------------------------------
   27 O2    x      -1.6816      0.7088      0.3340
            y       0.7113     -2.0020     -0.3355
            z       0.3332     -0.3353     -1.3396
-------------------------------------------------------------------------------
   28 O3    x      -2.1047      0.9705     -0.5582
            y       0.9969     -2.3400      0.5477
            z      -0.5924      0.5467     -1.6323
-------------------------------------------------------------------------------
   29 O2    x      -1.7078     -0.7274      0.3468
            y      -0.7418     -2.0086      0.3585
            z       0.3610      0.3541     -1.3329
-------------------------------------------------------------------------------
   30 O3    x      -2.1223     -0.9786     -0.5563
            y      -1.0155     -2.3291     -0.5286
            z      -0.6030     -0.5406     -1.6297
-------------------------------------------------------------------------------
   31 O3    x      -2.1181      0.9134      0.4267
            y       0.9421     -2.2187     -0.5185
            z       0.5050     -0.4721     -1.6435
-------------------------------------------------------------------------------
   32 O2    x      -1.6933      0.7119     -0.2039
            y       0.7094     -1.9756      0.2430
            z      -0.2992      0.2396     -1.3340
-------------------------------------------------------------------------------
   33 O3    x      -1.9156     -0.0736      1.0045
            y      -0.0296     -1.2045      0.0346
            z       1.2753      0.0744     -3.4060
-------------------------------------------------------------------------------
   34 O3    x      -2.0387     -0.0124     -1.1163
            y      -0.0055     -1.2128     -0.0067
            z      -1.3725      0.0015     -3.3749
-------------------------------------------------------------------------------
   35 O3    x      -2.1438     -0.0327     -1.0255
            y       0.0151     -1.2484     -0.0230
            z      -1.0167     -0.0530     -2.7249
-------------------------------------------------------------------------------
   36 O2    x      -1.7626     -0.0056      0.7236
            y       0.0008     -1.1400      0.0059
            z       0.7023      0.0054     -2.1307
-------------------------------------------------------------------------------
   37 O2    x      -1.8127     -0.0360     -0.6645
            y      -0.0002     -1.1118     -0.0154
            z      -0.6333     -0.0328     -2.1401
-------------------------------------------------------------------------------
   38 O3    x      -2.0553     -0.0503      0.8965
            y      -0.0091     -1.2168      0.0455
            z       0.9417      0.0854     -2.8267
-------------------------------------------------------------------------------
   39 O2    x      -1.7530     -0.7463      0.2576
            y      -0.7074     -1.9676      0.2766
            z       0.3416      0.2725     -1.1949
-------------------------------------------------------------------------------
   40 O2    x      -1.7196     -0.7225     -0.2121
            y      -0.6890     -1.9736     -0.2366
            z      -0.3100     -0.2531     -1.2078
-------------------------------------------------------------------------------
   41 O2    x      -1.7177      0.7191      0.3832
            y       0.6902     -1.9995     -0.4199
            z       0.3579     -0.3742     -1.2728
-------------------------------------------------------------------------------
   42 O2    x      -1.7599      0.7451     -0.4179
            y       0.6882     -1.9549      0.4135
            z      -0.3649      0.3660     -1.2718
-------------------------------------------------------------------------------
   43 O2    x      -1.6622     -0.6961      0.3760
            y      -0.6240     -2.0250      0.3860
            z       0.3502      0.3635     -1.2845
-------------------------------------------------------------------------------
   44 O2    x      -1.7166     -0.7351     -0.3942
            y      -0.6454     -2.0370     -0.3998
            z      -0.3594     -0.3533     -1.2442
-------------------------------------------------------------------------------
   45 O2    x      -1.7279      0.7345      0.2507
            y       0.6845     -1.9822     -0.2628
            z       0.3354     -0.2622     -1.1901
-------------------------------------------------------------------------------
   46 O2    x      -1.6946      0.7094     -0.2365
            y       0.6652     -1.9941      0.2639
            z      -0.3189      0.2674     -1.2168
-------------------------------------------------------------------------------
   47 O2    x      -1.9099     -0.0391     -0.5782
            y      -0.0124     -1.1601     -0.0151
            z      -0.3173     -0.0142     -1.6719
-------------------------------------------------------------------------------
   48 O2    x      -1.8826     -0.0404      0.5956
            y      -0.0195     -1.1629      0.0275
            z       0.3366      0.0260     -1.6838
-------------------------------------------------------------------------------
   49 O3    x      -1.3654     -0.1486      0.0899
            y      -0.1992     -3.0527      0.1100
            z       0.1181      0.1102     -1.2162
-------------------------------------------------------------------------------
   50 O2    x      -1.1589     -0.0144     -0.0601
            y      -0.0543     -2.5284      0.0414
            z      -0.0700      0.0363     -1.0779
-------------------------------------------------------------------------------
   51 O2    x      -1.1480      0.0042      0.0583
            y       0.0097     -2.5598     -0.0063
            z       0.0762      0.0014     -1.0727
-------------------------------------------------------------------------------
   52 O2    x      -1.1752      0.0038     -0.0606
            y       0.0052     -2.4958     -0.0020
            z      -0.0853     -0.0041     -1.0862
-------------------------------------------------------------------------------
   53 O3    x      -2.9715      0.0760      0.1262
            y       0.0385     -1.3723      0.0882
            z       0.1546      0.0496     -1.2585
-------------------------------------------------------------------------------
   54 O2    x      -2.3810      0.1146      0.0102
            y       0.0762     -1.2382     -0.0602
            z       0.0309     -0.0380     -1.0923
-------------------------------------------------------------------------------
   55 O2    x      -2.3443      0.0013     -0.0037
            y       0.0121     -1.2521     -0.0736
            z      -0.0216     -0.0557     -1.0869
-------------------------------------------------------------------------------
   56 O2    x      -2.3399     -0.0136     -0.0045
            y      -0.0144     -1.2548      0.0753
            z      -0.0217      0.0596     -1.0924
-------------------------------------------------------------------------------
   57 O3    x      -1.3446     -0.1587     -0.0113
            y      -0.1370     -1.4615      0.0475
            z      -0.0137      0.0238     -2.5767
-------------------------------------------------------------------------------
   58 O2    x      -1.1927     -0.1275     -0.0185
            y      -0.1126     -1.2646     -0.0194
            z      -0.0111     -0.0178     -2.0572
-------------------------------------------------------------------------------
   59 O2    x      -1.1863      0.1237     -0.0028
            y       0.1110     -1.2610      0.0046
            z      -0.0108      0.0068     -2.0569
-------------------------------------------------------------------------------
   60 O2    x      -1.2022      0.1333      0.0647
            y       0.1184     -1.2933     -0.0074
            z       0.0639     -0.0082     -2.0234
-------------------------------------------------------------------------------
   61 O2    x      -1.1766     -0.1191     -0.0018
            y      -0.1016     -1.2635      0.0089
            z      -0.0020      0.0024     -2.0534
-------------------------------------------------------------------------------
   62 O2    x      -1.1974     -0.1347      0.0587
            y      -0.1152     -1.2970      0.0132
            z       0.0548      0.0204     -2.0157
-------------------------------------------------------------------------------
   63 O2    x      -1.2231      0.1383     -0.0600
            y       0.0897     -1.2918     -0.0461
            z      -0.0650     -0.0479     -2.0388
-------------------------------------------------------------------------------
   64 O2    x      -1.1743      0.1159     -0.0640
            y       0.0746     -1.2921     -0.0126
            z      -0.0489     -0.0176     -2.0843
-------------------------------------------------------------------------------
   65 O2    x      -1.2179      0.0039      0.0785
            y       0.0151     -2.5221     -0.0041
            z       0.0960     -0.0016     -1.0012
-------------------------------------------------------------------------------
   66 O2    x      -1.2090      0.0089     -0.0832
            y       0.0191     -2.4831     -0.0063
            z      -0.0955     -0.0005     -1.0309
-------------------------------------------------------------------------------
   67 O2    x      -1.2193     -0.0374      0.0758
            y      -0.0894     -2.5320      0.0339
            z       0.0897      0.0094     -1.0283
-------------------------------------------------------------------------------
   68 O2    x      -1.2511     -0.0507     -0.0688
            y      -0.0874     -2.5812     -0.0104
            z      -0.0879     -0.0087     -0.9985
-------------------------------------------------------------------------------
   69 O2    x      -2.4136     -0.0149     -0.0238
            y      -0.0117     -1.2325      0.0640
            z      -0.0073      0.0382     -1.0392
-------------------------------------------------------------------------------
   70 O2    x      -2.3993      0.0005     -0.0273
            y       0.0039     -1.2285     -0.0638
            z      -0.0063     -0.0362     -1.0472
-------------------------------------------------------------------------------
   71 O2    x      -2.4352      0.0654     -0.0146
            y       0.0240     -1.2511     -0.0677
            z      -0.0300     -0.0356     -1.0406
-------------------------------------------------------------------------------
   72 O2    x      -2.4535      0.0836      0.0320
            y       0.0535     -1.2315      0.0671
            z       0.0095      0.0308     -1.0386
-------------------------------------------------------------------------------




  Elastic Constant Matrix: (Units=GPa)

-------------------------------------------------------------------------------
  Indices      1         2         3         4         5         6    
-------------------------------------------------------------------------------
       1     60.4139   36.1002   20.1451   -0.8983    2.1324    6.5771
       2     36.1002   85.3961   20.8646   -0.8000    4.2027    8.4378
       3     20.1451   20.8646   21.9546   -0.5330   -1.2350    3.1403
       4     -0.8983   -0.8000   -0.5330    9.8537    0.7582    0.0384
       5      2.1324    4.2027   -1.2350    0.7582   22.0040   -1.6966
       6      6.5771    8.4378    3.1403    0.0384   -1.6966   19.9735
-------------------------------------------------------------------------------


  Elastic Compliance Matrix: (Units=1/GPa)

-------------------------------------------------------------------------------
  Indices      1         2         3         4         5         6    
-------------------------------------------------------------------------------
       1    0.026996 -0.006460 -0.018252  0.001172 -0.002719 -0.003524
       2   -0.006460  0.017552 -0.010377  0.000570 -0.003634 -0.003966
       3   -0.018252 -0.010377  0.072669  0.000828  0.007772 -0.000373
       4    0.001172  0.000570  0.000828  0.101979 -0.003788 -0.001275
       5   -0.002719 -0.003634  0.007772 -0.003788  0.047375  0.005240
       6   -0.003524 -0.003966 -0.000373 -0.001275  0.005240  0.053408
-------------------------------------------------------------------------------

  Mechanical properties :

-------------------------------------------------------------------------------
  Convention :                    Reuss         Voigt         Hill
-------------------------------------------------------------------------------
  Bulk  Modulus (GPa)     =      21.25889      35.77607      28.51748
  Shear Modulus (GPa)     =      12.32024      16.40990      14.36507
-------------------------------------------------------------------------------
  Velocity S-wave (km/s)  =       2.51855       2.90665       2.71953
  Velocity P-wave (km/s)  =       4.40483       5.44831       4.95412
-------------------------------------------------------------------------------
  Compressibility (1/GPa) =    0.04703915
-------------------------------------------------------------------------------
  Stress axis :                     x             y             z
-------------------------------------------------------------------------------
  Youngs Moduli (GPa)     =      37.04302      56.97251      13.76108
-------------------------------------------------------------------------------
  Poissons Ratio (x)      =                     0.36802       0.25117
  Poissons Ratio (y)      =       0.23928                     0.14280
  Poissons Ratio (z)      =       0.67612       0.59120
-------------------------------------------------------------------------------


  Piezoelectric Strain Matrix: (Units=C/m**2)

-------------------------------------------------------------------------------
  Indices      1         2         3         4         5         6    
-------------------------------------------------------------------------------
       x     0.22364   0.49363  -0.07843   0.10845   0.57377  -0.24698
       y    -1.18460  -0.99405  -0.06488   0.48249   0.32033   0.43250
       z     0.15826   0.09769  -1.22696  -0.20781  -0.60596   0.21554
-------------------------------------------------------------------------------


  Piezoelectric Stress Matrix: (Units=10**-11 C/N)

-------------------------------------------------------------------------------
  Indices      1         2         3         4         5         6    
-------------------------------------------------------------------------------
       x     0.37177   0.69897  -1.02627   0.96791   2.24653  -1.30391
       y    -2.62033  -1.17272   2.99502   4.54305   2.19434   3.23038
       z     2.66804   1.46535  -9.80259  -1.99464  -3.71119   0.81137
-------------------------------------------------------------------------------


  Static dielectric constant tensor : 

-------------------------------------------------------------------------------
              x         y         z
-------------------------------------------------------------------------------
       x     3.90353   0.03944  -0.00700
       y     0.03944   4.08921  -0.05636
       z    -0.00700  -0.05636   3.39105
--------------------------------------------------------------------------------

  High frequency dielectric constant tensor : 

-------------------------------------------------------------------------------
              x         y         z
-------------------------------------------------------------------------------
       x     1.67510   0.00039   0.00050
       y     0.00039   1.68268  -0.00030
       z     0.00050  -0.00030   1.61065
-------------------------------------------------------------------------------

  Static refractive indices : 

-------------------------------------------------------------------------------
    1 =    1.84024      2 =    1.97371      3 =    2.02528
-------------------------------------------------------------------------------

  High frequency refractive indices : 

-------------------------------------------------------------------------------
    1 =    1.26911      2 =    1.29425      3 =    1.29719
-------------------------------------------------------------------------------


  Time to end of optimisation =       9.3300 seconds


  Peak dynamic memory used =       5.01 MB 


  Timing analysis for GULP :

--------------------------------------------------------------------------------
  Task / Subroutine                                          Time (Seconds)
--------------------------------------------------------------------------------
  Calculation of reciprocal space energy and derivatives          0.5619
  Calculation of real space energy and derivatives                5.9462
  Calculation of three-body energy and derivatives                0.5830
  Calculation and manipulation of Hessian matrix                  2.6264
  Calculation of matrix inversion                                 0.0233
  Global summation overhead                                       0.0001
--------------------------------------------------------------------------------
  Total CPU time                                                  9.3300
--------------------------------------------------------------------------------


  Dump file written as c00016.vasp.grs
  CIF file written as c00016.vasp.cif


  Job Finished at 11:28.47  7th October    2025                               

