********************************************************************************
*                       GENERAL UTILITY LATTICE PROGRAM                        *
*                                 Julian Gale                                  *
*                       Curtin Institute for Computation                       *
*                    School of Molecular and Life Sciences                     *
*                    Curtin University, Western Australia                      *
********************************************************************************
* Version = 6.1.2 * Last modified =   3rd November 2022                        *
********************************************************************************
*  optimise     - perform optimisation run                                     *
*  conp         - constant pressure calculation                                *
*  property     - calculate properties for final geometry                      *
********************************************************************************

  Job Started  at 11:30.16  7th October    2025                               

  Number of CPUs =     1


  Total number of configurations input =      1

********************************************************************************
*  Input for Configuration =   1 : c00025.vasp                                 *
********************************************************************************

  Formula = Ge3Si21O48                                                  

  Number of irreducible atoms/shells =     120


  Total number atoms/shells =     120

  Dimensionality = 3               :  Bulk   



  Cartesian lattice vectors (Angstroms) :

       17.182800    0.000000    0.000000
        0.000000    7.513760    0.000000
        0.000000    0.000000   10.447700

  Cell parameters (Angstroms/Degrees):

  a =      17.1828    alpha =  90.0000
  b =       7.5138    beta  =  90.0000
  c =      10.4477    gamma =  90.0000

  Initial cell volume =        1348.875752 Angs**3

  Temperature of configuration =   0.00     K 

  Pressure of configuration =         0.000 GPa 

  Fractional coordinates of asymmetric unit :

--------------------------------------------------------------------------------
   No.  Atomic       x           y          z         Charge      Occupancy
        Label      (Frac)      (Frac)     (Frac)        (e)         (Frac)  
--------------------------------------------------------------------------------
      1 Ge    c    0.052090    0.000000    0.372270     4.00000    1.000000    
      2 Ge    c    0.556730 *  0.000000 *  0.122130 *   4.00000    1.000000    
      3 Ge    c    0.839810 *  0.293910 *  0.726560 *   4.00000    1.000000    
      4 Si    c    0.447910 *  0.000000 *  0.372270 *   4.00000    1.000000    
      5 Si    c    0.947910 *  0.000000 *  0.627730 *   4.00000    1.000000    
      6 Si    c    0.552090 *  0.000000 *  0.627730 *   4.00000    1.000000    
      7 Si    c    0.943270 *  0.000000 *  0.122130 *   4.00000    1.000000    
      8 Si    c    0.443270 *  0.000000 *  0.877870 *   4.00000    1.000000    
      9 Si    c    0.056730 *  0.000000 *  0.877870 *   4.00000    1.000000    
     10 Si    c    0.160190 *  0.293910 *  0.273440 *   4.00000    1.000000    
     11 Si    c    0.339810 *  0.706090 *  0.273440 *   4.00000    1.000000    
     12 Si    c    0.660190 *  0.706090 *  0.726560 *   4.00000    1.000000    
     13 Si    c    0.839810 *  0.706090 *  0.726560 *   4.00000    1.000000    
     14 Si    c    0.660190 *  0.293910 *  0.726560 *   4.00000    1.000000    
     15 Si    c    0.160190 *  0.706090 *  0.273440 *   4.00000    1.000000    
     16 Si    c    0.339810 *  0.293910 *  0.273440 *   4.00000    1.000000    
     17 Si    c    0.660660 *  0.294090 *  0.017440 *   4.00000    1.000000    
     18 Si    c    0.839340 *  0.705910 *  0.017440 *   4.00000    1.000000    
     19 Si    c    0.339340 *  0.294090 *  0.982560 *   4.00000    1.000000    
     20 Si    c    0.160660 *  0.705910 *  0.982560 *   4.00000    1.000000    
     21 Si    c    0.339340 *  0.705910 *  0.982560 *   4.00000    1.000000    
     22 Si    c    0.160660 *  0.294090 *  0.982560 *   4.00000    1.000000    
     23 Si    c    0.660660 *  0.705910 *  0.017440 *   4.00000    1.000000    
     24 Si    c    0.839340 *  0.294090 *  0.017440 *   4.00000    1.000000    
     25 O3    c    0.106570 *  0.174340 *  0.366200 *   1.33043    1.000000    
     26 O2    c    0.393430 *  0.825660 *  0.366200 *   0.87073    1.000000    
     27 O3    c    0.893430 *  0.174340 *  0.633800 *   1.33043    1.000000    
     28 O2    c    0.606570 *  0.825660 *  0.633800 *   0.87073    1.000000    
     29 O2    c    0.893430 *  0.825660 *  0.633800 *   0.87073    1.000000    
     30 O2    c    0.606570 *  0.174340 *  0.633800 *   0.87073    1.000000    
     31 O3    c    0.106570 *  0.825660 *  0.366200 *   1.33043    1.000000    
     32 O2    c    0.393430 *  0.174340 *  0.366200 *   0.87073    1.000000    
     33 O3    c    0.000000 *  0.000000 *  0.500000 *   1.33043    1.000000    
     34 O2    c    0.500000 *  0.000000 *  0.500000 *   0.87073    1.000000    
     35 O3    c    0.994520 *  0.000000 *  0.250840 *   1.33043    1.000000    
     36 O3    c    0.505480 *  0.000000 *  0.250840 *   1.33043    1.000000    
     37 O2    c    0.005480 *  0.000000 *  0.749160 *   0.87073    1.000000    
     38 O2    c    0.494520 *  0.000000 *  0.749160 *   0.87073    1.000000    
     39 O3    c    0.610230 *  0.175520 *  0.115390 *   1.33043    1.000000    
     40 O2    c    0.889770 *  0.824480 *  0.115390 *   0.87073    1.000000    
     41 O2    c    0.389770 *  0.175520 *  0.884610 *   0.87073    1.000000    
     42 O2    c    0.110230 *  0.824480 *  0.884610 *   0.87073    1.000000    
     43 O2    c    0.389770 *  0.824480 *  0.884610 *   0.87073    1.000000    
     44 O2    c    0.110230 *  0.175520 *  0.884610 *   0.87073    1.000000    
     45 O3    c    0.610230 *  0.824480 *  0.115390 *   1.33043    1.000000    
     46 O2    c    0.889770 *  0.175520 *  0.115390 *   0.87073    1.000000    
     47 O3    c    0.500000 *  0.000000 *  0.000000 *   1.33043    1.000000    
     48 O2    c    0.000000 *  0.000000 *  0.000000 *   0.87073    1.000000    
     49 O2    c    0.151750 *  0.500000 *  0.313330 *   0.87073    1.000000    
     50 O2    c    0.348250 *  0.500000 *  0.313330 *   0.87073    1.000000    
     51 O3    c    0.848250 *  0.500000 *  0.686670 *   1.33043    1.000000    
     52 O2    c    0.651750 *  0.500000 *  0.686670 *   0.87073    1.000000    
     53 O2    c    0.250000 *  0.234950 *  0.285720 *   0.87073    1.000000    
     54 O2    c    0.250000 *  0.765050 *  0.285720 *   0.87073    1.000000    
     55 O3    c    0.750000 *  0.234950 *  0.714280 *   1.33043    1.000000    
     56 O2    c    0.750000 *  0.765050 *  0.714280 *   0.87073    1.000000    
     57 O2    c    0.131410 *  0.268650 *  0.127790 *   0.87073    1.000000    
     58 O2    c    0.368590 *  0.731350 *  0.127790 *   0.87073    1.000000    
     59 O3    c    0.868590 *  0.268650 *  0.872210 *   1.33043    1.000000    
     60 O2    c    0.631410 *  0.731350 *  0.872210 *   0.87073    1.000000    
     61 O2    c    0.868590 *  0.731350 *  0.872210 *   0.87073    1.000000    
     62 O2    c    0.631410 *  0.268650 *  0.872210 *   0.87073    1.000000    
     63 O2    c    0.131410 *  0.731350 *  0.127790 *   0.87073    1.000000    
     64 O2    c    0.368590 *  0.268650 *  0.127790 *   0.87073    1.000000    
     65 O2    c    0.653920 *  0.500000 *  0.058200 *   0.87073    1.000000    
     66 O2    c    0.846080 *  0.500000 *  0.058200 *   0.87073    1.000000    
     67 O2    c    0.346080 *  0.500000 *  0.941800 *   0.87073    1.000000    
     68 O2    c    0.153920 *  0.500000 *  0.941800 *   0.87073    1.000000    
     69 O2    c    0.750000 *  0.231060 *  0.027050 *   0.87073    1.000000    
     70 O2    c    0.750000 *  0.768940 *  0.027050 *   0.87073    1.000000    
     71 O2    c    0.250000 *  0.231060 *  0.972950 *   0.87073    1.000000    
     72 O2    c    0.250000 *  0.768940 *  0.972950 *   0.87073    1.000000    
     73 O3    s    0.106570 *  0.174340 *  0.366200 *  -3.33043    1.000000    
     74 O2    s    0.393430 *  0.825660 *  0.366200 *  -2.87073    1.000000    
     75 O3    s    0.893430 *  0.174340 *  0.633800 *  -3.33043    1.000000    
     76 O2    s    0.606570 *  0.825660 *  0.633800 *  -2.87073    1.000000    
     77 O2    s    0.893430 *  0.825660 *  0.633800 *  -2.87073    1.000000    
     78 O2    s    0.606570 *  0.174340 *  0.633800 *  -2.87073    1.000000    
     79 O3    s    0.106570 *  0.825660 *  0.366200 *  -3.33043    1.000000    
     80 O2    s    0.393430 *  0.174340 *  0.366200 *  -2.87073    1.000000    
     81 O3    s    0.000000 *  0.000000 *  0.500000 *  -3.33043    1.000000    
     82 O2    s    0.500000 *  0.000000 *  0.500000 *  -2.87073    1.000000    
     83 O3    s    0.994520 *  0.000000 *  0.250840 *  -3.33043    1.000000    
     84 O3    s    0.505480 *  0.000000 *  0.250840 *  -3.33043    1.000000    
     85 O2    s    0.005480 *  0.000000 *  0.749160 *  -2.87073    1.000000    
     86 O2    s    0.494520 *  0.000000 *  0.749160 *  -2.87073    1.000000    
     87 O3    s    0.610230 *  0.175520 *  0.115390 *  -3.33043    1.000000    
     88 O2    s    0.889770 *  0.824480 *  0.115390 *  -2.87073    1.000000    
     89 O2    s    0.389770 *  0.175520 *  0.884610 *  -2.87073    1.000000    
     90 O2    s    0.110230 *  0.824480 *  0.884610 *  -2.87073    1.000000    
     91 O2    s    0.389770 *  0.824480 *  0.884610 *  -2.87073    1.000000    
     92 O2    s    0.110230 *  0.175520 *  0.884610 *  -2.87073    1.000000    
     93 O3    s    0.610230 *  0.824480 *  0.115390 *  -3.33043    1.000000    
     94 O2    s    0.889770 *  0.175520 *  0.115390 *  -2.87073    1.000000    
     95 O3    s    0.500000 *  0.000000 *  0.000000 *  -3.33043    1.000000    
     96 O2    s    0.000000 *  0.000000 *  0.000000 *  -2.87073    1.000000    
     97 O2    s    0.151750 *  0.500000 *  0.313330 *  -2.87073    1.000000    
     98 O2    s    0.348250 *  0.500000 *  0.313330 *  -2.87073    1.000000    
     99 O3    s    0.848250 *  0.500000 *  0.686670 *  -3.33043    1.000000    
    100 O2    s    0.651750 *  0.500000 *  0.686670 *  -2.87073    1.000000    
    101 O2    s    0.250000 *  0.234950 *  0.285720 *  -2.87073    1.000000    
    102 O2    s    0.250000 *  0.765050 *  0.285720 *  -2.87073    1.000000    
    103 O3    s    0.750000 *  0.234950 *  0.714280 *  -3.33043    1.000000    
    104 O2    s    0.750000 *  0.765050 *  0.714280 *  -2.87073    1.000000    
    105 O2    s    0.131410 *  0.268650 *  0.127790 *  -2.87073    1.000000    
    106 O2    s    0.368590 *  0.731350 *  0.127790 *  -2.87073    1.000000    
    107 O3    s    0.868590 *  0.268650 *  0.872210 *  -3.33043    1.000000    
    108 O2    s    0.631410 *  0.731350 *  0.872210 *  -2.87073    1.000000    
    109 O2    s    0.868590 *  0.731350 *  0.872210 *  -2.87073    1.000000    
    110 O2    s    0.631410 *  0.268650 *  0.872210 *  -2.87073    1.000000    
    111 O2    s    0.131410 *  0.731350 *  0.127790 *  -2.87073    1.000000    
    112 O2    s    0.368590 *  0.268650 *  0.127790 *  -2.87073    1.000000    
    113 O2    s    0.653920 *  0.500000 *  0.058200 *  -2.87073    1.000000    
    114 O2    s    0.846080 *  0.500000 *  0.058200 *  -2.87073    1.000000    
    115 O2    s    0.346080 *  0.500000 *  0.941800 *  -2.87073    1.000000    
    116 O2    s    0.153920 *  0.500000 *  0.941800 *  -2.87073    1.000000    
    117 O2    s    0.750000 *  0.231060 *  0.027050 *  -2.87073    1.000000    
    118 O2    s    0.750000 *  0.768940 *  0.027050 *  -2.87073    1.000000    
    119 O2    s    0.250000 *  0.231060 *  0.972950 *  -2.87073    1.000000    
    120 O2    s    0.250000 *  0.768940 *  0.972950 *  -2.87073    1.000000    
--------------------------------------------------------------------------------



********************************************************************************
*  General input information                                                   *
********************************************************************************

  Species output for all configurations : 

--------------------------------------------------------------------------------
  Species    Type    Atomic    Atomic    Charge       Radii (Angs)     Library
                     Number     Mass       (e)     Cova   Ionic  VDW   Symbol
--------------------------------------------------------------------------------
    Ge       Core       32      72.61   4.000000   1.170  0.000  1.750 Ge       
    Si       Core       14      28.09   4.000000   1.200  0.000  2.100 Si       
    O1       Core        8      16.00   1.733957   0.730  0.000  0.000 O1       
    O2       Core        8      16.00   0.870733   0.730  0.000  1.360 O2       
    O3       Core        8      16.00   1.330431   0.730  0.000  1.360 O3       
    O1       Shell       8       0.00  -3.733957   0.730  0.000  0.000 O1       
    O2       Shell       8       0.00  -2.870733   0.730  0.000  0.000 O2       
    O3       Shell       8       0.00  -3.330431   0.730  0.000  0.000 O3       
--------------------------------------------------------------------------------


  Lattice summation method               =    Ewald          (3-D)
                                         =    Parry          (2-D)
                                         =    Saunders et al (1-D)
  Accuracy factor for lattice sums       =   12.000


  Analytic derivatives to be used

  Time limit = Infinity

  Maximum range for interatomic potentials =    100000.000000 Angstroms

  General interatomic potentials :

--------------------------------------------------------------------------------
Atom  Types   Potential      Parameter       Value         Units   Cutoffs(Ang)
  1     2                                                            Min /  Max 
--------------------------------------------------------------------------------
Si   c O1   s Buckingham    Buckingham A     1315.2478    eV        0.000 16.000
                            Buckingham rho  0.31775900    Ang       
                            Buckingham C     10.141118    eV*Ang^6  
--------------------------------------------------------------------------------
Si   c O2   s Buckingham    Buckingham A     1315.2478    eV        0.000 16.000
                            Buckingham rho  0.31775900    Ang       
                            Buckingham C     10.141118    eV*Ang^6  
--------------------------------------------------------------------------------
Si   c O3   s Buckingham    Buckingham A     1315.2478    eV        0.000 16.000
                            Buckingham rho  0.31775900    Ang       
                            Buckingham C     10.141118    eV*Ang^6  
--------------------------------------------------------------------------------
Ge   c O1   s Buckingham    Buckingham A     1497.3996    eV        0.000 16.000
                            Buckingham rho  0.32564600    Ang       
                            Buckingham C     16.808599    eV*Ang^6  
--------------------------------------------------------------------------------
Ge   c O2   s Buckingham    Buckingham A     1497.3996    eV        0.000 16.000
                            Buckingham rho  0.32564600    Ang       
                            Buckingham C     16.808599    eV*Ang^6  
--------------------------------------------------------------------------------
Ge   c O3   s Buckingham    Buckingham A     1497.3996    eV        0.000 16.000
                            Buckingham rho  0.32564600    Ang       
                            Buckingham C     16.808599    eV*Ang^6  
--------------------------------------------------------------------------------
O1   s O1   s Buckingham    Buckingham A     22764.000    eV        0.000 16.000
                            Buckingham rho  0.14900000    Ang       
                            Buckingham C     10.937044    eV*Ang^6  
--------------------------------------------------------------------------------
O1   s O2   s Buckingham    Buckingham A     22764.000    eV        0.000 16.000
                            Buckingham rho  0.14900000    Ang       
                            Buckingham C     10.937044    eV*Ang^6  
--------------------------------------------------------------------------------
O1   s O3   s Buckingham    Buckingham A     22764.000    eV        0.000 16.000
                            Buckingham rho  0.14900000    Ang       
                            Buckingham C     10.937044    eV*Ang^6  
--------------------------------------------------------------------------------
O2   s O2   s Buckingham    Buckingham A     22764.000    eV        0.000 16.000
                            Buckingham rho  0.14900000    Ang       
                            Buckingham C     10.937044    eV*Ang^6  
--------------------------------------------------------------------------------
O2   s O3   s Buckingham    Buckingham A     22764.000    eV        0.000 16.000
                            Buckingham rho  0.14900000    Ang       
                            Buckingham C     10.937044    eV*Ang^6  
--------------------------------------------------------------------------------
O3   s O3   s Buckingham    Buckingham A     22764.000    eV        0.000 16.000
                            Buckingham rho  0.14900000    Ang       
                            Buckingham C     10.937044    eV*Ang^6  
--------------------------------------------------------------------------------
O1   c O1   s Spring (c-s)  Spring k 2       180.31577    eV*Ang^-2 0.000  0.800
                            Spring k 4       0.0000000    eV*Ang^-4 
--------------------------------------------------------------------------------
O2   c O2   s Spring (c-s)  Spring k 2       75.969800    eV*Ang^-2 0.000  0.800
                            Spring k 4       0.0000000    eV*Ang^-4 
--------------------------------------------------------------------------------
O3   c O3   s Spring (c-s)  Spring k 2       128.14270    eV*Ang^-2 0.000  0.800
                            Spring k 4       0.0000000    eV*Ang^-4 
--------------------------------------------------------------------------------

  General Three-body potentials :

--------------------------------------------------------------------------------
  Atoms       Potential      Parameter       Value         Units   Cutoffs(Ang)
  1 / 2 / 3                                                          Min /  Max 
--------------------------------------------------------------------------------
Si    core    Harmonic      Three-body cnst  1.2614000    eV*rad^-2 0.000  1.900
O1    shel                  Three-body angl  109.47000    degrees   0.000  1.900
O1    shel                  Three-body k4    0.0000000    eV*rad^-4 0.000  3.500
                            Three-body k3    0.0000000    eV*rad^-3 
--------------------------------------------------------------------------------
Si    core    Harmonic      Three-body cnst  1.2614000    eV*rad^-2 0.000  1.900
O1    shel                  Three-body angl  109.47000    degrees   0.000  1.900
õ(1   shel                  Three-body k4    0.0000000    eV*rad^-4 0.000  3.500
                            Three-body k3    0.0000000    eV*rad^-3 
--------------------------------------------------------------------------------
Si    core    Harmonic      Three-body cnst  1.2614000    eV*rad^-2 0.000  1.900
õ(1   shel                  Three-body angl  109.47000    degrees   0.000  1.900
õ(1   shel                  Three-body k4    0.0000000    eV*rad^-4 0.000  3.500
                            Three-body k3    0.0000000    eV*rad^-3 
--------------------------------------------------------------------------------
Si    core    Harmonic      Three-body cnst  1.2614000    eV*rad^-2 0.000  1.900
O1    shel                  Three-body angl  109.47000    degrees   0.000  1.900
O2    shel                  Three-body k4    0.0000000    eV*rad^-4 0.000  3.500
                            Three-body k3    0.0000000    eV*rad^-3 
--------------------------------------------------------------------------------
Si    core    Harmonic      Three-body cnst  1.2614000    eV*rad^-2 0.000  1.900
O1    shel                  Three-body angl  109.47000    degrees   0.000  1.900
õ(2   shel                  Three-body k4    0.0000000    eV*rad^-4 0.000  3.500
                            Three-body k3    0.0000000    eV*rad^-3 
--------------------------------------------------------------------------------
Si    core    Harmonic      Three-body cnst  1.2614000    eV*rad^-2 0.000  1.900
O2    shel                  Three-body angl  109.47000    degrees   0.000  1.900
õ(1   shel                  Three-body k4    0.0000000    eV*rad^-4 0.000  3.500
                            Three-body k3    0.0000000    eV*rad^-3 
--------------------------------------------------------------------------------
Si    core    Harmonic      Three-body cnst  1.2614000    eV*rad^-2 0.000  1.900
õ(1   shel                  Three-body angl  109.47000    degrees   0.000  1.900
õ(2   shel                  Three-body k4    0.0000000    eV*rad^-4 0.000  3.500
                            Three-body k3    0.0000000    eV*rad^-3 
--------------------------------------------------------------------------------
Si    core    Harmonic      Three-body cnst  1.2614000    eV*rad^-2 0.000  1.900
O2    shel                  Three-body angl  109.47000    degrees   0.000  1.900
O2    shel                  Three-body k4    0.0000000    eV*rad^-4 0.000  3.500
                            Three-body k3    0.0000000    eV*rad^-3 
--------------------------------------------------------------------------------
Si    core    Harmonic      Three-body cnst  1.2614000    eV*rad^-2 0.000  1.900
O2    shel                  Three-body angl  109.47000    degrees   0.000  1.900
õ(2   shel                  Three-body k4    0.0000000    eV*rad^-4 0.000  3.500
                            Three-body k3    0.0000000    eV*rad^-3 
--------------------------------------------------------------------------------
Si    core    Harmonic      Three-body cnst  1.2614000    eV*rad^-2 0.000  1.900
õ(2   shel                  Three-body angl  109.47000    degrees   0.000  1.900
õ(2   shel                  Three-body k4    0.0000000    eV*rad^-4 0.000  3.500
                            Three-body k3    0.0000000    eV*rad^-3 
--------------------------------------------------------------------------------

********************************************************************************
*  Output for configuration   1 : c00025.vasp                                  *
********************************************************************************


  Components of energy : 

--------------------------------------------------------------------------------
  Interatomic potentials     =         760.33974970 eV    
  Three-body potentials      =           0.01231044 eV    
  Monopole - monopole (real) =       -2676.00317478 eV    
  Monopole - monopole (recip)=       -1115.35404472 eV    
  Monopole - monopole (total)=       -3791.35721950 eV    
--------------------------------------------------------------------------------
  Total lattice energy       =       -3031.00515937 eV    
--------------------------------------------------------------------------------
  Total lattice energy       =         -292445.6647 kJ/(mole unit cells)
--------------------------------------------------------------------------------


  Number of variables =      363

  Maximum number of calculations  =          1000
  Maximum Hessian update interval =            10
  Maximum step size               =   0.100000000
  Maximum parameter tolerance     =   0.000010000
  Maximum function  tolerance     =   0.000010000
  Maximum gradient  tolerance     =   0.001000000
  Maximum gradient  component     =   0.010000000

  Symmetry not applied to optimisation

  Cell parameters to be optimised using strains

  Newton-Raphson optimiser to be used

  BFGS hessian update to be used

  Lower half triangular hessian to be used

  Minimiser to switch to RFO
  When gradient norm is less than     0.050000

  Dumpfile to be written after every cycle

  Start of bulk optimisation :

  Cycle:      0 Energy:     -3031.005159  Gnorm:      4.346773  CPU:    0.120
  ** Hessian calculated **
  Cycle:      1 Energy:     -3061.900989  Gnorm:      0.979160  CPU:    0.259
  ** Hessian calculated **
  Cycle:      2 Energy:     -3065.559456  Gnorm:      0.566775  CPU:    0.512
  ** Hessian calculated **
  Cycle:      3 Energy:     -3067.186232  Gnorm:      0.332131  CPU:    0.745
  ** Hessian calculated **
  Cycle:      4 Energy:     -3067.475364  Gnorm:      0.177442  CPU:    0.959
  Cycle:      5 Energy:     -3067.564801  Gnorm:      0.113321  CPU:    1.071
  Cycle:      6 Energy:     -3067.635832  Gnorm:      0.088116  CPU:    1.203
  Cycle:      7 Energy:     -3067.704819  Gnorm:      0.070473  CPU:    1.335
  Cycle:      8 Energy:     -3067.752706  Gnorm:      0.060157  CPU:    1.447
  Cycle:      9 Energy:     -3067.783106  Gnorm:      0.045463  CPU:    1.558
  ** Hessian has required structure
  Cycle:     10 Energy:     -3067.790771  Gnorm:      0.057316  CPU:    1.719
  ** Hessian has required structure
  Cycle:     11 Energy:     -3067.797907  Gnorm:      0.050320  CPU:    1.878
  ** Hessian has required structure
  Cycle:     12 Energy:     -3067.804949  Gnorm:      0.053705  CPU:    2.059
  ** Hessian has required structure
  Cycle:     13 Energy:     -3067.812362  Gnorm:      0.054597  CPU:    2.240
  ** Hessian has wrong structure
  ** Imaginary eigenvectors =   3
  Cycle:     14 Energy:     -3067.836157  Gnorm:      0.054365  CPU:    2.760
  ** Hessian has wrong structure
  ** Imaginary eigenvectors =   3
  Cycle:     15 Energy:     -3067.858697  Gnorm:      0.058888  CPU:    3.223
  ** Hessian has wrong structure
  ** Imaginary eigenvectors =   1
  ** Hessian has required structure
  Cycle:     16 Energy:     -3068.099304  Gnorm:      0.040159  CPU:    3.812
  ** Hessian has required structure
  Cycle:     17 Energy:     -3068.189447  Gnorm:      0.028751  CPU:    4.018
  ** Hessian has required structure
  Cycle:     18 Energy:     -3068.235125  Gnorm:      0.028026  CPU:    4.223
  ** Hessian has required structure
  Cycle:     19 Energy:     -3068.265476  Gnorm:      0.023519  CPU:    4.407
  ** Hessian has required structure
  Cycle:     20 Energy:     -3068.284268  Gnorm:      0.020594  CPU:    4.627
  ** Hessian has required structure
  Cycle:     21 Energy:     -3068.291178  Gnorm:      0.017833  CPU:    4.802
  ** Hessian has required structure
  Cycle:     22 Energy:     -3068.303530  Gnorm:      0.014577  CPU:    5.021
  ** Hessian has required structure
  Cycle:     23 Energy:     -3068.307973  Gnorm:      0.010570  CPU:    5.216
  ** Hessian has required structure
  Cycle:     24 Energy:     -3068.311273  Gnorm:      0.008332  CPU:    5.412
  ** Hessian has required structure
  Cycle:     25 Energy:     -3068.313556  Gnorm:      0.005089  CPU:    5.608
  ** Hessian has required structure
  Cycle:     26 Energy:     -3068.316766  Gnorm:      0.003602  CPU:    5.904
  ** Hessian has required structure
  Cycle:     27 Energy:     -3068.317870  Gnorm:      0.002553  CPU:    6.099
  ** Hessian has required structure
  Cycle:     28 Energy:     -3068.318221  Gnorm:      0.001493  CPU:    6.293
  ** Hessian has required structure
  Cycle:     29 Energy:     -3068.318346  Gnorm:      0.000962  CPU:    6.490
  ** Hessian has required structure
  Cycle:     30 Energy:     -3068.318400  Gnorm:      0.000463  CPU:    6.708
  ** Hessian has required structure
  Cycle:     31 Energy:     -3068.318412  Gnorm:      0.000296  CPU:    6.902
  ** Hessian has required structure
  Cycle:     32 Energy:     -3068.318416  Gnorm:      0.000168  CPU:    7.093
  ** Hessian has required structure
  Cycle:     33 Energy:     -3068.318418  Gnorm:      0.000107  CPU:    7.283
  ** Hessian has required structure


  **** Optimisation achieved ****


  Final energy =   -3068.31841884 eV      
  Final Gnorm  =       0.00007172

  Components of energy : 

--------------------------------------------------------------------------------
  Interatomic potentials     =         815.86124329 eV    
  Three-body potentials      =           0.21690823 eV    
  Monopole - monopole (real) =       -2208.54733218 eV    
  Monopole - monopole (recip)=       -1675.84923818 eV    
  Monopole - monopole (total)=       -3884.39657036 eV    
--------------------------------------------------------------------------------
  Total lattice energy       =       -3068.31841884 eV    
--------------------------------------------------------------------------------
  Total lattice energy       =         -296045.8239 kJ/(mole unit cells)
--------------------------------------------------------------------------------

  Final fractional coordinates of atoms :

--------------------------------------------------------------------------------
   No.  Atomic        x           y          z          Radius
        Label       (Frac)      (Frac)     (Frac)       (Angs) 
--------------------------------------------------------------------------------
     1  Ge    c     0.052090    0.000000    0.372270    0.000000
     2  Ge    c     0.557648    0.016983    0.121889    0.000000
     3  Ge    c     0.830925    0.294477    0.700180    0.000000
     4  Si    c     0.452246    0.010891    0.368391    0.000000
     5  Si    c     0.949021    0.006052    0.628845    0.000000
     6  Si    c     0.544360    0.021555    0.633483    0.000000
     7  Si    c     0.940358    0.998778    0.123390    0.000000
     8  Si    c     0.438988    0.006812    0.881066    0.000000
     9  Si    c     0.050311    0.009955    0.887872    0.000000
    10  Si    c     0.167978    0.292854    0.270263    0.000000
    11  Si    c     0.339023    0.718259    0.265102    0.000000
    12  Si    c     0.662020    0.733871    0.710168    0.000000
    13  Si    c     0.842303    0.703893    0.704848    0.000000
    14  Si    c     0.649204    0.328428    0.705660    0.000000
    15  Si    c     0.160522    0.699834    0.271168    0.000000
    16  Si    c     0.346527    0.314630    0.266599    0.000000
    17  Si    c     0.653009    0.331308    0.011316    0.000000
    18  Si    c     0.848658    0.687461    0.009649    0.000000
    19  Si    c     0.341238    0.319390    0.961427    0.000000
    20  Si    c     0.151310    0.699155    0.968056    0.000000
    21  Si    c     0.330750    0.716482    0.959292    0.000000
    22  Si    c     0.161646    0.298504    0.967021    0.000000
    23  Si    c     0.669390    0.729533    0.013065    0.000000
    24  Si    c     0.831546    0.288389    0.012112    0.000000
    25  O3    c     0.115219    0.173476    0.357810    0.000000
    26  O2    c     0.394590    0.847724    0.345113    0.000000
    27  O3    c     0.889264    0.165581    0.606948    0.000000
    28  O2    c     0.610017    0.869660    0.625301    0.000000
    29  O2    c     0.897303    0.829562    0.622077    0.000000
    30  O2    c     0.585215    0.212070    0.628334    0.000000
    31  O3    c     0.103783    0.807627    0.359302    0.000000
    32  O2    c     0.406724    0.194040    0.346719    0.000000
    33  O3    c     0.016743    0.004205    0.527448    0.000000
    34  O2    c     0.482460    0.003209    0.516819    0.000000
    35  O3    c     0.972056    0.009330    0.269483    0.000000
    36  O3    c     0.526345    0.001739    0.278855    0.000000
    37  O2    c     0.988194    0.027770    0.772130    0.000000
    38  O2    c     0.498607    0.996547    0.765984    0.000000
    39  O3    c     0.593556    0.224380    0.095367    0.000000
    40  O2    c     0.905948    0.804788    0.097798    0.000000
    41  O2    c     0.396075    0.195881    0.877023    0.000000
    42  O2    c     0.093654    0.821504    0.881947    0.000000
    43  O2    c     0.374862    0.852740    0.867941    0.000000
    44  O2    c     0.112843    0.166555    0.876287    0.000000
    45  O3    c     0.631006    0.865063    0.107413    0.000000
    46  O2    c     0.874968    0.148419    0.104982    0.000000
    47  O3    c     0.482172    0.970635    0.017319    0.000000
    48  O2    c     0.010073    0.035251    0.025970    0.000000
    49  O2    c     0.146359    0.494694    0.295174    0.000000
    50  O2    c     0.363578    0.517984    0.297832    0.000000
    51  O3    c     0.859938    0.506378    0.669532    0.000000
    52  O2    c     0.633555    0.535666    0.682254    0.000000
    53  O2    c     0.259165    0.263868    0.305032    0.000000
    54  O2    c     0.250016    0.749156    0.305127    0.000000
    55  O3    c     0.733728    0.278511    0.656570    0.000000
    56  O2    c     0.752059    0.751726    0.671839    0.000000
    57  O2    c     0.152999    0.245259    0.118367    0.000000
    58  O2    c     0.346848    0.757231    0.111589    0.000000
    59  O3    c     0.840312    0.236327    0.862607    0.000000
    60  O2    c     0.653926    0.784263    0.862013    0.000000
    61  O2    c     0.860269    0.734758    0.858403    0.000000
    62  O2    c     0.642625    0.282626    0.858902    0.000000
    63  O2    c     0.141541    0.747973    0.119716    0.000000
    64  O2    c     0.358867    0.278962    0.113651    0.000000
    65  O2    c     0.634838    0.535670    0.034310    0.000000
    66  O2    c     0.867840    0.482510    0.034439    0.000000
    67  O2    c     0.360698    0.520685    0.927891    0.000000
    68  O2    c     0.130237    0.496159    0.942764    0.000000
    69  O2    c     0.741835    0.287594    0.053192    0.000000
    70  O2    c     0.760800    0.728178    0.047471    0.000000
    71  O2    c     0.251188    0.282586    0.927316    0.000000
    72  O2    c     0.239362    0.733719    0.926343    0.000000
    73  O3    s     0.115640    0.171887    0.349579    0.000000
    74  O2    s     0.394498    0.850700    0.338448    0.000000
    75  O3    s     0.890248    0.160701    0.616857    0.000000
    76  O2    s     0.608847    0.870724    0.635444    0.000000
    77  O2    s     0.896714    0.834186    0.631830    0.000000
    78  O2    s     0.587764    0.204499    0.637091    0.000000
    79  O3    s     0.105590    0.812041    0.350886    0.000000
    80  O2    s     0.404745    0.188052    0.339870    0.000000
    81  O3    s     0.012447    0.004046    0.525135    0.000000
    82  O2    s     0.486196    0.006217    0.513486    0.000000
    83  O3    s     0.975478    0.007426    0.262748    0.000000
    84  O3    s     0.521356    0.004008    0.274717    0.000000
    85  O2    s     0.991255    0.023367    0.770353    0.000000
    86  O2    s     0.496764    0.000628    0.764592    0.000000
    87  O3    s     0.596940    0.218677    0.088575    0.000000
    88  O2    s     0.903237    0.812191    0.090699    0.000000
    89  O2    s     0.394521    0.189717    0.886787    0.000000
    90  O2    s     0.095402    0.827797    0.891944    0.000000
    91  O2    s     0.376669    0.853765    0.879446    0.000000
    92  O2    s     0.111655    0.164655    0.887591    0.000000
    93  O3    s     0.629051    0.862992    0.098331    0.000000
    94  O2    s     0.877222    0.147785    0.096561    0.000000
    95  O3    s     0.484287    0.978412    0.012312    0.000000
    96  O2    s     0.006853    0.028476    0.021527    0.000000
    97  O2    s     0.150286    0.495258    0.289816    0.000000
    98  O2    s     0.359134    0.517431    0.291008    0.000000
    99  O3    s     0.855688    0.509834    0.675762    0.000000
   100  O2    s     0.638213    0.534870    0.687664    0.000000
   101  O2    s     0.258890    0.272366    0.297255    0.000000
   102  O2    s     0.250136    0.740682    0.297285    0.000000
   103  O3    s     0.733104    0.284780    0.664999    0.000000
   104  O2    s     0.751810    0.744869    0.679361    0.000000
   105  O2    s     0.155495    0.255825    0.118229    0.000000
   106  O2    s     0.344264    0.748683    0.111857    0.000000
   107  O3    s     0.838667    0.246266    0.864460    0.000000
   108  O2    s     0.656370    0.773357    0.861788    0.000000
   109  O2    s     0.857120    0.726497    0.858624    0.000000
   110  O2    s     0.644399    0.292497    0.858834    0.000000
   111  O2    s     0.144522    0.737954    0.119367    0.000000
   112  O2    s     0.355689    0.287016    0.113694    0.000000
   113  O2    s     0.640454    0.534407    0.029573    0.000000
   114  O2    s     0.862106    0.484293    0.029543    0.000000
   115  O2    s     0.355428    0.519730    0.934840    0.000000
   116  O2    s     0.135803    0.497001    0.948030    0.000000
   117  O2    s     0.741989    0.292376    0.044309    0.000000
   118  O2    s     0.760576    0.723709    0.039447    0.000000
   119  O2    s     0.251259    0.288420    0.935399    0.000000
   120  O2    s     0.239727    0.727964    0.934549    0.000000
--------------------------------------------------------------------------------

  Final Cartesian lattice vectors (Angstroms) :

       17.206054    0.028046   -0.194062
        0.012037    7.630101    0.018898
       -0.117135    0.028451   10.246566


  Final cell parameters and derivatives :

--------------------------------------------------------------------------------
       a           17.207171 Angstrom     dE/de1(xx)     0.004825 eV/strain
       b            7.630134 Angstrom     dE/de2(yy)     0.006877 eV/strain
       c           10.247275 Angstrom     dE/de3(zz)     0.006860 eV/strain
       alpha       89.700055 Degrees      dE/de4(yz)    -0.000189 eV/strain
       beta        91.300884 Degrees      dE/de5(xz)     0.000112 eV/strain
       gamma       89.817831 Degrees      dE/de6(xy)    -0.000008 eV/strain
--------------------------------------------------------------------------------

  Primitive cell volume =          1345.023204 Angs**3

  Density of cell =      1.945384 g/cm**3

  Non-primitive cell volume =          1345.023204 Angs**3


  Final internal derivatives :

--------------------------------------------------------------------------------
   No.  Atomic          a             b             c           Radius
        Label          (eV)          (eV)          (eV)        (eV/Angs)
--------------------------------------------------------------------------------
      1 Ge    c       0.000000      0.000000      0.000000      0.000000
      2 Ge    c       0.001501     -0.000018     -0.000825      0.000000
      3 Ge    c       0.004789     -0.002683     -0.002973      0.000000
      4 Si    c       0.000016      0.000229      0.000557      0.000000
      5 Si    c      -0.000075     -0.000179      0.000595      0.000000
      6 Si    c      -0.001737      0.000124      0.000169      0.000000
      7 Si    c      -0.000272     -0.000157     -0.000678      0.000000
      8 Si    c      -0.001059      0.000245      0.000411      0.000000
      9 Si    c      -0.000194     -0.000250      0.000207      0.000000
     10 Si    c      -0.000289     -0.000290      0.000391      0.000000
     11 Si    c       0.000404      0.000229      0.000699      0.000000
     12 Si    c      -0.000199      0.000060      0.001324      0.000000
     13 Si    c       0.001355      0.003495     -0.000753      0.000000
     14 Si    c      -0.004512     -0.000083     -0.000844      0.000000
     15 Si    c      -0.000466      0.000719      0.000967      0.000000
     16 Si    c       0.000893     -0.000594      0.000430      0.000000
     17 Si    c      -0.002078      0.000340      0.000895      0.000000
     18 Si    c       0.001197      0.001673      0.002295      0.000000
     19 Si    c       0.000301     -0.000904     -0.000599      0.000000
     20 Si    c      -0.000601      0.000895     -0.000667      0.000000
     21 Si    c      -0.000901      0.000546     -0.001071      0.000000
     22 Si    c       0.000730     -0.000517     -0.000625      0.000000
     23 Si    c       0.000160     -0.000156      0.001250      0.000000
     24 Si    c      -0.000713     -0.000366      0.004518      0.000000
     25 O3    c       0.000429      0.000143     -0.000068      0.000000
     26 O2    c      -0.001042     -0.000379     -0.000580      0.000000
     27 O3    c      -0.001658      0.000360      0.001524      0.000000
     28 O2    c      -0.000119      0.000100     -0.000138      0.000000
     29 O2    c      -0.001025     -0.000421      0.000893      0.000000
     30 O2    c       0.001191      0.000383      0.000404      0.000000
     31 O3    c       0.001224     -0.000350     -0.000833      0.000000
     32 O2    c      -0.000536      0.000134     -0.000417      0.000000
     33 O3    c      -0.000314     -0.000381     -0.000359      0.000000
     34 O2    c      -0.000712     -0.000006     -0.000161      0.000000
     35 O3    c       0.000550      0.000065      0.000244      0.000000
     36 O3    c      -0.000097     -0.000063      0.001104      0.000000
     37 O2    c      -0.000215     -0.000299     -0.000303      0.000000
     38 O2    c       0.002720      0.000046     -0.001717      0.000000
     39 O3    c       0.000141     -0.000041     -0.000121      0.000000
     40 O2    c      -0.000865     -0.000167     -0.001446      0.000000
     41 O2    c      -0.000396     -0.000102      0.000418      0.000000
     42 O2    c       0.000819     -0.000362      0.000666      0.000000
     43 O2    c      -0.000668     -0.000429      0.000727      0.000000
     44 O2    c      -0.000128     -0.000254      0.000413      0.000000
     45 O3    c       0.001330     -0.000876     -0.002068      0.000000
     46 O2    c      -0.001032      0.000555     -0.001291      0.000000
     47 O3    c      -0.000194     -0.000402      0.000967      0.000000
     48 O2    c      -0.001855     -0.000324      0.000565      0.000000
     49 O2    c      -0.000457     -0.000349      0.000460      0.000000
     50 O2    c       0.000019      0.000822      0.000470      0.000000
     51 O3    c       0.004762     -0.000806     -0.004806      0.000000
     52 O2    c      -0.000778      0.000991     -0.000928      0.000000
     53 O2    c      -0.001419     -0.000254      0.000472      0.000000
     54 O2    c       0.000092      0.000107      0.000061      0.000000
     55 O3    c      -0.002667     -0.002157     -0.001968      0.000000
     56 O2    c      -0.003114      0.000689     -0.000151      0.000000
     57 O2    c      -0.000035     -0.000356      0.000519      0.000000
     58 O2    c       0.000323     -0.000000      0.000461      0.000000
     59 O3    c       0.005493     -0.001851     -0.000809      0.000000
     60 O2    c      -0.000759      0.000201     -0.002106      0.000000
     61 O2    c       0.001358      0.000322      0.000669      0.000000
     62 O2    c      -0.002273     -0.000802      0.001091      0.000000
     63 O2    c      -0.000289      0.000105      0.000013      0.000000
     64 O2    c       0.000365     -0.000072     -0.000277      0.000000
     65 O2    c      -0.000490      0.000737      0.000170      0.000000
     66 O2    c       0.001735     -0.001498      0.000894      0.000000
     67 O2    c       0.000448      0.001147      0.000045      0.000000
     68 O2    c      -0.000863     -0.001043      0.000001      0.000000
     69 O2    c       0.003156     -0.000535      0.000521      0.000000
     70 O2    c      -0.003106      0.000203     -0.000428      0.000000
     71 O2    c      -0.000752      0.000740     -0.000943      0.000000
     72 O2    c       0.002240     -0.000548     -0.000736      0.000000
     73 O3    s      -0.000484     -0.000199      0.000181      0.000000
     74 O2    s       0.000403     -0.000053      0.000122      0.000000
     75 O3    s       0.002795     -0.000500     -0.001481      0.000000
     76 O2    s      -0.000995      0.000394     -0.000230      0.000000
     77 O2    s       0.001736      0.001057     -0.001158      0.000000
     78 O2    s      -0.002376     -0.000703     -0.000696      0.000000
     79 O3    s      -0.001412      0.000249      0.000068      0.000000
     80 O2    s       0.001125     -0.000074      0.000176      0.000000
     81 O3    s      -0.000785      0.000451      0.000453      0.000000
     82 O2    s       0.000405     -0.000010      0.000469      0.000000
     83 O3    s       0.000055     -0.000358     -0.000376      0.000000
     84 O3    s       0.000862      0.000023      0.000020      0.000000
     85 O2    s       0.000809      0.000611      0.000430      0.000000
     86 O2    s      -0.001126     -0.000162      0.000562      0.000000
     87 O3    s      -0.001635     -0.000090      0.000813      0.000000
     88 O2    s       0.000675      0.000888      0.000537      0.000000
     89 O2    s       0.000658      0.000246     -0.000321      0.000000
     90 O2    s      -0.000501      0.000436     -0.000190      0.000000
     91 O2    s      -0.000981     -0.000095     -0.000482      0.000000
     92 O2    s      -0.000337      0.000072     -0.000569      0.000000
     93 O3    s       0.000231      0.000714      0.001346      0.000000
     94 O2    s       0.000153     -0.000630      0.000528      0.000000
     95 O3    s       0.000339      0.000279     -0.000463      0.000000
     96 O2    s       0.000312      0.000138      0.000116      0.000000
     97 O2    s      -0.001143     -0.000015      0.000578      0.000000
     98 O2    s       0.001524      0.000178      0.000630      0.000000
     99 O3    s       0.002864     -0.000523     -0.001720      0.000000
    100 O2    s      -0.002739      0.000546     -0.002175      0.000000
    101 O2    s      -0.000260     -0.000653      0.000659      0.000000
    102 O2    s       0.000274      0.000675      0.000589      0.000000
    103 O3    s       0.001271     -0.001440     -0.002255      0.000000
    104 O2    s      -0.001301      0.001993     -0.002458      0.000000
    105 O2    s       0.000399     -0.000369     -0.000538      0.000000
    106 O2    s       0.000330      0.000248     -0.000408      0.000000
    107 O3    s       0.000932     -0.001043      0.000854      0.000000
    108 O2    s      -0.001861      0.001187      0.000665      0.000000
    109 O2    s       0.004870      0.001834      0.000663      0.000000
    110 O2    s      -0.003710     -0.001425     -0.000022      0.000000
    111 O2    s      -0.000828      0.000730      0.000166      0.000000
    112 O2    s       0.001098     -0.000540     -0.000285      0.000000
    113 O2    s      -0.002413      0.000509      0.002390      0.000000
    114 O2    s       0.003846     -0.000171      0.001950      0.000000
    115 O2    s       0.001591     -0.000082     -0.000426      0.000000
    116 O2    s      -0.002253     -0.000118     -0.000359      0.000000
    117 O2    s      -0.000129     -0.001667      0.002287      0.000000
    118 O2    s      -0.000409      0.002071      0.003191      0.000000
    119 O2    s      -0.000335     -0.000674     -0.000707      0.000000
    120 O2    s       0.000026      0.000809     -0.000831      0.000000
--------------------------------------------------------------------------------
  Maximum abs         0.005493      0.003495      0.004806      0.000000
--------------------------------------------------------------------------------


  Born effective charge tensors : 

-------------------------------------------------------------------------------
  Atom             x           y             z
-------------------------------------------------------------------------------
    1 Ge    x       4.2564     -0.0515     -0.4075
            y       0.0773      3.9232      0.0081
            z      -0.3475      0.0251      4.6200
-------------------------------------------------------------------------------
    2 Ge    x       4.2997      0.2086     -0.4268
            y      -0.1945      3.9310     -0.0267
            z      -0.4715     -0.0329      3.8851
-------------------------------------------------------------------------------
    3 Ge    x       3.9845     -0.3596     -0.1489
            y      -0.2635      4.1667      0.1922
            z      -0.1586      0.0303      3.4121
-------------------------------------------------------------------------------
    4 Si    x       3.6911     -0.0554      0.2380
            y       0.0669      3.3278      0.0224
            z       0.0697     -0.0085      4.0196
-------------------------------------------------------------------------------
    5 Si    x       3.9371     -0.0971     -0.1146
            y      -0.2254      3.4432     -0.0568
            z      -0.9792      0.0438      3.9963
-------------------------------------------------------------------------------
    6 Si    x       3.4441      0.1319      0.0118
            y      -0.1140      3.2386      0.0138
            z       0.6068      0.0356      3.6836
-------------------------------------------------------------------------------
    7 Si    x       3.5825      0.1534      0.4535
            y      -0.1453      3.3001      0.0429
            z       0.4684      0.0742      3.5485
-------------------------------------------------------------------------------
    8 Si    x       3.6321     -0.1575      0.0321
            y       0.0892      3.3252     -0.0254
            z      -0.5413     -0.0419      3.2788
-------------------------------------------------------------------------------
    9 Si    x       3.5073     -0.1037      0.0256
            y       0.1179      3.2735     -0.0185
            z       0.6029     -0.0400      2.9381
-------------------------------------------------------------------------------
   10 Si    x       3.3942      0.3960     -0.2692
            y       0.3786      3.5882     -0.3317
            z      -0.2551     -0.1995      3.0071
-------------------------------------------------------------------------------
   11 Si    x       3.1625      0.2530      0.1117
            y       0.2378      3.4643      0.1362
            z       0.1512      0.1026      2.8427
-------------------------------------------------------------------------------
   12 Si    x       3.2332     -0.3053      0.1402
            y      -0.1754      3.4463     -0.1625
            z       0.1065     -0.0407      2.7762
-------------------------------------------------------------------------------
   13 Si    x       3.3093      0.1712     -0.1062
            y       0.1633      3.7390     -0.0507
            z      -0.1015      0.0136      2.8806
-------------------------------------------------------------------------------
   14 Si    x       3.5120      0.1661     -0.0492
            y       0.2547      3.5575      0.2230
            z       0.0403      0.0926      2.8563
-------------------------------------------------------------------------------
   15 Si    x       3.4176     -0.3343     -0.2611
            y      -0.4156      3.5271      0.3317
            z      -0.2615      0.1850      3.0143
-------------------------------------------------------------------------------
   16 Si    x       3.1573     -0.1994      0.0823
            y      -0.2817      3.4228     -0.1393
            z       0.1333     -0.0937      2.8320
-------------------------------------------------------------------------------
   17 Si    x       3.5094      0.3786     -0.2854
            y       0.4044      3.5109     -0.3190
            z      -0.3359     -0.1537      2.8937
-------------------------------------------------------------------------------
   18 Si    x       3.2358      0.2408      0.1356
            y       0.2553      3.3964      0.1764
            z       0.1483      0.0486      2.6958
-------------------------------------------------------------------------------
   19 Si    x       3.2448     -0.2590     -0.1386
            y      -0.2462      3.3929      0.1542
            z      -0.1455      0.0781      2.7239
-------------------------------------------------------------------------------
   20 Si    x       3.2728     -0.2770      0.1316
            y      -0.2565      3.4172     -0.1838
            z       0.1357     -0.0411      2.6664
-------------------------------------------------------------------------------
   21 Si    x       3.2208      0.3082     -0.1707
            y       0.1402      3.4215     -0.1567
            z      -0.1183     -0.0745      2.7299
-------------------------------------------------------------------------------
   22 Si    x       3.2522      0.3136      0.1637
            y       0.1536      3.4426      0.1878
            z       0.1145      0.0442      2.6726
-------------------------------------------------------------------------------
   23 Si    x       3.3412     -0.4706     -0.3014
            y      -0.2011      3.6108      0.3880
            z      -0.1999      0.2335      2.9414
-------------------------------------------------------------------------------
   24 Si    x       3.2677     -0.3489      0.1031
            y      -0.1237      3.5494     -0.0987
            z       0.0893      0.0014      3.0050
-------------------------------------------------------------------------------
   25 O3    x      -2.1050     -0.9642      0.5674
            y      -1.0150     -2.3338      0.5731
            z       0.5853      0.5493     -1.6501
-------------------------------------------------------------------------------
   26 O2    x      -1.7145     -0.7247     -0.4043
            y      -0.7436     -1.9984     -0.4055
            z      -0.4012     -0.3962     -1.3811
-------------------------------------------------------------------------------
   27 O3    x      -2.1155      0.9412      0.2410
            y       1.0212     -2.3604     -0.2777
            z       0.3662     -0.2556     -1.5253
-------------------------------------------------------------------------------
   28 O2    x      -1.7870      0.7404     -0.2606
            y       0.7611     -1.9353      0.2889
            z      -0.3407      0.2815     -1.3270
-------------------------------------------------------------------------------
   29 O2    x      -1.7176     -0.6766      0.2552
            y      -0.6817     -1.9123      0.2722
            z       0.3516      0.2503     -1.3630
-------------------------------------------------------------------------------
   30 O2    x      -1.6579     -0.7212     -0.2609
            y      -0.6665     -2.0376     -0.2806
            z      -0.3422     -0.2806     -1.3217
-------------------------------------------------------------------------------
   31 O3    x      -2.0574      0.9420      0.5702
            y       0.9409     -2.3224     -0.5560
            z       0.5812     -0.5421     -1.6630
-------------------------------------------------------------------------------
   32 O2    x      -1.6547      0.6935     -0.3764
            y       0.6708     -2.0066      0.3837
            z      -0.3743      0.3843     -1.3791
-------------------------------------------------------------------------------
   33 O3    x      -2.1124     -0.0015      1.1006
            y      -0.0026     -1.1963     -0.0040
            z       1.4347     -0.0196     -3.2833
-------------------------------------------------------------------------------
   34 O2    x      -1.6162     -0.0398     -0.7838
            y      -0.0140     -1.0998     -0.0283
            z      -0.9651     -0.0501     -2.7029
-------------------------------------------------------------------------------
   35 O3    x      -2.0316     -0.0322     -0.9161
            y       0.0173     -1.2183     -0.0250
            z      -0.9303     -0.0497     -2.8294
-------------------------------------------------------------------------------
   36 O3    x      -2.1805     -0.0145      0.9373
            y       0.0333     -1.2343      0.0016
            z       0.9301      0.0310     -2.6726
-------------------------------------------------------------------------------
   37 O2    x      -1.7303      0.0047     -0.6968
            y      -0.0084     -1.1537     -0.0182
            z      -0.6693     -0.0260     -2.1757
-------------------------------------------------------------------------------
   38 O2    x      -1.7898     -0.0125      0.7455
            y      -0.0025     -1.1323      0.0207
            z       0.7453      0.0251     -2.1541
-------------------------------------------------------------------------------
   39 O3    x      -2.0589     -0.9436      0.6023
            y      -0.8320     -2.3831      0.5947
            z       0.5719      0.5441     -1.5262
-------------------------------------------------------------------------------
   40 O2    x      -1.6437     -0.6794     -0.3764
            y      -0.5661     -2.0278     -0.4008
            z      -0.3426     -0.3670     -1.2690
-------------------------------------------------------------------------------
   41 O2    x      -1.6525      0.6925      0.3112
            y       0.6211     -2.0213     -0.3382
            z       0.3724     -0.3337     -1.2380
-------------------------------------------------------------------------------
   42 O2    x      -1.7019      0.7235     -0.2832
            y       0.6467     -2.0133      0.3012
            z      -0.3431      0.2859     -1.1965
-------------------------------------------------------------------------------
   43 O2    x      -1.7181     -0.7033      0.2855
            y      -0.6776     -1.9366      0.3228
            z       0.3268      0.3034     -1.2514
-------------------------------------------------------------------------------
   44 O2    x      -1.7654     -0.7311     -0.2605
            y      -0.7087     -1.9342     -0.2956
            z      -0.3229     -0.2755     -1.2140
-------------------------------------------------------------------------------
   45 O3    x      -2.0678      0.9436      0.5812
            y       0.8946     -2.3165     -0.6331
            z       0.5217     -0.5849     -1.5864
-------------------------------------------------------------------------------
   46 O2    x      -1.7338      0.7086     -0.3437
            y       0.6650     -1.9538      0.3615
            z      -0.3270      0.3440     -1.2598
-------------------------------------------------------------------------------
   47 O3    x      -2.1634     -0.0312     -0.8216
            y      -0.0280     -1.3218      0.0170
            z      -0.4985      0.0320     -2.1252
-------------------------------------------------------------------------------
   48 O2    x      -1.8592     -0.0494      0.5951
            y      -0.0353     -1.1873      0.0070
            z       0.3088      0.0030     -1.6677
-------------------------------------------------------------------------------
   49 O2    x      -1.1726      0.0365      0.0636
            y       0.0538     -2.4947     -0.0068
            z       0.0752     -0.0010     -1.0896
-------------------------------------------------------------------------------
   50 O2    x      -1.1474      0.0355     -0.0625
            y       0.0594     -2.5667      0.0039
            z      -0.0807     -0.0058     -1.0801
-------------------------------------------------------------------------------
   51 O3    x      -1.3144      0.0084      0.0886
            y      -0.0487     -3.1909     -0.0976
            z       0.0970     -0.1244     -1.2129
-------------------------------------------------------------------------------
   52 O2    x      -1.1689     -0.0847     -0.0607
            y      -0.1414     -2.5839     -0.0193
            z      -0.0721     -0.0126     -1.0685
-------------------------------------------------------------------------------
   53 O2    x      -2.3457     -0.0537      0.0113
            y      -0.0172     -1.2549      0.0731
            z       0.0053      0.0571     -1.0841
-------------------------------------------------------------------------------
   54 O2    x      -2.3481     -0.0747      0.0230
            y      -0.0452     -1.2594     -0.0732
            z       0.0227     -0.0557     -1.0875
-------------------------------------------------------------------------------
   55 O3    x      -2.9786      0.1748      0.1243
            y       0.1213     -1.4053     -0.1122
            z       0.1005     -0.0743     -1.2397
-------------------------------------------------------------------------------
   56 O2    x      -2.4553      0.0690      0.0256
            y       0.0246     -1.2352      0.0612
            z       0.0319      0.0335     -1.0794
-------------------------------------------------------------------------------
   57 O2    x      -1.1972     -0.1354     -0.0705
            y      -0.1074     -1.3032     -0.0005
            z      -0.0647     -0.0096     -2.0232
-------------------------------------------------------------------------------
   58 O2    x      -1.1709     -0.1202     -0.0133
            y      -0.0957     -1.2751     -0.0093
            z      -0.0141      0.0046     -2.0920
-------------------------------------------------------------------------------
   59 O3    x      -1.3224      0.1533      0.0094
            y       0.1037     -1.4604     -0.1100
            z       0.0194     -0.0452     -2.5844
-------------------------------------------------------------------------------
   60 O2    x      -1.1981      0.1394     -0.0303
            y       0.0934     -1.3022      0.0350
            z      -0.0317      0.0149     -2.0326
-------------------------------------------------------------------------------
   61 O2    x      -1.2218     -0.1187     -0.0387
            y      -0.1119     -1.2548      0.0554
            z      -0.0590      0.0673     -2.0623
-------------------------------------------------------------------------------
   62 O2    x      -1.1994     -0.1186     -0.0507
            y      -0.1150     -1.3030     -0.0225
            z      -0.0275     -0.0237     -2.0563
-------------------------------------------------------------------------------
   63 O2    x      -1.2186      0.1362     -0.0747
            y       0.1303     -1.2900      0.0133
            z      -0.0861      0.0129     -2.0250
-------------------------------------------------------------------------------
   64 O2    x      -1.1928      0.1193     -0.0031
            y       0.1197     -1.2625     -0.0044
            z       0.0084     -0.0003     -2.0844
-------------------------------------------------------------------------------
   65 O2    x      -1.2578     -0.0754      0.0864
            y      -0.1177     -2.4232     -0.0152
            z       0.1061      0.0029     -1.0423
-------------------------------------------------------------------------------
   66 O2    x      -1.2495     -0.0634     -0.0658
            y      -0.1396     -2.5283      0.0381
            z      -0.0858      0.0307     -1.0053
-------------------------------------------------------------------------------
   67 O2    x      -1.2099      0.0376      0.0921
            y       0.0874     -2.4855      0.0046
            z       0.1018     -0.0036     -1.0352
-------------------------------------------------------------------------------
   68 O2    x      -1.2284      0.0375     -0.0802
            y       0.0887     -2.5255     -0.0094
            z      -0.0909     -0.0054     -0.9983
-------------------------------------------------------------------------------
   69 O2    x      -2.3960      0.1377     -0.0228
            y       0.0945     -1.2649      0.0716
            z      -0.0200      0.0404     -1.0579
-------------------------------------------------------------------------------
   70 O2    x      -2.3946      0.1061      0.0014
            y       0.0519     -1.2404     -0.0663
            z       0.0155     -0.0377     -1.0467
-------------------------------------------------------------------------------
   71 O2    x      -2.4225     -0.0630      0.0381
            y      -0.0457     -1.2352     -0.0628
            z       0.0326     -0.0356     -1.0350
-------------------------------------------------------------------------------
   72 O2    x      -2.4197     -0.0504      0.0517
            y      -0.0298     -1.2337      0.0654
            z       0.0261      0.0357     -1.0349
-------------------------------------------------------------------------------




  Elastic Constant Matrix: (Units=GPa)

-------------------------------------------------------------------------------
  Indices      1         2         3         4         5         6    
-------------------------------------------------------------------------------
       1     50.7139   26.5422   25.0990    0.9452   -2.0250    4.6536
       2     26.5422   73.7972   25.3919    0.8185   -2.1211    2.7984
       3     25.0990   25.3919   24.5563    1.1139   -1.2590    2.5791
       4      0.9452    0.8185    1.1139   11.1945    0.3235    0.5174
       5     -2.0250   -2.1211   -1.2590    0.3235   25.0149    0.9971
       6      4.6536    2.7984    2.5791    0.5174    0.9971   22.8512
-------------------------------------------------------------------------------


  Elastic Compliance Matrix: (Units=1/GPa)

-------------------------------------------------------------------------------
  Indices      1         2         3         4         5         6    
-------------------------------------------------------------------------------
       1    0.040256 -0.000460 -0.040250  0.000771  0.001330 -0.003674
       2   -0.000460  0.021056 -0.021282  0.000603  0.000674 -0.000126
       3   -0.040250 -0.021282  0.104216 -0.005384  0.000286 -0.000850
       4    0.000771  0.000603 -0.005384  0.089867 -0.001256 -0.001603
       5    0.001330  0.000674  0.000286 -0.001256  0.040256 -0.002114
       6   -0.003674 -0.000126 -0.000850 -0.001603 -0.002114  0.044750
-------------------------------------------------------------------------------

  Mechanical properties :

-------------------------------------------------------------------------------
  Convention :                    Reuss         Voigt         Hill
-------------------------------------------------------------------------------
  Bulk  Modulus (GPa)     =      24.07095      33.68151      28.87623
  Shear Modulus (GPa)     =      10.45517      16.61440      13.53479
-------------------------------------------------------------------------------
  Velocity S-wave (km/s)  =       2.31826       2.92240       2.63769
  Velocity P-wave (km/s)  =       4.42031       5.35731       4.91121
-------------------------------------------------------------------------------
  Compressibility (1/GPa) =    0.04154385
-------------------------------------------------------------------------------
  Stress axis :                     x             y             z
-------------------------------------------------------------------------------
  Youngs Moduli (GPa)     =      24.84122      47.49194       9.59544
-------------------------------------------------------------------------------
  Poissons Ratio (x)      =                     0.02187       0.38622
  Poissons Ratio (y)      =       0.01144                     0.20421
  Poissons Ratio (z)      =       0.99986       1.01071
-------------------------------------------------------------------------------


  Piezoelectric Strain Matrix: (Units=C/m**2)

-------------------------------------------------------------------------------
  Indices      1         2         3         4         5         6    
-------------------------------------------------------------------------------
       x     0.05258   0.66251  -0.35140   0.23795  -0.63159  -0.05022
       y     0.06025   0.57744   0.29935  -0.37199   0.31674   0.23905
       z    -0.89177  -1.13847   1.26462  -0.09661  -0.26026   0.02721
-------------------------------------------------------------------------------


  Piezoelectric Stress Matrix: (Units=10**-11 C/N)

-------------------------------------------------------------------------------
  Indices      1         2         3         4         5         6    
-------------------------------------------------------------------------------
       x     1.54829   2.11281  -5.42559   2.45898  -2.52018  -0.12715
       y    -1.06331   0.57194   1.83734  -3.54277   1.32677   1.00755
       z    -8.67962  -5.07115  19.23385  -1.65820  -1.20057   0.42678
-------------------------------------------------------------------------------


  Static dielectric constant tensor : 

-------------------------------------------------------------------------------
              x         y         z
-------------------------------------------------------------------------------
       x     3.96604  -0.03814  -0.17766
       y    -0.03814   4.05267   0.04934
       z    -0.17766   0.04934   3.34198
--------------------------------------------------------------------------------

  High frequency dielectric constant tensor : 

-------------------------------------------------------------------------------
              x         y         z
-------------------------------------------------------------------------------
       x     1.67525   0.00081  -0.00023
       y     0.00081   1.68330   0.00074
       z    -0.00023   0.00074   1.61358
-------------------------------------------------------------------------------

  Static refractive indices : 

-------------------------------------------------------------------------------
    1 =    1.81467      2 =    1.99505      3 =    2.02174
-------------------------------------------------------------------------------

  High frequency refractive indices : 

-------------------------------------------------------------------------------
    1 =    1.27026      2 =    1.29428      3 =    1.29745
-------------------------------------------------------------------------------


  Time to end of optimisation =       7.6589 seconds


  Peak dynamic memory used =       5.01 MB 


  Timing analysis for GULP :

--------------------------------------------------------------------------------
  Task / Subroutine                                          Time (Seconds)
--------------------------------------------------------------------------------
  Calculation of reciprocal space energy and derivatives          0.4729
  Calculation of real space energy and derivatives                4.7971
  Calculation of three-body energy and derivatives                0.4235
  Calculation and manipulation of Hessian matrix                  2.3468
  Calculation of matrix inversion                                 0.0319
--------------------------------------------------------------------------------
  Total CPU time                                                  7.6589
--------------------------------------------------------------------------------


  Dump file written as c00025.vasp.grs
  CIF file written as c00025.vasp.cif


  Job Finished at 11:30.24  7th October    2025                               

