********************************************************************************
*                       GENERAL UTILITY LATTICE PROGRAM                        *
*                                 Julian Gale                                  *
*                       Curtin Institute for Computation                       *
*                    School of Molecular and Life Sciences                     *
*                    Curtin University, Western Australia                      *
********************************************************************************
* Version = 6.1.2 * Last modified =   3rd November 2022                        *
********************************************************************************
*  optimise     - perform optimisation run                                     *
*  conp         - constant pressure calculation                                *
*  property     - calculate properties for final geometry                      *
********************************************************************************

  Job Started  at 11:39.19  7th October    2025                               

  Number of CPUs =     1


  Total number of configurations input =      1

********************************************************************************
*  Input for Configuration =   1 : c00073.vasp                                 *
********************************************************************************

  Formula = Ge3Si21O48                                                  

  Number of irreducible atoms/shells =     120


  Total number atoms/shells =     120

  Dimensionality = 3               :  Bulk   



  Cartesian lattice vectors (Angstroms) :

       17.182800    0.000000    0.000000
        0.000000    7.513760    0.000000
        0.000000    0.000000   10.447700

  Cell parameters (Angstroms/Degrees):

  a =      17.1828    alpha =  90.0000
  b =       7.5138    beta  =  90.0000
  c =      10.4477    gamma =  90.0000

  Initial cell volume =        1348.875752 Angs**3

  Temperature of configuration =   0.00     K 

  Pressure of configuration =         0.000 GPa 

  Fractional coordinates of asymmetric unit :

--------------------------------------------------------------------------------
   No.  Atomic       x           y          z         Charge      Occupancy
        Label      (Frac)      (Frac)     (Frac)        (e)         (Frac)  
--------------------------------------------------------------------------------
      1 Ge    c    0.052090    0.000000    0.372270     4.00000    1.000000    
      2 Ge    c    0.339810 *  0.706090 *  0.273440 *   4.00000    1.000000    
      3 Ge    c    0.839810 *  0.293910 *  0.726560 *   4.00000    1.000000    
      4 Si    c    0.447910 *  0.000000 *  0.372270 *   4.00000    1.000000    
      5 Si    c    0.947910 *  0.000000 *  0.627730 *   4.00000    1.000000    
      6 Si    c    0.552090 *  0.000000 *  0.627730 *   4.00000    1.000000    
      7 Si    c    0.556730 *  0.000000 *  0.122130 *   4.00000    1.000000    
      8 Si    c    0.943270 *  0.000000 *  0.122130 *   4.00000    1.000000    
      9 Si    c    0.443270 *  0.000000 *  0.877870 *   4.00000    1.000000    
     10 Si    c    0.056730 *  0.000000 *  0.877870 *   4.00000    1.000000    
     11 Si    c    0.160190 *  0.293910 *  0.273440 *   4.00000    1.000000    
     12 Si    c    0.660190 *  0.706090 *  0.726560 *   4.00000    1.000000    
     13 Si    c    0.839810 *  0.706090 *  0.726560 *   4.00000    1.000000    
     14 Si    c    0.660190 *  0.293910 *  0.726560 *   4.00000    1.000000    
     15 Si    c    0.160190 *  0.706090 *  0.273440 *   4.00000    1.000000    
     16 Si    c    0.339810 *  0.293910 *  0.273440 *   4.00000    1.000000    
     17 Si    c    0.660660 *  0.294090 *  0.017440 *   4.00000    1.000000    
     18 Si    c    0.839340 *  0.705910 *  0.017440 *   4.00000    1.000000    
     19 Si    c    0.339340 *  0.294090 *  0.982560 *   4.00000    1.000000    
     20 Si    c    0.160660 *  0.705910 *  0.982560 *   4.00000    1.000000    
     21 Si    c    0.339340 *  0.705910 *  0.982560 *   4.00000    1.000000    
     22 Si    c    0.160660 *  0.294090 *  0.982560 *   4.00000    1.000000    
     23 Si    c    0.660660 *  0.705910 *  0.017440 *   4.00000    1.000000    
     24 Si    c    0.839340 *  0.294090 *  0.017440 *   4.00000    1.000000    
     25 O3    c    0.106570 *  0.174340 *  0.366200 *   1.33043    1.000000    
     26 O3    c    0.393430 *  0.825660 *  0.366200 *   1.33043    1.000000    
     27 O3    c    0.893430 *  0.174340 *  0.633800 *   1.33043    1.000000    
     28 O2    c    0.606570 *  0.825660 *  0.633800 *   0.87073    1.000000    
     29 O2    c    0.893430 *  0.825660 *  0.633800 *   0.87073    1.000000    
     30 O2    c    0.606570 *  0.174340 *  0.633800 *   0.87073    1.000000    
     31 O3    c    0.106570 *  0.825660 *  0.366200 *   1.33043    1.000000    
     32 O2    c    0.393430 *  0.174340 *  0.366200 *   0.87073    1.000000    
     33 O3    c    0.000000 *  0.000000 *  0.500000 *   1.33043    1.000000    
     34 O2    c    0.500000 *  0.000000 *  0.500000 *   0.87073    1.000000    
     35 O3    c    0.994520 *  0.000000 *  0.250840 *   1.33043    1.000000    
     36 O2    c    0.505480 *  0.000000 *  0.250840 *   0.87073    1.000000    
     37 O2    c    0.005480 *  0.000000 *  0.749160 *   0.87073    1.000000    
     38 O2    c    0.494520 *  0.000000 *  0.749160 *   0.87073    1.000000    
     39 O2    c    0.610230 *  0.175520 *  0.115390 *   0.87073    1.000000    
     40 O2    c    0.889770 *  0.824480 *  0.115390 *   0.87073    1.000000    
     41 O2    c    0.389770 *  0.175520 *  0.884610 *   0.87073    1.000000    
     42 O2    c    0.110230 *  0.824480 *  0.884610 *   0.87073    1.000000    
     43 O2    c    0.389770 *  0.824480 *  0.884610 *   0.87073    1.000000    
     44 O2    c    0.110230 *  0.175520 *  0.884610 *   0.87073    1.000000    
     45 O2    c    0.610230 *  0.824480 *  0.115390 *   0.87073    1.000000    
     46 O2    c    0.889770 *  0.175520 *  0.115390 *   0.87073    1.000000    
     47 O2    c    0.500000 *  0.000000 *  0.000000 *   0.87073    1.000000    
     48 O2    c    0.000000 *  0.000000 *  0.000000 *   0.87073    1.000000    
     49 O2    c    0.151750 *  0.500000 *  0.313330 *   0.87073    1.000000    
     50 O3    c    0.348250 *  0.500000 *  0.313330 *   1.33043    1.000000    
     51 O3    c    0.848250 *  0.500000 *  0.686670 *   1.33043    1.000000    
     52 O2    c    0.651750 *  0.500000 *  0.686670 *   0.87073    1.000000    
     53 O2    c    0.250000 *  0.234950 *  0.285720 *   0.87073    1.000000    
     54 O3    c    0.250000 *  0.765050 *  0.285720 *   1.33043    1.000000    
     55 O3    c    0.750000 *  0.234950 *  0.714280 *   1.33043    1.000000    
     56 O2    c    0.750000 *  0.765050 *  0.714280 *   0.87073    1.000000    
     57 O2    c    0.131410 *  0.268650 *  0.127790 *   0.87073    1.000000    
     58 O3    c    0.368590 *  0.731350 *  0.127790 *   1.33043    1.000000    
     59 O3    c    0.868590 *  0.268650 *  0.872210 *   1.33043    1.000000    
     60 O2    c    0.631410 *  0.731350 *  0.872210 *   0.87073    1.000000    
     61 O2    c    0.868590 *  0.731350 *  0.872210 *   0.87073    1.000000    
     62 O2    c    0.631410 *  0.268650 *  0.872210 *   0.87073    1.000000    
     63 O2    c    0.131410 *  0.731350 *  0.127790 *   0.87073    1.000000    
     64 O2    c    0.368590 *  0.268650 *  0.127790 *   0.87073    1.000000    
     65 O2    c    0.653920 *  0.500000 *  0.058200 *   0.87073    1.000000    
     66 O2    c    0.846080 *  0.500000 *  0.058200 *   0.87073    1.000000    
     67 O2    c    0.346080 *  0.500000 *  0.941800 *   0.87073    1.000000    
     68 O2    c    0.153920 *  0.500000 *  0.941800 *   0.87073    1.000000    
     69 O2    c    0.750000 *  0.231060 *  0.027050 *   0.87073    1.000000    
     70 O2    c    0.750000 *  0.768940 *  0.027050 *   0.87073    1.000000    
     71 O2    c    0.250000 *  0.231060 *  0.972950 *   0.87073    1.000000    
     72 O2    c    0.250000 *  0.768940 *  0.972950 *   0.87073    1.000000    
     73 O3    s    0.106570 *  0.174340 *  0.366200 *  -3.33043    1.000000    
     74 O3    s    0.393430 *  0.825660 *  0.366200 *  -3.33043    1.000000    
     75 O3    s    0.893430 *  0.174340 *  0.633800 *  -3.33043    1.000000    
     76 O2    s    0.606570 *  0.825660 *  0.633800 *  -2.87073    1.000000    
     77 O2    s    0.893430 *  0.825660 *  0.633800 *  -2.87073    1.000000    
     78 O2    s    0.606570 *  0.174340 *  0.633800 *  -2.87073    1.000000    
     79 O3    s    0.106570 *  0.825660 *  0.366200 *  -3.33043    1.000000    
     80 O2    s    0.393430 *  0.174340 *  0.366200 *  -2.87073    1.000000    
     81 O3    s    0.000000 *  0.000000 *  0.500000 *  -3.33043    1.000000    
     82 O2    s    0.500000 *  0.000000 *  0.500000 *  -2.87073    1.000000    
     83 O3    s    0.994520 *  0.000000 *  0.250840 *  -3.33043    1.000000    
     84 O2    s    0.505480 *  0.000000 *  0.250840 *  -2.87073    1.000000    
     85 O2    s    0.005480 *  0.000000 *  0.749160 *  -2.87073    1.000000    
     86 O2    s    0.494520 *  0.000000 *  0.749160 *  -2.87073    1.000000    
     87 O2    s    0.610230 *  0.175520 *  0.115390 *  -2.87073    1.000000    
     88 O2    s    0.889770 *  0.824480 *  0.115390 *  -2.87073    1.000000    
     89 O2    s    0.389770 *  0.175520 *  0.884610 *  -2.87073    1.000000    
     90 O2    s    0.110230 *  0.824480 *  0.884610 *  -2.87073    1.000000    
     91 O2    s    0.389770 *  0.824480 *  0.884610 *  -2.87073    1.000000    
     92 O2    s    0.110230 *  0.175520 *  0.884610 *  -2.87073    1.000000    
     93 O2    s    0.610230 *  0.824480 *  0.115390 *  -2.87073    1.000000    
     94 O2    s    0.889770 *  0.175520 *  0.115390 *  -2.87073    1.000000    
     95 O2    s    0.500000 *  0.000000 *  0.000000 *  -2.87073    1.000000    
     96 O2    s    0.000000 *  0.000000 *  0.000000 *  -2.87073    1.000000    
     97 O2    s    0.151750 *  0.500000 *  0.313330 *  -2.87073    1.000000    
     98 O3    s    0.348250 *  0.500000 *  0.313330 *  -3.33043    1.000000    
     99 O3    s    0.848250 *  0.500000 *  0.686670 *  -3.33043    1.000000    
    100 O2    s    0.651750 *  0.500000 *  0.686670 *  -2.87073    1.000000    
    101 O2    s    0.250000 *  0.234950 *  0.285720 *  -2.87073    1.000000    
    102 O3    s    0.250000 *  0.765050 *  0.285720 *  -3.33043    1.000000    
    103 O3    s    0.750000 *  0.234950 *  0.714280 *  -3.33043    1.000000    
    104 O2    s    0.750000 *  0.765050 *  0.714280 *  -2.87073    1.000000    
    105 O2    s    0.131410 *  0.268650 *  0.127790 *  -2.87073    1.000000    
    106 O3    s    0.368590 *  0.731350 *  0.127790 *  -3.33043    1.000000    
    107 O3    s    0.868590 *  0.268650 *  0.872210 *  -3.33043    1.000000    
    108 O2    s    0.631410 *  0.731350 *  0.872210 *  -2.87073    1.000000    
    109 O2    s    0.868590 *  0.731350 *  0.872210 *  -2.87073    1.000000    
    110 O2    s    0.631410 *  0.268650 *  0.872210 *  -2.87073    1.000000    
    111 O2    s    0.131410 *  0.731350 *  0.127790 *  -2.87073    1.000000    
    112 O2    s    0.368590 *  0.268650 *  0.127790 *  -2.87073    1.000000    
    113 O2    s    0.653920 *  0.500000 *  0.058200 *  -2.87073    1.000000    
    114 O2    s    0.846080 *  0.500000 *  0.058200 *  -2.87073    1.000000    
    115 O2    s    0.346080 *  0.500000 *  0.941800 *  -2.87073    1.000000    
    116 O2    s    0.153920 *  0.500000 *  0.941800 *  -2.87073    1.000000    
    117 O2    s    0.750000 *  0.231060 *  0.027050 *  -2.87073    1.000000    
    118 O2    s    0.750000 *  0.768940 *  0.027050 *  -2.87073    1.000000    
    119 O2    s    0.250000 *  0.231060 *  0.972950 *  -2.87073    1.000000    
    120 O2    s    0.250000 *  0.768940 *  0.972950 *  -2.87073    1.000000    
--------------------------------------------------------------------------------



********************************************************************************
*  General input information                                                   *
********************************************************************************

  Species output for all configurations : 

--------------------------------------------------------------------------------
  Species    Type    Atomic    Atomic    Charge       Radii (Angs)     Library
                     Number     Mass       (e)     Cova   Ionic  VDW   Symbol
--------------------------------------------------------------------------------
    Ge       Core       32      72.61   4.000000   1.170  0.000  1.750 Ge       
    Si       Core       14      28.09   4.000000   1.200  0.000  2.100 Si       
    O1       Core        8      16.00   1.733957   0.730  0.000  0.000 O1       
    O2       Core        8      16.00   0.870733   0.730  0.000  1.360 O2       
    O3       Core        8      16.00   1.330431   0.730  0.000  1.360 O3       
    O1       Shell       8       0.00  -3.733957   0.730  0.000  0.000 O1       
    O2       Shell       8       0.00  -2.870733   0.730  0.000  0.000 O2       
    O3       Shell       8       0.00  -3.330431   0.730  0.000  0.000 O3       
--------------------------------------------------------------------------------


  Lattice summation method               =    Ewald          (3-D)
                                         =    Parry          (2-D)
                                         =    Saunders et al (1-D)
  Accuracy factor for lattice sums       =   12.000


  Analytic derivatives to be used

  Time limit = Infinity

  Maximum range for interatomic potentials =    100000.000000 Angstroms

  General interatomic potentials :

--------------------------------------------------------------------------------
Atom  Types   Potential      Parameter       Value         Units   Cutoffs(Ang)
  1     2                                                            Min /  Max 
--------------------------------------------------------------------------------
Si   c O1   s Buckingham    Buckingham A     1315.2478    eV        0.000 16.000
                            Buckingham rho  0.31775900    Ang       
                            Buckingham C     10.141118    eV*Ang^6  
--------------------------------------------------------------------------------
Si   c O2   s Buckingham    Buckingham A     1315.2478    eV        0.000 16.000
                            Buckingham rho  0.31775900    Ang       
                            Buckingham C     10.141118    eV*Ang^6  
--------------------------------------------------------------------------------
Si   c O3   s Buckingham    Buckingham A     1315.2478    eV        0.000 16.000
                            Buckingham rho  0.31775900    Ang       
                            Buckingham C     10.141118    eV*Ang^6  
--------------------------------------------------------------------------------
Ge   c O1   s Buckingham    Buckingham A     1497.3996    eV        0.000 16.000
                            Buckingham rho  0.32564600    Ang       
                            Buckingham C     16.808599    eV*Ang^6  
--------------------------------------------------------------------------------
Ge   c O2   s Buckingham    Buckingham A     1497.3996    eV        0.000 16.000
                            Buckingham rho  0.32564600    Ang       
                            Buckingham C     16.808599    eV*Ang^6  
--------------------------------------------------------------------------------
Ge   c O3   s Buckingham    Buckingham A     1497.3996    eV        0.000 16.000
                            Buckingham rho  0.32564600    Ang       
                            Buckingham C     16.808599    eV*Ang^6  
--------------------------------------------------------------------------------
O1   s O1   s Buckingham    Buckingham A     22764.000    eV        0.000 16.000
                            Buckingham rho  0.14900000    Ang       
                            Buckingham C     10.937044    eV*Ang^6  
--------------------------------------------------------------------------------
O1   s O2   s Buckingham    Buckingham A     22764.000    eV        0.000 16.000
                            Buckingham rho  0.14900000    Ang       
                            Buckingham C     10.937044    eV*Ang^6  
--------------------------------------------------------------------------------
O1   s O3   s Buckingham    Buckingham A     22764.000    eV        0.000 16.000
                            Buckingham rho  0.14900000    Ang       
                            Buckingham C     10.937044    eV*Ang^6  
--------------------------------------------------------------------------------
O2   s O2   s Buckingham    Buckingham A     22764.000    eV        0.000 16.000
                            Buckingham rho  0.14900000    Ang       
                            Buckingham C     10.937044    eV*Ang^6  
--------------------------------------------------------------------------------
O2   s O3   s Buckingham    Buckingham A     22764.000    eV        0.000 16.000
                            Buckingham rho  0.14900000    Ang       
                            Buckingham C     10.937044    eV*Ang^6  
--------------------------------------------------------------------------------
O3   s O3   s Buckingham    Buckingham A     22764.000    eV        0.000 16.000
                            Buckingham rho  0.14900000    Ang       
                            Buckingham C     10.937044    eV*Ang^6  
--------------------------------------------------------------------------------
O1   c O1   s Spring (c-s)  Spring k 2       180.31577    eV*Ang^-2 0.000  0.800
                            Spring k 4       0.0000000    eV*Ang^-4 
--------------------------------------------------------------------------------
O2   c O2   s Spring (c-s)  Spring k 2       75.969800    eV*Ang^-2 0.000  0.800
                            Spring k 4       0.0000000    eV*Ang^-4 
--------------------------------------------------------------------------------
O3   c O3   s Spring (c-s)  Spring k 2       128.14270    eV*Ang^-2 0.000  0.800
                            Spring k 4       0.0000000    eV*Ang^-4 
--------------------------------------------------------------------------------

  General Three-body potentials :

--------------------------------------------------------------------------------
  Atoms       Potential      Parameter       Value         Units   Cutoffs(Ang)
  1 / 2 / 3                                                          Min /  Max 
--------------------------------------------------------------------------------
Si    core    Harmonic      Three-body cnst  1.2614000    eV*rad^-2 0.000  1.900
O1    shel                  Three-body angl  109.47000    degrees   0.000  1.900
O1    shel                  Three-body k4    0.0000000    eV*rad^-4 0.000  3.500
                            Three-body k3    0.0000000    eV*rad^-3 
--------------------------------------------------------------------------------
Si    core    Harmonic      Three-body cnst  1.2614000    eV*rad^-2 0.000  1.900
O1    shel                  Three-body angl  109.47000    degrees   0.000  1.900
õ(1   shel                  Three-body k4    0.0000000    eV*rad^-4 0.000  3.500
                            Three-body k3    0.0000000    eV*rad^-3 
--------------------------------------------------------------------------------
Si    core    Harmonic      Three-body cnst  1.2614000    eV*rad^-2 0.000  1.900
õ(1   shel                  Three-body angl  109.47000    degrees   0.000  1.900
õ(1   shel                  Three-body k4    0.0000000    eV*rad^-4 0.000  3.500
                            Three-body k3    0.0000000    eV*rad^-3 
--------------------------------------------------------------------------------
Si    core    Harmonic      Three-body cnst  1.2614000    eV*rad^-2 0.000  1.900
O1    shel                  Three-body angl  109.47000    degrees   0.000  1.900
O2    shel                  Three-body k4    0.0000000    eV*rad^-4 0.000  3.500
                            Three-body k3    0.0000000    eV*rad^-3 
--------------------------------------------------------------------------------
Si    core    Harmonic      Three-body cnst  1.2614000    eV*rad^-2 0.000  1.900
O1    shel                  Three-body angl  109.47000    degrees   0.000  1.900
õ(2   shel                  Three-body k4    0.0000000    eV*rad^-4 0.000  3.500
                            Three-body k3    0.0000000    eV*rad^-3 
--------------------------------------------------------------------------------
Si    core    Harmonic      Three-body cnst  1.2614000    eV*rad^-2 0.000  1.900
O2    shel                  Three-body angl  109.47000    degrees   0.000  1.900
õ(1   shel                  Three-body k4    0.0000000    eV*rad^-4 0.000  3.500
                            Three-body k3    0.0000000    eV*rad^-3 
--------------------------------------------------------------------------------
Si    core    Harmonic      Three-body cnst  1.2614000    eV*rad^-2 0.000  1.900
õ(1   shel                  Three-body angl  109.47000    degrees   0.000  1.900
õ(2   shel                  Three-body k4    0.0000000    eV*rad^-4 0.000  3.500
                            Three-body k3    0.0000000    eV*rad^-3 
--------------------------------------------------------------------------------
Si    core    Harmonic      Three-body cnst  1.2614000    eV*rad^-2 0.000  1.900
O2    shel                  Three-body angl  109.47000    degrees   0.000  1.900
O2    shel                  Three-body k4    0.0000000    eV*rad^-4 0.000  3.500
                            Three-body k3    0.0000000    eV*rad^-3 
--------------------------------------------------------------------------------
Si    core    Harmonic      Three-body cnst  1.2614000    eV*rad^-2 0.000  1.900
O2    shel                  Three-body angl  109.47000    degrees   0.000  1.900
õ(2   shel                  Three-body k4    0.0000000    eV*rad^-4 0.000  3.500
                            Three-body k3    0.0000000    eV*rad^-3 
--------------------------------------------------------------------------------
Si    core    Harmonic      Three-body cnst  1.2614000    eV*rad^-2 0.000  1.900
õ(2   shel                  Three-body angl  109.47000    degrees   0.000  1.900
õ(2   shel                  Three-body k4    0.0000000    eV*rad^-4 0.000  3.500
                            Three-body k3    0.0000000    eV*rad^-3 
--------------------------------------------------------------------------------

********************************************************************************
*  Output for configuration   1 : c00073.vasp                                  *
********************************************************************************


  Components of energy : 

--------------------------------------------------------------------------------
  Interatomic potentials     =         760.28190526 eV    
  Three-body potentials      =           0.01507781 eV    
  Monopole - monopole (real) =       -2676.00317479 eV    
  Monopole - monopole (recip)=       -1115.35404472 eV    
  Monopole - monopole (total)=       -3791.35721950 eV    
--------------------------------------------------------------------------------
  Total lattice energy       =       -3031.06023643 eV    
--------------------------------------------------------------------------------
  Total lattice energy       =         -292450.9788 kJ/(mole unit cells)
--------------------------------------------------------------------------------


  Number of variables =      363

  Maximum number of calculations  =          1000
  Maximum Hessian update interval =            10
  Maximum step size               =   0.100000000
  Maximum parameter tolerance     =   0.000010000
  Maximum function  tolerance     =   0.000010000
  Maximum gradient  tolerance     =   0.001000000
  Maximum gradient  component     =   0.010000000

  Symmetry not applied to optimisation

  Cell parameters to be optimised using strains

  Newton-Raphson optimiser to be used

  BFGS hessian update to be used

  Lower half triangular hessian to be used

  Minimiser to switch to RFO
  When gradient norm is less than     0.050000

  Dumpfile to be written after every cycle

  Start of bulk optimisation :

  Cycle:      0 Energy:     -3031.060236  Gnorm:      4.404952  CPU:    0.103
  ** Hessian calculated **
  Cycle:      1 Energy:     -3046.523956  Gnorm:      3.376688  CPU:    0.285
  ** Hessian calculated **
  Cycle:      2 Energy:     -3057.301105  Gnorm:      2.313653  CPU:    0.554
  ** Hessian calculated **
  Cycle:      3 Energy:     -3065.832564  Gnorm:      0.528253  CPU:    0.747
  Cycle:      4 Energy:     -3066.643872  Gnorm:      0.257865  CPU:    0.850
  Cycle:      5 Energy:     -3066.915219  Gnorm:      0.186303  CPU:    0.970
  Cycle:      6 Energy:     -3067.167578  Gnorm:      0.152368  CPU:    1.087
  Cycle:      7 Energy:     -3067.337149  Gnorm:      0.120659  CPU:    1.189
  Cycle:      8 Energy:     -3067.455612  Gnorm:      0.103882  CPU:    1.292
  Cycle:      9 Energy:     -3067.547307  Gnorm:      0.076299  CPU:    1.412
  Cycle:     10 Energy:     -3067.589337  Gnorm:      0.062776  CPU:    1.515
  Cycle:     11 Energy:     -3067.620544  Gnorm:      0.057079  CPU:    1.617
  Cycle:     12 Energy:     -3067.644736  Gnorm:      0.054221  CPU:    1.718
  ** Hessian calculated **
  Cycle:     13 Energy:     -3067.664140  Gnorm:      0.053216  CPU:    1.929
  Cycle:     14 Energy:     -3067.696862  Gnorm:      0.051467  CPU:    2.067
  Cycle:     15 Energy:     -3067.749730  Gnorm:      0.048522  CPU:    2.206
  ** Hessian has wrong structure
  ** Imaginary eigenvectors =   2
  Cycle:     16 Energy:     -3067.756157  Gnorm:      0.051547  CPU:    2.513
  ** Hessian has wrong structure
  ** Imaginary eigenvectors =   2
  ** Hessian has wrong structure
  ** Imaginary eigenvectors =   2
  Cycle:     17 Energy:     -3067.778985  Gnorm:      0.053134  CPU:    3.039
  ** Hessian has wrong structure
  ** Imaginary eigenvectors =   1
  ** Hessian has required structure
  Cycle:     18 Energy:     -3067.981370  Gnorm:      0.040784  CPU:    3.507
  ** Hessian has required structure
  Cycle:     19 Energy:     -3068.183160  Gnorm:      0.027451  CPU:    3.684
  ** Hessian has required structure
  Cycle:     20 Energy:     -3068.250357  Gnorm:      0.022724  CPU:    3.861
  ** Hessian has required structure
  Cycle:     21 Energy:     -3068.274478  Gnorm:      0.022481  CPU:    4.020
  ** Hessian has required structure
  Cycle:     22 Energy:     -3068.288529  Gnorm:      0.033245  CPU:    4.179
  ** Hessian has required structure
  Cycle:     23 Energy:     -3068.310296  Gnorm:      0.018612  CPU:    4.320
  ** Hessian has required structure
  Cycle:     24 Energy:     -3068.318092  Gnorm:      0.015474  CPU:    4.482
  ** Hessian has required structure
  Cycle:     25 Energy:     -3068.330867  Gnorm:      0.016208  CPU:    4.663
  ** Hessian has required structure
  Cycle:     26 Energy:     -3068.342860  Gnorm:      0.011839  CPU:    4.826
  ** Hessian has required structure
  Cycle:     27 Energy:     -3068.351478  Gnorm:      0.013361  CPU:    4.987
  ** Hessian has required structure
  Cycle:     28 Energy:     -3068.360513  Gnorm:      0.009004  CPU:    5.248
  ** Hessian has required structure
  Cycle:     29 Energy:     -3068.363861  Gnorm:      0.005849  CPU:    5.427
  ** Hessian has required structure
  Cycle:     30 Energy:     -3068.365344  Gnorm:      0.003107  CPU:    5.604
  ** Hessian has required structure
  Cycle:     31 Energy:     -3068.365823  Gnorm:      0.002012  CPU:    5.759
  ** Hessian has required structure
  Cycle:     32 Energy:     -3068.366053  Gnorm:      0.001283  CPU:    5.914
  ** Hessian has required structure
  Cycle:     33 Energy:     -3068.366129  Gnorm:      0.000401  CPU:    6.072
  ** Hessian has required structure
  Cycle:     34 Energy:     -3068.366154  Gnorm:      0.000475  CPU:    6.227
  ** Hessian has required structure
  Cycle:     35 Energy:     -3068.366161  Gnorm:      0.000175  CPU:    6.385
  ** Hessian has required structure
  Cycle:     36 Energy:     -3068.366162  Gnorm:      0.000114  CPU:    6.524
  ** Hessian has required structure
  Cycle:     37 Energy:     -3068.366163  Gnorm:      0.000090  CPU:    6.664
  ** Hessian has required structure
  Cycle:     38 Energy:     -3068.366163  Gnorm:      0.000089  CPU:    6.923
  ** Hessian has required structure
  Cycle:     39 Energy:     -3068.366163  Gnorm:      0.000088  CPU:    7.063
  ** Hessian has required structure
  Cycle:     40 Energy:     -3068.366163  Gnorm:      0.000088  CPU:    7.202
  ** Hessian has required structure
  Cycle:     41 Energy:     -3068.366163  Gnorm:      0.000088  CPU:    7.415
  ** Hessian has required structure
  Cycle:     42 Energy:     -3068.366162  Gnorm:      0.000088  CPU:    7.746
  ** Hessian calculated **


  **** Optimisation achieved ****


  Final energy =   -3068.36616233 eV      
  Final Gnorm  =       0.00006141

  Components of energy : 

--------------------------------------------------------------------------------
  Interatomic potentials     =         814.69905502 eV    
  Three-body potentials      =           0.19200430 eV    
  Monopole - monopole (real) =       -2208.08007314 eV    
  Monopole - monopole (recip)=       -1675.17714852 eV    
  Monopole - monopole (total)=       -3883.25722166 eV    
--------------------------------------------------------------------------------
  Total lattice energy       =       -3068.36616233 eV    
--------------------------------------------------------------------------------
  Total lattice energy       =         -296050.4304 kJ/(mole unit cells)
--------------------------------------------------------------------------------

  Final fractional coordinates of atoms :

--------------------------------------------------------------------------------
   No.  Atomic        x           y          z          Radius
        Label       (Frac)      (Frac)     (Frac)       (Angs) 
--------------------------------------------------------------------------------
     1  Ge    c     0.052090    0.000000    0.372270    0.000000
     2  Ge    c     0.355349    0.679836    0.288588    0.000000
     3  Ge    c     0.848436    0.336024    0.719005    0.000000
     4  Si    c     0.457926    0.987351    0.370841    0.000000
     5  Si    c     0.952814    0.030755    0.632342    0.000000
     6  Si    c     0.548930    0.018937    0.634958    0.000000
     7  Si    c     0.556846    0.998473    0.115636    0.000000
     8  Si    c     0.943698    0.004005    0.114543    0.000000
     9  Si    c     0.440122    0.009404    0.878473    0.000000
    10  Si    c     0.056712    0.018231    0.880466    0.000000
    11  Si    c     0.158504    0.309125    0.287846    0.000000
    12  Si    c     0.654991    0.711687    0.726498    0.000000
    13  Si    c     0.833130    0.744927    0.730888    0.000000
    14  Si    c     0.665977    0.306784    0.718880    0.000000
    15  Si    c     0.172171    0.716410    0.293102    0.000000
    16  Si    c     0.337775    0.269956    0.280221    0.000000
    17  Si    c     0.668540    0.289653    0.023402    0.000000
    18  Si    c     0.830878    0.716996    0.036850    0.000000
    19  Si    c     0.331580    0.295556    0.975974    0.000000
    20  Si    c     0.166736    0.727272    0.991034    0.000000
    21  Si    c     0.347421    0.695130    0.979888    0.000000
    22  Si    c     0.152026    0.325144    0.986979    0.000000
    23  Si    c     0.652789    0.687268    0.029776    0.000000
    24  Si    c     0.847965    0.320543    0.030216    0.000000
    25  O3    c     0.100308    0.198942    0.376117    0.000000
    26  O3    c     0.423812    0.792348    0.376576    0.000000
    27  O3    c     0.916876    0.224931    0.632034    0.000000
    28  O2    c     0.595323    0.835075    0.646432    0.000000
    29  O2    c     0.880809    0.902101    0.664935    0.000000
    30  O2    c     0.608392    0.181446    0.641050    0.000000
    31  O3    c     0.120826    0.834760    0.383593    0.000000
    32  O2    c     0.383517    0.116220    0.356580    0.000000
    33  O3    c     0.985741    0.984454    0.494161    0.000000
    34  O2    c     0.506379    0.031944    0.497671    0.000000
    35  O3    c     0.002012    0.972356    0.230222    0.000000
    36  O2    c     0.514581    0.018673    0.250282    0.000000
    37  O2    c     0.024212    0.010103    0.734652    0.000000
    38  O2    c     0.483344    0.030759    0.743363    0.000000
    39  O2    c     0.624683    0.143342    0.108290    0.000000
    40  O2    c     0.876765    0.855262    0.122690    0.000000
    41  O2    c     0.374712    0.161086    0.883817    0.000000
    42  O2    c     0.121578    0.867031    0.899813    0.000000
    43  O2    c     0.399685    0.818088    0.886069    0.000000
    44  O2    c     0.093757    0.211272    0.900453    0.000000
    45  O2    c     0.593303    0.802693    0.111253    0.000000
    46  O2    c     0.903601    0.196420    0.119586    0.000000
    47  O2    c     0.499134    0.036698    0.996463    0.000000
    48  O2    c     0.986992    0.981813    0.978408    0.000000
    49  O2    c     0.146425    0.514062    0.312247    0.000000
    50  O3    c     0.370571    0.458513    0.316516    0.000000
    51  O3    c     0.865244    0.557515    0.690936    0.000000
    52  O2    c     0.638724    0.508790    0.695008    0.000000
    53  O2    c     0.247458    0.255626    0.320077    0.000000
    54  O3    c     0.261979    0.735211    0.330511    0.000000
    55  O3    c     0.753974    0.286965    0.673407    0.000000
    56  O2    c     0.742799    0.761987    0.686569    0.000000
    57  O2    c     0.140157    0.266461    0.137036    0.000000
    58  O3    c     0.369313    0.735653    0.126843    0.000000
    59  O3    c     0.862877    0.282019    0.880880    0.000000
    60  O2    c     0.642918    0.743673    0.878924    0.000000
    61  O2    c     0.837908    0.764481    0.885348    0.000000
    62  O2    c     0.661430    0.252529    0.870953    0.000000
    63  O2    c     0.158791    0.776022    0.141808    0.000000
    64  O2    c     0.345538    0.242358    0.126149    0.000000
    65  O2    c     0.632684    0.481736    0.052035    0.000000
    66  O2    c     0.866734    0.522661    0.063041    0.000000
    67  O2    c     0.364602    0.491634    0.949156    0.000000
    68  O2    c     0.132680    0.532031    0.966918    0.000000
    69  O2    c     0.758471    0.281415    0.064928    0.000000
    70  O2    c     0.740710    0.722351    0.077422    0.000000
    71  O2    c     0.240026    0.288688    0.943312    0.000000
    72  O2    c     0.256768    0.735079    0.952722    0.000000
    73  O3    s     0.102458    0.194330    0.366654    0.000000
    74  O3    s     0.421615    0.802676    0.368831    0.000000
    75  O3    s     0.914787    0.214894    0.639177    0.000000
    76  O2    s     0.596996    0.841120    0.654173    0.000000
    77  O2    s     0.883093    0.897965    0.669033    0.000000
    78  O2    s     0.608384    0.177681    0.649154    0.000000
    79  O3    s     0.120555    0.835890    0.373273    0.000000
    80  O2    s     0.386270    0.119838    0.349418    0.000000
    81  O3    s     0.988077    0.990751    0.498207    0.000000
    82  O2    s     0.505671    0.025133    0.498900    0.000000
    83  O3    s     0.999768    0.978414    0.229542    0.000000
    84  O2    s     0.513180    0.012747    0.247858    0.000000
    85  O2    s     0.020285    0.013194    0.740018    0.000000
    86  O2    s     0.485741    0.026917    0.746884    0.000000
    87  O2    s     0.622261    0.144165    0.099328    0.000000
    88  O2    s     0.878648    0.855364    0.112125    0.000000
    89  O2    s     0.376887    0.159876    0.893606    0.000000
    90  O2    s     0.119605    0.867775    0.908014    0.000000
    91  O2    s     0.398344    0.825122    0.895410    0.000000
    92  O2    s     0.096269    0.203556    0.907906    0.000000
    93  O2    s     0.595996    0.810558    0.102711    0.000000
    94  O2    s     0.901850    0.189727    0.109551    0.000000
    95  O2    s     0.499018    0.029270    0.996642    0.000000
    96  O2    s     0.990166    0.988309    0.982114    0.000000
    97  O2    s     0.150537    0.512960    0.307448    0.000000
    98  O3    s     0.365992    0.457632    0.310559    0.000000
    99  O3    s     0.860647    0.558687    0.697205    0.000000
   100  O2    s     0.643353    0.509530    0.700934    0.000000
   101  O2    s     0.247568    0.262852    0.312372    0.000000
   102  O3    s     0.260625    0.728741    0.323301    0.000000
   103  O3    s     0.752686    0.292852    0.681584    0.000000
   104  O2    s     0.742862    0.754834    0.695463    0.000000
   105  O2    s     0.143247    0.276835    0.136629    0.000000
   106  O3    s     0.366013    0.727193    0.124998    0.000000
   107  O3    s     0.860208    0.290236    0.882703    0.000000
   108  O2    s     0.645257    0.734293    0.878787    0.000000
   109  O2    s     0.836560    0.757033    0.885257    0.000000
   110  O2    s     0.662675    0.262286    0.871358    0.000000
   111  O2    s     0.160951    0.764964    0.141162    0.000000
   112  O2    s     0.343177    0.251020    0.126171    0.000000
   113  O2    s     0.638551    0.483646    0.046670    0.000000
   114  O2    s     0.860982    0.521674    0.056819    0.000000
   115  O2    s     0.359277    0.492428    0.955245    0.000000
   116  O2    s     0.138254    0.530470    0.971551    0.000000
   117  O2    s     0.758184    0.286663    0.056555    0.000000
   118  O2    s     0.740950    0.717905    0.067897    0.000000
   119  O2    s     0.240416    0.293472    0.951620    0.000000
   120  O2    s     0.256623    0.729778    0.959933    0.000000
--------------------------------------------------------------------------------

  Final Cartesian lattice vectors (Angstroms) :

       17.190013    0.009444   -0.072432
        0.004098    7.605553    0.089634
       -0.046879    0.130087   10.301883


  Final cell parameters and derivatives :

--------------------------------------------------------------------------------
       a           17.190168 Angstrom     dE/de1(xx)     0.004174 eV/strain
       b            7.606082 Angstrom     dE/de2(yy)     0.004698 eV/strain
       c           10.302811 Angstrom     dE/de3(zz)     0.007459 eV/strain
       alpha       88.601470 Degrees      dE/de4(yz)     0.000097 eV/strain
       beta        90.501708 Degrees      dE/de5(xz)    -0.000576 eV/strain
       gamma       89.940499 Degrees      dE/de6(xy)     0.000389 eV/strain
--------------------------------------------------------------------------------

  Primitive cell volume =          1346.636778 Angs**3

  Density of cell =      1.943053 g/cm**3

  Non-primitive cell volume =          1346.636778 Angs**3


  Final internal derivatives :

--------------------------------------------------------------------------------
   No.  Atomic          a             b             c           Radius
        Label          (eV)          (eV)          (eV)        (eV/Angs)
--------------------------------------------------------------------------------
      1 Ge    c       0.000000      0.000000      0.000000      0.000000
      2 Ge    c      -0.000060     -0.000210      0.000124      0.000000
      3 Ge    c       0.001649     -0.002206     -0.002403      0.000000
      4 Si    c      -0.000925     -0.000189      0.000257      0.000000
      5 Si    c       0.000399      0.000432      0.000802      0.000000
      6 Si    c       0.001491     -0.000354      0.000161      0.000000
      7 Si    c       0.000934     -0.000026     -0.000003      0.000000
      8 Si    c      -0.000471      0.000173     -0.000296      0.000000
      9 Si    c      -0.000641     -0.000131      0.000103      0.000000
     10 Si    c      -0.000270     -0.000085      0.000027      0.000000
     11 Si    c       0.000392      0.000135     -0.000128      0.000000
     12 Si    c      -0.000728      0.000021      0.001079      0.000000
     13 Si    c      -0.003670      0.001423     -0.001354      0.000000
     14 Si    c      -0.002181      0.000863     -0.000037      0.000000
     15 Si    c       0.001018     -0.000048      0.000044      0.000000
     16 Si    c      -0.000526      0.000444     -0.000327      0.000000
     17 Si    c      -0.001202      0.000899      0.000299      0.000000
     18 Si    c      -0.002753      0.000528      0.003094      0.000000
     19 Si    c       0.000300      0.000163      0.000354      0.000000
     20 Si    c      -0.000485      0.000108      0.000203      0.000000
     21 Si    c       0.000388     -0.000060      0.000274      0.000000
     22 Si    c      -0.000387     -0.000102      0.000206      0.000000
     23 Si    c       0.000417     -0.000341     -0.001115      0.000000
     24 Si    c       0.001382     -0.002233      0.003074      0.000000
     25 O3    c      -0.000321     -0.000037      0.000171      0.000000
     26 O3    c       0.000010      0.000119     -0.000011      0.000000
     27 O3    c      -0.000180     -0.000164      0.000221      0.000000
     28 O2    c      -0.000007      0.000021     -0.000027      0.000000
     29 O2    c       0.002055      0.000803     -0.000740      0.000000
     30 O2    c       0.000095      0.000033     -0.000324      0.000000
     31 O3    c      -0.000420      0.000230     -0.000052      0.000000
     32 O2    c       0.000275     -0.000082      0.000317      0.000000
     33 O3    c       0.000452     -0.000189     -0.000683      0.000000
     34 O2    c      -0.000227      0.000089     -0.000452      0.000000
     35 O3    c       0.000486      0.000095      0.000519      0.000000
     36 O2    c       0.001009      0.000129     -0.000596      0.000000
     37 O2    c      -0.000545     -0.000028     -0.000273      0.000000
     38 O2    c      -0.001065     -0.000015      0.000133      0.000000
     39 O2    c      -0.000579     -0.000254      0.000071      0.000000
     40 O2    c       0.001051      0.000153     -0.000023      0.000000
     41 O2    c       0.000226     -0.000087     -0.000067      0.000000
     42 O2    c      -0.000341      0.000185     -0.000081      0.000000
     43 O2    c       0.000176      0.000107     -0.000130      0.000000
     44 O2    c       0.000056     -0.000137     -0.000032      0.000000
     45 O2    c      -0.000027      0.000071      0.000103      0.000000
     46 O2    c       0.000163     -0.000084     -0.000419      0.000000
     47 O2    c       0.000004      0.000063     -0.000077      0.000000
     48 O2    c      -0.000142      0.000087      0.000328      0.000000
     49 O2    c      -0.000060      0.000230     -0.000270      0.000000
     50 O3    c      -0.000031     -0.000141     -0.000667      0.000000
     51 O3    c       0.005447      0.000060     -0.005441      0.000000
     52 O2    c      -0.000403     -0.001075     -0.000365      0.000000
     53 O2    c       0.000735      0.000140     -0.000033      0.000000
     54 O3    c      -0.002207     -0.000487     -0.000091      0.000000
     55 O3    c      -0.001835     -0.000875     -0.001636      0.000000
     56 O2    c       0.001107      0.000188     -0.000708      0.000000
     57 O2    c       0.000185      0.000038     -0.000046      0.000000
     58 O3    c      -0.000310     -0.000039     -0.000179      0.000000
     59 O3    c       0.005995     -0.001455     -0.002564      0.000000
     60 O2    c       0.000468     -0.000075      0.000446      0.000000
     61 O2    c       0.002334      0.000306      0.000681      0.000000
     62 O2    c      -0.000373     -0.000463      0.000246      0.000000
     63 O2    c       0.000240     -0.000020      0.000167      0.000000
     64 O2    c      -0.000671     -0.000018      0.000126      0.000000
     65 O2    c      -0.000340     -0.000413     -0.000105      0.000000
     66 O2    c       0.003787      0.003137      0.003039      0.000000
     67 O2    c      -0.000035     -0.000421      0.000123      0.000000
     68 O2    c       0.000042      0.000059      0.000034      0.000000
     69 O2    c      -0.005200     -0.000475      0.001454      0.000000
     70 O2    c       0.000549     -0.000200      0.000237      0.000000
     71 O2    c       0.000792     -0.000100     -0.000019      0.000000
     72 O2    c       0.000108      0.000060     -0.000146      0.000000
     73 O3    s       0.000061     -0.000037     -0.000056      0.000000
     74 O3    s      -0.000273     -0.000189      0.000007      0.000000
     75 O3    s       0.001141     -0.000366     -0.000524      0.000000
     76 O2    s      -0.000726      0.000363     -0.000075      0.000000
     77 O2    s      -0.000270      0.001371     -0.001022      0.000000
     78 O2    s      -0.000311     -0.000065     -0.000215      0.000000
     79 O3    s       0.000434     -0.000184     -0.000186      0.000000
     80 O2    s      -0.000828      0.000176     -0.000079      0.000000
     81 O3    s      -0.000174      0.000021      0.000042      0.000000
     82 O2    s       0.000135     -0.000075      0.000032      0.000000
     83 O3    s      -0.000341      0.000037     -0.000162      0.000000
     84 O2    s      -0.000112     -0.000069      0.000147      0.000000
     85 O2    s       0.000408      0.000130      0.000267      0.000000
     86 O2    s       0.000148      0.000220      0.000265      0.000000
     87 O2    s      -0.000109     -0.000145      0.000421      0.000000
     88 O2    s      -0.000205      0.000967      0.000987      0.000000
     89 O2    s      -0.000208      0.000101      0.000116      0.000000
     90 O2    s      -0.000031     -0.000036      0.000053      0.000000
     91 O2    s      -0.000145     -0.000005      0.000146      0.000000
     92 O2    s      -0.000242      0.000098      0.000061      0.000000
     93 O2    s      -0.000578      0.000218      0.000116      0.000000
     94 O2    s       0.001494     -0.001364      0.001251      0.000000
     95 O2    s      -0.000072      0.000114     -0.000039      0.000000
     96 O2    s      -0.000028     -0.000061      0.000001      0.000000
     97 O2    s       0.000457      0.000227     -0.000216      0.000000
     98 O3    s      -0.000419     -0.000053     -0.000199      0.000000
     99 O3    s       0.001110     -0.001258     -0.001677      0.000000
    100 O2    s      -0.001916     -0.000078     -0.001339      0.000000
    101 O2    s       0.000188      0.000252     -0.000329      0.000000
    102 O3    s       0.000433     -0.000148     -0.000340      0.000000
    103 O3    s       0.000330     -0.000794     -0.000933      0.000000
    104 O2    s      -0.002547      0.001810     -0.002104      0.000000
    105 O2    s       0.000176      0.000040      0.000074      0.000000
    106 O3    s      -0.000174      0.000133      0.000247      0.000000
    107 O3    s       0.000702     -0.000657     -0.000799      0.000000
    108 O2    s      -0.002302      0.001103      0.000342      0.000000
    109 O2    s       0.001754      0.002079      0.001322      0.000000
    110 O2    s      -0.000751     -0.001063     -0.000253      0.000000
    111 O2    s       0.000786     -0.000176      0.000283      0.000000
    112 O2    s      -0.000645      0.000009      0.000055      0.000000
    113 O2    s      -0.001951      0.000011      0.001173      0.000000
    114 O2    s       0.003850     -0.000107      0.002870      0.000000
    115 O2    s      -0.000280     -0.000046      0.000074      0.000000
    116 O2    s      -0.000127     -0.000022     -0.000057      0.000000
    117 O2    s      -0.002358     -0.001722      0.001456      0.000000
    118 O2    s      -0.001841      0.001045      0.002043      0.000000
    119 O2    s       0.000169      0.000191      0.000337      0.000000
    120 O2    s      -0.000163     -0.000094      0.000136      0.000000
--------------------------------------------------------------------------------
  Maximum abs         0.005995      0.003137      0.005441      0.000000
--------------------------------------------------------------------------------


  Born effective charge tensors : 

-------------------------------------------------------------------------------
  Atom             x           y             z
-------------------------------------------------------------------------------
    1 Ge    x       4.2348      0.1623     -0.0500
            y      -0.1294      3.8724      0.0215
            z      -0.7908      0.0061      4.5300
-------------------------------------------------------------------------------
    2 Ge    x       3.9161      0.2434      0.1052
            y       0.4013      4.1996      0.2212
            z       0.1551      0.0751      3.4482
-------------------------------------------------------------------------------
    3 Ge    x       3.9611     -0.2585     -0.0765
            y      -0.3889      4.1863      0.2158
            z      -0.1514      0.0704      3.4248
-------------------------------------------------------------------------------
    4 Si    x       3.5231      0.3763      0.1602
            y      -0.0377      3.4737     -0.0096
            z       0.4782      0.1901      3.8774
-------------------------------------------------------------------------------
    5 Si    x       3.6996     -0.4051     -0.4570
            y       0.0028      3.5147      0.0380
            z      -0.4435      0.3504      4.2764
-------------------------------------------------------------------------------
    6 Si    x       3.4283     -0.0802      0.1952
            y       0.0936      3.2379      0.0094
            z       0.3635     -0.0228      3.8021
-------------------------------------------------------------------------------
    7 Si    x       3.4822     -0.1764     -0.1767
            y       0.1552      3.2553      0.0087
            z      -0.4718      0.0740      3.1100
-------------------------------------------------------------------------------
    8 Si    x       3.7706     -0.1719      0.2581
            y       0.1221      3.2766     -0.0530
            z       0.7805     -0.1214      3.2760
-------------------------------------------------------------------------------
    9 Si    x       3.5105      0.1216     -0.2179
            y      -0.1434      3.2384      0.0070
            z      -0.4799     -0.0234      3.1154
-------------------------------------------------------------------------------
   10 Si    x       3.5314      0.1457      0.3273
            y      -0.1367      3.2692      0.0141
            z       0.3850      0.0391      3.0959
-------------------------------------------------------------------------------
   11 Si    x       3.4146      0.3261     -0.2597
            y       0.4004      3.4956     -0.3185
            z      -0.2607     -0.1645      3.0137
-------------------------------------------------------------------------------
   12 Si    x       3.1836     -0.2166      0.0773
            y      -0.2671      3.4137     -0.1545
            z       0.1366     -0.0708      2.8211
-------------------------------------------------------------------------------
   13 Si    x       3.2899      0.2517     -0.0848
            y       0.0361      3.7551      0.0238
            z      -0.1542     -0.0223      2.8592
-------------------------------------------------------------------------------
   14 Si    x       3.5439      0.2520     -0.0015
            y       0.1813      3.5400      0.1883
            z       0.0661      0.0905      2.8811
-------------------------------------------------------------------------------
   15 Si    x       3.7252     -0.3770     -0.1910
            y      -0.2862      3.6361      0.3696
            z      -0.1551      0.1850      3.0613
-------------------------------------------------------------------------------
   16 Si    x       3.2569     -0.2391      0.1348
            y      -0.0206      3.7464     -0.0130
            z       0.1374     -0.0156      2.8913
-------------------------------------------------------------------------------
   17 Si    x       3.2001      0.3481     -0.1252
            y       0.1029      3.4595     -0.1528
            z      -0.1239     -0.0760      2.7131
-------------------------------------------------------------------------------
   18 Si    x       3.2477      0.3337      0.1383
            y       0.1114      3.3996      0.1463
            z       0.1353      0.0657      2.6732
-------------------------------------------------------------------------------
   19 Si    x       3.2598     -0.3286     -0.1931
            y      -0.1171      3.4250      0.1774
            z      -0.1299      0.0739      2.7234
-------------------------------------------------------------------------------
   20 Si    x       3.2410     -0.3288      0.1650
            y      -0.1073      3.4783     -0.1933
            z       0.1126     -0.0596      2.7104
-------------------------------------------------------------------------------
   21 Si    x       3.3613      0.2946     -0.0892
            y       0.2824      3.5094     -0.1032
            z      -0.0552     -0.0039      2.9959
-------------------------------------------------------------------------------
   22 Si    x       3.2881      0.2457      0.1301
            y       0.2537      3.4358      0.2299
            z       0.1471      0.0592      2.7007
-------------------------------------------------------------------------------
   23 Si    x       3.2564     -0.2614     -0.0976
            y      -0.2691      3.4088      0.1854
            z      -0.1643      0.0512      2.7063
-------------------------------------------------------------------------------
   24 Si    x       3.3475     -0.3041      0.0633
            y      -0.2835      3.4781     -0.0757
            z       0.0802      0.0144      2.9622
-------------------------------------------------------------------------------
   25 O3    x      -2.0376     -0.9396      0.4793
            y      -0.9024     -2.3138      0.4669
            z       0.5712      0.4679     -1.6287
-------------------------------------------------------------------------------
   26 O3    x      -1.9054     -0.8792     -0.3559
            y      -0.8494     -2.5513     -0.3445
            z      -0.4273     -0.3524     -1.5403
-------------------------------------------------------------------------------
   27 O3    x      -1.9422      0.8703      0.3801
            y       0.8591     -2.5391     -0.3506
            z       0.4050     -0.3520     -1.5244
-------------------------------------------------------------------------------
   28 O2    x      -1.6757      0.7176     -0.3232
            y       0.6898     -1.9921      0.3299
            z      -0.3601      0.3296     -1.3425
-------------------------------------------------------------------------------
   29 O2    x      -1.8423     -0.6679      0.3454
            y      -0.7286     -1.8844      0.3260
            z       0.3778      0.3045     -1.3312
-------------------------------------------------------------------------------
   30 O2    x      -1.7353     -0.7158     -0.3191
            y      -0.7540     -1.9640     -0.3316
            z      -0.3654     -0.3290     -1.3451
-------------------------------------------------------------------------------
   31 O3    x      -2.0929      0.9220      0.4465
            y       0.9790     -2.2665     -0.4904
            z       0.5260     -0.4586     -1.6438
-------------------------------------------------------------------------------
   32 O2    x      -1.8347      0.6533     -0.3226
            y       0.7193     -1.8443      0.3190
            z      -0.3670      0.2894     -1.3494
-------------------------------------------------------------------------------
   33 O3    x      -1.9131      0.0991      1.0427
            y       0.0412     -1.2236     -0.1316
            z       1.3095     -0.2525     -3.4365
-------------------------------------------------------------------------------
   34 O2    x      -1.5494     -0.0693     -0.7810
            y      -0.0297     -1.1000     -0.0700
            z      -0.9605     -0.1311     -2.7846
-------------------------------------------------------------------------------
   35 O3    x      -2.1426      0.0546     -1.0717
            y       0.0285     -1.2573      0.0256
            z      -1.0472      0.0492     -2.7220
-------------------------------------------------------------------------------
   36 O2    x      -1.6581      0.0129      0.7191
            y       0.0043     -1.1229     -0.0094
            z       0.6967     -0.0428     -2.2870
-------------------------------------------------------------------------------
   37 O2    x      -1.7422      0.0018     -0.6751
            y       0.0073     -1.1125     -0.0007
            z      -0.6568     -0.0281     -2.2169
-------------------------------------------------------------------------------
   38 O2    x      -1.7636     -0.0190      0.7402
            y       0.0108     -1.1057      0.0083
            z       0.7535      0.0352     -2.2023
-------------------------------------------------------------------------------
   39 O2    x      -1.7678     -0.7224      0.3161
            y      -0.6983     -1.9382      0.3444
            z       0.3370      0.3200     -1.2230
-------------------------------------------------------------------------------
   40 O2    x      -1.7665     -0.7162     -0.2380
            y      -0.6831     -1.9143     -0.2741
            z      -0.3184     -0.2820     -1.2172
-------------------------------------------------------------------------------
   41 O2    x      -1.7562      0.7167      0.3572
            y       0.6872     -1.9187     -0.3805
            z       0.3551     -0.3507     -1.2755
-------------------------------------------------------------------------------
   42 O2    x      -1.7731      0.7311     -0.4075
            y       0.6961     -1.9514      0.4172
            z      -0.3509      0.3519     -1.2583
-------------------------------------------------------------------------------
   43 O2    x      -1.6535     -0.6972      0.3305
            y      -0.6012     -2.0283      0.3467
            z       0.3405      0.3341     -1.2450
-------------------------------------------------------------------------------
   44 O2    x      -1.6910     -0.7057     -0.4042
            y      -0.6071     -2.0258     -0.4169
            z      -0.3741     -0.3751     -1.2631
-------------------------------------------------------------------------------
   45 O2    x      -1.6700      0.6949      0.3268
            y       0.6049     -2.0194     -0.3309
            z       0.3726     -0.3361     -1.2285
-------------------------------------------------------------------------------
   46 O2    x      -1.6690      0.6881     -0.2515
            y       0.5916     -2.0262      0.2601
            z      -0.3139      0.2623     -1.2019
-------------------------------------------------------------------------------
   47 O2    x      -1.8449      0.0217     -0.6412
            y       0.0049     -1.1691      0.0063
            z      -0.3735      0.0080     -1.7062
-------------------------------------------------------------------------------
   48 O2    x      -1.8798     -0.0390      0.6048
            y      -0.0252     -1.1757      0.0061
            z       0.3411      0.0097     -1.6569
-------------------------------------------------------------------------------
   49 O2    x      -1.1727     -0.0313      0.0637
            y      -0.0779     -2.4820     -0.0364
            z       0.0719     -0.0320     -1.0999
-------------------------------------------------------------------------------
   50 O3    x      -1.3399     -0.1785     -0.1047
            y      -0.2515     -3.1539     -0.1299
            z      -0.1259     -0.1270     -1.2217
-------------------------------------------------------------------------------
   51 O3    x      -1.3519      0.1729      0.1013
            y       0.2259     -3.1461     -0.1585
            z       0.1302     -0.1407     -1.2250
-------------------------------------------------------------------------------
   52 O2    x      -1.1496      0.0216     -0.0552
            y       0.0641     -2.5752     -0.0465
            z      -0.0735     -0.0522     -1.0831
-------------------------------------------------------------------------------
   53 O2    x      -2.3727      0.1661      0.0324
            y       0.1128     -1.2570      0.0588
            z       0.0234      0.0394     -1.0979
-------------------------------------------------------------------------------
   54 O3    x      -2.9960      0.0887     -0.0553
            y      -0.0021     -1.3900     -0.0924
            z      -0.0711     -0.0555     -1.2226
-------------------------------------------------------------------------------
   55 O3    x      -3.0030     -0.0810      0.0894
            y      -0.0075     -1.3870     -0.0953
            z       0.1043     -0.0616     -1.2392
-------------------------------------------------------------------------------
   56 O2    x      -2.3842     -0.1354     -0.0267
            y      -0.0792     -1.2450      0.0559
            z      -0.0166      0.0434     -1.0956
-------------------------------------------------------------------------------
   57 O2    x      -1.2236     -0.1310     -0.0633
            y      -0.1262     -1.2922      0.0106
            z      -0.0703      0.0132     -2.0414
-------------------------------------------------------------------------------
   58 O3    x      -1.3706     -0.1632     -0.0936
            y      -0.1644     -1.4339     -0.0536
            z      -0.0749     -0.0147     -2.5940
-------------------------------------------------------------------------------
   59 O3    x      -1.3570      0.1583      0.0436
            y       0.1506     -1.4252     -0.0505
            z       0.0142     -0.0114     -2.5939
-------------------------------------------------------------------------------
   60 O2    x      -1.1869      0.1179      0.0331
            y       0.1147     -1.2712      0.0344
            z       0.0406      0.0443     -2.0735
-------------------------------------------------------------------------------
   61 O2    x      -1.1955     -0.1241     -0.0115
            y      -0.0704     -1.2597      0.0798
            z      -0.0138      0.0694     -2.0604
-------------------------------------------------------------------------------
   62 O2    x      -1.1660     -0.1150     -0.0288
            y      -0.0724     -1.3012      0.0002
            z      -0.0213      0.0304     -2.0727
-------------------------------------------------------------------------------
   63 O2    x      -1.1944      0.1310     -0.0174
            y       0.0870     -1.3288      0.0053
            z      -0.0349      0.0220     -2.0456
-------------------------------------------------------------------------------
   64 O2    x      -1.1934      0.1276     -0.0116
            y       0.0816     -1.2688      0.0620
            z      -0.0013      0.0639     -2.0820
-------------------------------------------------------------------------------
   65 O2    x      -1.2314      0.0486      0.0751
            y       0.1246     -2.5038     -0.0475
            z       0.1030     -0.0282     -1.0153
-------------------------------------------------------------------------------
   66 O2    x      -1.2518      0.0681     -0.0752
            y       0.1382     -2.4795     -0.0227
            z      -0.0981     -0.0038     -1.0102
-------------------------------------------------------------------------------
   67 O2    x      -1.2389     -0.0658      0.0853
            y      -0.1281     -2.5188     -0.0081
            z       0.0916      0.0015     -1.0185
-------------------------------------------------------------------------------
   68 O2    x      -1.2398     -0.0515     -0.0771
            y      -0.1206     -2.5607     -0.0394
            z      -0.0879     -0.0194     -1.0017
-------------------------------------------------------------------------------
   69 O2    x      -2.4267     -0.0984     -0.0531
            y      -0.0552     -1.2573      0.0494
            z      -0.0458      0.0287     -1.0286
-------------------------------------------------------------------------------
   70 O2    x      -2.4045     -0.0883     -0.0249
            y      -0.0523     -1.2293     -0.0644
            z      -0.0066     -0.0346     -1.0570
-------------------------------------------------------------------------------
   71 O2    x      -2.4513      0.0926      0.0565
            y       0.0536     -1.2349     -0.0729
            z       0.0263     -0.0359     -1.0395
-------------------------------------------------------------------------------
   72 O2    x      -2.4649      0.1037      0.0858
            y       0.0534     -1.2593      0.0536
            z       0.0691      0.0249     -1.0197
-------------------------------------------------------------------------------




  Elastic Constant Matrix: (Units=GPa)

-------------------------------------------------------------------------------
  Indices      1         2         3         4         5         6    
-------------------------------------------------------------------------------
       1     46.1881   18.8066   20.7948    3.5435    0.5311    2.1330
       2     18.8066   61.2047   17.8543    4.0022    1.5506    2.2330
       3     20.7948   17.8543   35.1974    2.3445   -1.6702   -0.3032
       4      3.5435    4.0022    2.3445   10.4801   -0.6226    0.6221
       5      0.5311    1.5506   -1.6702   -0.6226   19.6433    5.1500
       6      2.1330    2.2330   -0.3032    0.6221    5.1500   25.0497
-------------------------------------------------------------------------------


  Elastic Compliance Matrix: (Units=1/GPa)

-------------------------------------------------------------------------------
  Indices      1         2         3         4         5         6    
-------------------------------------------------------------------------------
       1    0.031126 -0.004487 -0.015852 -0.005233 -0.001474 -0.002009
       2   -0.004487  0.020273 -0.007428 -0.004623 -0.001998 -0.000990
       3   -0.015852 -0.007428  0.041821 -0.001017  0.004092  0.001702
       4   -0.005233 -0.004623 -0.001017  0.099581  0.004231 -0.002498
       5   -0.001474 -0.001998  0.004092  0.004231  0.054458 -0.010948
       6   -0.002009 -0.000990  0.001702 -0.002498 -0.010948  0.042513
-------------------------------------------------------------------------------

  Mechanical properties :

-------------------------------------------------------------------------------
  Convention :                    Reuss         Voigt         Hill
-------------------------------------------------------------------------------
  Bulk  Modulus (GPa)     =      26.53513      28.61130      27.57321
  Shear Modulus (GPa)     =      13.97160      16.71024      15.34092
-------------------------------------------------------------------------------
  Velocity S-wave (km/s)  =       2.68152       2.93257       2.80985
  Velocity P-wave (km/s)  =       4.82118       5.11777       4.97169
-------------------------------------------------------------------------------
  Compressibility (1/GPa) =    0.03768589
-------------------------------------------------------------------------------
  Stress axis :                     x             y             z
-------------------------------------------------------------------------------
  Youngs Moduli (GPa)     =      32.12784      49.32591      23.91128
-------------------------------------------------------------------------------
  Poissons Ratio (x)      =                     0.22133       0.37904
  Poissons Ratio (y)      =       0.14416                     0.17762
  Poissons Ratio (z)      =       0.50928       0.36641
-------------------------------------------------------------------------------


  Piezoelectric Strain Matrix: (Units=C/m**2)

-------------------------------------------------------------------------------
  Indices      1         2         3         4         5         6    
-------------------------------------------------------------------------------
       x    -0.45342  -0.79151   0.49983   0.27755   0.22566   0.12846
       y     0.10380   0.08625   0.57761   0.21971   0.15184   0.08673
       z     0.18273   0.83998  -1.74283  -0.20666  -0.56529  -0.05316
-------------------------------------------------------------------------------


  Piezoelectric Stress Matrix: (Units=10**-11 C/N)

-------------------------------------------------------------------------------
  Indices      1         2         3         4         5         6    
-------------------------------------------------------------------------------
       x    -2.05278  -1.95859   3.48304   3.37963   1.63522   0.48424
       y    -0.78603  -0.44128   2.24159   2.07759   1.02877   0.21653
       z     3.15671   3.12928  -8.42171  -2.59048  -4.01565   0.02801
-------------------------------------------------------------------------------


  Static dielectric constant tensor : 

-------------------------------------------------------------------------------
              x         y         z
-------------------------------------------------------------------------------
       x     4.07173  -0.01522  -0.21497
       y    -0.01522   4.11407   0.05581
       z    -0.21497   0.05581   3.45018
--------------------------------------------------------------------------------

  High frequency dielectric constant tensor : 

-------------------------------------------------------------------------------
              x         y         z
-------------------------------------------------------------------------------
       x     1.67557  -0.00003   0.00015
       y    -0.00003   1.68165   0.00255
       z     0.00015   0.00255   1.61376
-------------------------------------------------------------------------------

  Static refractive indices : 

-------------------------------------------------------------------------------
    1 =    1.83843      2 =    2.02365      3 =    2.03985
-------------------------------------------------------------------------------

  High frequency refractive indices : 

-------------------------------------------------------------------------------
    1 =    1.27030      2 =    1.29444      3 =    1.29682
-------------------------------------------------------------------------------


  Time to end of optimisation =       8.0945 seconds


  Peak dynamic memory used =       5.01 MB 


  Timing analysis for GULP :

--------------------------------------------------------------------------------
  Task / Subroutine                                          Time (Seconds)
--------------------------------------------------------------------------------
  Calculation of reciprocal space energy and derivatives          0.5180
  Calculation of real space energy and derivatives                5.3253
  Calculation of three-body energy and derivatives                0.4947
  Calculation and manipulation of Hessian matrix                  2.1162
  Calculation of matrix inversion                                 0.0359
  Global summation overhead                                       0.0001
--------------------------------------------------------------------------------
  Total CPU time                                                  8.0946
--------------------------------------------------------------------------------


  Dump file written as c00073.vasp.grs
  CIF file written as c00073.vasp.cif


  Job Finished at 11:39.27  7th October    2025                               

