********************************************************************************
*                       GENERAL UTILITY LATTICE PROGRAM                        *
*                                 Julian Gale                                  *
*                       Curtin Institute for Computation                       *
*                    School of Molecular and Life Sciences                     *
*                    Curtin University, Western Australia                      *
********************************************************************************
* Version = 6.1.2 * Last modified =   3rd November 2022                        *
********************************************************************************
*  optimise     - perform optimisation run                                     *
*  conp         - constant pressure calculation                                *
*  property     - calculate properties for final geometry                      *
********************************************************************************

  Job Started  at 11:43.48  7th October    2025                               

  Number of CPUs =     1


  Total number of configurations input =      1

********************************************************************************
*  Input for Configuration =   1 : c00099.vasp                                 *
********************************************************************************

  Formula = Ge3Si21O48                                                  

  Number of irreducible atoms/shells =     120


  Total number atoms/shells =     120

  Dimensionality = 3               :  Bulk   



  Cartesian lattice vectors (Angstroms) :

       17.182800    0.000000    0.000000
        0.000000    7.513760    0.000000
        0.000000    0.000000   10.447700

  Cell parameters (Angstroms/Degrees):

  a =      17.1828    alpha =  90.0000
  b =       7.5138    beta  =  90.0000
  c =      10.4477    gamma =  90.0000

  Initial cell volume =        1348.875752 Angs**3

  Temperature of configuration =   0.00     K 

  Pressure of configuration =         0.000 GPa 

  Fractional coordinates of asymmetric unit :

--------------------------------------------------------------------------------
   No.  Atomic       x           y          z         Charge      Occupancy
        Label      (Frac)      (Frac)     (Frac)        (e)         (Frac)  
--------------------------------------------------------------------------------
      1 Ge    c    0.052090    0.000000    0.372270     4.00000    1.000000    
      2 Ge    c    0.660190 *  0.706090 *  0.726560 *   4.00000    1.000000    
      3 Ge    c    0.839340 *  0.705910 *  0.017440 *   4.00000    1.000000    
      4 Si    c    0.447910 *  0.000000 *  0.372270 *   4.00000    1.000000    
      5 Si    c    0.947910 *  0.000000 *  0.627730 *   4.00000    1.000000    
      6 Si    c    0.552090 *  0.000000 *  0.627730 *   4.00000    1.000000    
      7 Si    c    0.556730 *  0.000000 *  0.122130 *   4.00000    1.000000    
      8 Si    c    0.943270 *  0.000000 *  0.122130 *   4.00000    1.000000    
      9 Si    c    0.443270 *  0.000000 *  0.877870 *   4.00000    1.000000    
     10 Si    c    0.056730 *  0.000000 *  0.877870 *   4.00000    1.000000    
     11 Si    c    0.160190 *  0.293910 *  0.273440 *   4.00000    1.000000    
     12 Si    c    0.339810 *  0.706090 *  0.273440 *   4.00000    1.000000    
     13 Si    c    0.839810 *  0.293910 *  0.726560 *   4.00000    1.000000    
     14 Si    c    0.839810 *  0.706090 *  0.726560 *   4.00000    1.000000    
     15 Si    c    0.660190 *  0.293910 *  0.726560 *   4.00000    1.000000    
     16 Si    c    0.160190 *  0.706090 *  0.273440 *   4.00000    1.000000    
     17 Si    c    0.339810 *  0.293910 *  0.273440 *   4.00000    1.000000    
     18 Si    c    0.660660 *  0.294090 *  0.017440 *   4.00000    1.000000    
     19 Si    c    0.339340 *  0.294090 *  0.982560 *   4.00000    1.000000    
     20 Si    c    0.160660 *  0.705910 *  0.982560 *   4.00000    1.000000    
     21 Si    c    0.339340 *  0.705910 *  0.982560 *   4.00000    1.000000    
     22 Si    c    0.160660 *  0.294090 *  0.982560 *   4.00000    1.000000    
     23 Si    c    0.660660 *  0.705910 *  0.017440 *   4.00000    1.000000    
     24 Si    c    0.839340 *  0.294090 *  0.017440 *   4.00000    1.000000    
     25 O3    c    0.106570 *  0.174340 *  0.366200 *   1.33043    1.000000    
     26 O2    c    0.393430 *  0.825660 *  0.366200 *   0.87073    1.000000    
     27 O2    c    0.893430 *  0.174340 *  0.633800 *   0.87073    1.000000    
     28 O3    c    0.606570 *  0.825660 *  0.633800 *   1.33043    1.000000    
     29 O2    c    0.893430 *  0.825660 *  0.633800 *   0.87073    1.000000    
     30 O2    c    0.606570 *  0.174340 *  0.633800 *   0.87073    1.000000    
     31 O3    c    0.106570 *  0.825660 *  0.366200 *   1.33043    1.000000    
     32 O2    c    0.393430 *  0.174340 *  0.366200 *   0.87073    1.000000    
     33 O3    c    0.000000 *  0.000000 *  0.500000 *   1.33043    1.000000    
     34 O2    c    0.500000 *  0.000000 *  0.500000 *   0.87073    1.000000    
     35 O3    c    0.994520 *  0.000000 *  0.250840 *   1.33043    1.000000    
     36 O2    c    0.505480 *  0.000000 *  0.250840 *   0.87073    1.000000    
     37 O2    c    0.005480 *  0.000000 *  0.749160 *   0.87073    1.000000    
     38 O2    c    0.494520 *  0.000000 *  0.749160 *   0.87073    1.000000    
     39 O2    c    0.610230 *  0.175520 *  0.115390 *   0.87073    1.000000    
     40 O3    c    0.889770 *  0.824480 *  0.115390 *   1.33043    1.000000    
     41 O2    c    0.389770 *  0.175520 *  0.884610 *   0.87073    1.000000    
     42 O2    c    0.110230 *  0.824480 *  0.884610 *   0.87073    1.000000    
     43 O2    c    0.389770 *  0.824480 *  0.884610 *   0.87073    1.000000    
     44 O2    c    0.110230 *  0.175520 *  0.884610 *   0.87073    1.000000    
     45 O2    c    0.610230 *  0.824480 *  0.115390 *   0.87073    1.000000    
     46 O2    c    0.889770 *  0.175520 *  0.115390 *   0.87073    1.000000    
     47 O2    c    0.500000 *  0.000000 *  0.000000 *   0.87073    1.000000    
     48 O2    c    0.000000 *  0.000000 *  0.000000 *   0.87073    1.000000    
     49 O2    c    0.151750 *  0.500000 *  0.313330 *   0.87073    1.000000    
     50 O2    c    0.348250 *  0.500000 *  0.313330 *   0.87073    1.000000    
     51 O2    c    0.848250 *  0.500000 *  0.686670 *   0.87073    1.000000    
     52 O3    c    0.651750 *  0.500000 *  0.686670 *   1.33043    1.000000    
     53 O2    c    0.250000 *  0.234950 *  0.285720 *   0.87073    1.000000    
     54 O2    c    0.250000 *  0.765050 *  0.285720 *   0.87073    1.000000    
     55 O2    c    0.750000 *  0.234950 *  0.714280 *   0.87073    1.000000    
     56 O3    c    0.750000 *  0.765050 *  0.714280 *   1.33043    1.000000    
     57 O2    c    0.131410 *  0.268650 *  0.127790 *   0.87073    1.000000    
     58 O2    c    0.368590 *  0.731350 *  0.127790 *   0.87073    1.000000    
     59 O2    c    0.868590 *  0.268650 *  0.872210 *   0.87073    1.000000    
     60 O3    c    0.631410 *  0.731350 *  0.872210 *   1.33043    1.000000    
     61 O3    c    0.868590 *  0.731350 *  0.872210 *   1.33043    1.000000    
     62 O2    c    0.631410 *  0.268650 *  0.872210 *   0.87073    1.000000    
     63 O2    c    0.131410 *  0.731350 *  0.127790 *   0.87073    1.000000    
     64 O2    c    0.368590 *  0.268650 *  0.127790 *   0.87073    1.000000    
     65 O2    c    0.653920 *  0.500000 *  0.058200 *   0.87073    1.000000    
     66 O3    c    0.846080 *  0.500000 *  0.058200 *   1.33043    1.000000    
     67 O2    c    0.346080 *  0.500000 *  0.941800 *   0.87073    1.000000    
     68 O2    c    0.153920 *  0.500000 *  0.941800 *   0.87073    1.000000    
     69 O2    c    0.750000 *  0.231060 *  0.027050 *   0.87073    1.000000    
     70 O3    c    0.750000 *  0.768940 *  0.027050 *   1.33043    1.000000    
     71 O2    c    0.250000 *  0.231060 *  0.972950 *   0.87073    1.000000    
     72 O2    c    0.250000 *  0.768940 *  0.972950 *   0.87073    1.000000    
     73 O3    s    0.106570 *  0.174340 *  0.366200 *  -3.33043    1.000000    
     74 O2    s    0.393430 *  0.825660 *  0.366200 *  -2.87073    1.000000    
     75 O2    s    0.893430 *  0.174340 *  0.633800 *  -2.87073    1.000000    
     76 O3    s    0.606570 *  0.825660 *  0.633800 *  -3.33043    1.000000    
     77 O2    s    0.893430 *  0.825660 *  0.633800 *  -2.87073    1.000000    
     78 O2    s    0.606570 *  0.174340 *  0.633800 *  -2.87073    1.000000    
     79 O3    s    0.106570 *  0.825660 *  0.366200 *  -3.33043    1.000000    
     80 O2    s    0.393430 *  0.174340 *  0.366200 *  -2.87073    1.000000    
     81 O3    s    0.000000 *  0.000000 *  0.500000 *  -3.33043    1.000000    
     82 O2    s    0.500000 *  0.000000 *  0.500000 *  -2.87073    1.000000    
     83 O3    s    0.994520 *  0.000000 *  0.250840 *  -3.33043    1.000000    
     84 O2    s    0.505480 *  0.000000 *  0.250840 *  -2.87073    1.000000    
     85 O2    s    0.005480 *  0.000000 *  0.749160 *  -2.87073    1.000000    
     86 O2    s    0.494520 *  0.000000 *  0.749160 *  -2.87073    1.000000    
     87 O2    s    0.610230 *  0.175520 *  0.115390 *  -2.87073    1.000000    
     88 O3    s    0.889770 *  0.824480 *  0.115390 *  -3.33043    1.000000    
     89 O2    s    0.389770 *  0.175520 *  0.884610 *  -2.87073    1.000000    
     90 O2    s    0.110230 *  0.824480 *  0.884610 *  -2.87073    1.000000    
     91 O2    s    0.389770 *  0.824480 *  0.884610 *  -2.87073    1.000000    
     92 O2    s    0.110230 *  0.175520 *  0.884610 *  -2.87073    1.000000    
     93 O2    s    0.610230 *  0.824480 *  0.115390 *  -2.87073    1.000000    
     94 O2    s    0.889770 *  0.175520 *  0.115390 *  -2.87073    1.000000    
     95 O2    s    0.500000 *  0.000000 *  0.000000 *  -2.87073    1.000000    
     96 O2    s    0.000000 *  0.000000 *  0.000000 *  -2.87073    1.000000    
     97 O2    s    0.151750 *  0.500000 *  0.313330 *  -2.87073    1.000000    
     98 O2    s    0.348250 *  0.500000 *  0.313330 *  -2.87073    1.000000    
     99 O2    s    0.848250 *  0.500000 *  0.686670 *  -2.87073    1.000000    
    100 O3    s    0.651750 *  0.500000 *  0.686670 *  -3.33043    1.000000    
    101 O2    s    0.250000 *  0.234950 *  0.285720 *  -2.87073    1.000000    
    102 O2    s    0.250000 *  0.765050 *  0.285720 *  -2.87073    1.000000    
    103 O2    s    0.750000 *  0.234950 *  0.714280 *  -2.87073    1.000000    
    104 O3    s    0.750000 *  0.765050 *  0.714280 *  -3.33043    1.000000    
    105 O2    s    0.131410 *  0.268650 *  0.127790 *  -2.87073    1.000000    
    106 O2    s    0.368590 *  0.731350 *  0.127790 *  -2.87073    1.000000    
    107 O2    s    0.868590 *  0.268650 *  0.872210 *  -2.87073    1.000000    
    108 O3    s    0.631410 *  0.731350 *  0.872210 *  -3.33043    1.000000    
    109 O3    s    0.868590 *  0.731350 *  0.872210 *  -3.33043    1.000000    
    110 O2    s    0.631410 *  0.268650 *  0.872210 *  -2.87073    1.000000    
    111 O2    s    0.131410 *  0.731350 *  0.127790 *  -2.87073    1.000000    
    112 O2    s    0.368590 *  0.268650 *  0.127790 *  -2.87073    1.000000    
    113 O2    s    0.653920 *  0.500000 *  0.058200 *  -2.87073    1.000000    
    114 O3    s    0.846080 *  0.500000 *  0.058200 *  -3.33043    1.000000    
    115 O2    s    0.346080 *  0.500000 *  0.941800 *  -2.87073    1.000000    
    116 O2    s    0.153920 *  0.500000 *  0.941800 *  -2.87073    1.000000    
    117 O2    s    0.750000 *  0.231060 *  0.027050 *  -2.87073    1.000000    
    118 O3    s    0.750000 *  0.768940 *  0.027050 *  -3.33043    1.000000    
    119 O2    s    0.250000 *  0.231060 *  0.972950 *  -2.87073    1.000000    
    120 O2    s    0.250000 *  0.768940 *  0.972950 *  -2.87073    1.000000    
--------------------------------------------------------------------------------



********************************************************************************
*  General input information                                                   *
********************************************************************************

  Species output for all configurations : 

--------------------------------------------------------------------------------
  Species    Type    Atomic    Atomic    Charge       Radii (Angs)     Library
                     Number     Mass       (e)     Cova   Ionic  VDW   Symbol
--------------------------------------------------------------------------------
    Ge       Core       32      72.61   4.000000   1.170  0.000  1.750 Ge       
    Si       Core       14      28.09   4.000000   1.200  0.000  2.100 Si       
    O1       Core        8      16.00   1.733957   0.730  0.000  0.000 O1       
    O2       Core        8      16.00   0.870733   0.730  0.000  1.360 O2       
    O3       Core        8      16.00   1.330431   0.730  0.000  1.360 O3       
    O1       Shell       8       0.00  -3.733957   0.730  0.000  0.000 O1       
    O2       Shell       8       0.00  -2.870733   0.730  0.000  0.000 O2       
    O3       Shell       8       0.00  -3.330431   0.730  0.000  0.000 O3       
--------------------------------------------------------------------------------


  Lattice summation method               =    Ewald          (3-D)
                                         =    Parry          (2-D)
                                         =    Saunders et al (1-D)
  Accuracy factor for lattice sums       =   12.000


  Analytic derivatives to be used

  Time limit = Infinity

  Maximum range for interatomic potentials =    100000.000000 Angstroms

  General interatomic potentials :

--------------------------------------------------------------------------------
Atom  Types   Potential      Parameter       Value         Units   Cutoffs(Ang)
  1     2                                                            Min /  Max 
--------------------------------------------------------------------------------
Si   c O1   s Buckingham    Buckingham A     1315.2478    eV        0.000 16.000
                            Buckingham rho  0.31775900    Ang       
                            Buckingham C     10.141118    eV*Ang^6  
--------------------------------------------------------------------------------
Si   c O2   s Buckingham    Buckingham A     1315.2478    eV        0.000 16.000
                            Buckingham rho  0.31775900    Ang       
                            Buckingham C     10.141118    eV*Ang^6  
--------------------------------------------------------------------------------
Si   c O3   s Buckingham    Buckingham A     1315.2478    eV        0.000 16.000
                            Buckingham rho  0.31775900    Ang       
                            Buckingham C     10.141118    eV*Ang^6  
--------------------------------------------------------------------------------
Ge   c O1   s Buckingham    Buckingham A     1497.3996    eV        0.000 16.000
                            Buckingham rho  0.32564600    Ang       
                            Buckingham C     16.808599    eV*Ang^6  
--------------------------------------------------------------------------------
Ge   c O2   s Buckingham    Buckingham A     1497.3996    eV        0.000 16.000
                            Buckingham rho  0.32564600    Ang       
                            Buckingham C     16.808599    eV*Ang^6  
--------------------------------------------------------------------------------
Ge   c O3   s Buckingham    Buckingham A     1497.3996    eV        0.000 16.000
                            Buckingham rho  0.32564600    Ang       
                            Buckingham C     16.808599    eV*Ang^6  
--------------------------------------------------------------------------------
O1   s O1   s Buckingham    Buckingham A     22764.000    eV        0.000 16.000
                            Buckingham rho  0.14900000    Ang       
                            Buckingham C     10.937044    eV*Ang^6  
--------------------------------------------------------------------------------
O1   s O2   s Buckingham    Buckingham A     22764.000    eV        0.000 16.000
                            Buckingham rho  0.14900000    Ang       
                            Buckingham C     10.937044    eV*Ang^6  
--------------------------------------------------------------------------------
O1   s O3   s Buckingham    Buckingham A     22764.000    eV        0.000 16.000
                            Buckingham rho  0.14900000    Ang       
                            Buckingham C     10.937044    eV*Ang^6  
--------------------------------------------------------------------------------
O2   s O2   s Buckingham    Buckingham A     22764.000    eV        0.000 16.000
                            Buckingham rho  0.14900000    Ang       
                            Buckingham C     10.937044    eV*Ang^6  
--------------------------------------------------------------------------------
O2   s O3   s Buckingham    Buckingham A     22764.000    eV        0.000 16.000
                            Buckingham rho  0.14900000    Ang       
                            Buckingham C     10.937044    eV*Ang^6  
--------------------------------------------------------------------------------
O3   s O3   s Buckingham    Buckingham A     22764.000    eV        0.000 16.000
                            Buckingham rho  0.14900000    Ang       
                            Buckingham C     10.937044    eV*Ang^6  
--------------------------------------------------------------------------------
O1   c O1   s Spring (c-s)  Spring k 2       180.31577    eV*Ang^-2 0.000  0.800
                            Spring k 4       0.0000000    eV*Ang^-4 
--------------------------------------------------------------------------------
O2   c O2   s Spring (c-s)  Spring k 2       75.969800    eV*Ang^-2 0.000  0.800
                            Spring k 4       0.0000000    eV*Ang^-4 
--------------------------------------------------------------------------------
O3   c O3   s Spring (c-s)  Spring k 2       128.14270    eV*Ang^-2 0.000  0.800
                            Spring k 4       0.0000000    eV*Ang^-4 
--------------------------------------------------------------------------------

  General Three-body potentials :

--------------------------------------------------------------------------------
  Atoms       Potential      Parameter       Value         Units   Cutoffs(Ang)
  1 / 2 / 3                                                          Min /  Max 
--------------------------------------------------------------------------------
Si    core    Harmonic      Three-body cnst  1.2614000    eV*rad^-2 0.000  1.900
O1    shel                  Three-body angl  109.47000    degrees   0.000  1.900
O1    shel                  Three-body k4    0.0000000    eV*rad^-4 0.000  3.500
                            Three-body k3    0.0000000    eV*rad^-3 
--------------------------------------------------------------------------------
Si    core    Harmonic      Three-body cnst  1.2614000    eV*rad^-2 0.000  1.900
O1    shel                  Three-body angl  109.47000    degrees   0.000  1.900
õ(1   shel                  Three-body k4    0.0000000    eV*rad^-4 0.000  3.500
                            Three-body k3    0.0000000    eV*rad^-3 
--------------------------------------------------------------------------------
Si    core    Harmonic      Three-body cnst  1.2614000    eV*rad^-2 0.000  1.900
õ(1   shel                  Three-body angl  109.47000    degrees   0.000  1.900
õ(1   shel                  Three-body k4    0.0000000    eV*rad^-4 0.000  3.500
                            Three-body k3    0.0000000    eV*rad^-3 
--------------------------------------------------------------------------------
Si    core    Harmonic      Three-body cnst  1.2614000    eV*rad^-2 0.000  1.900
O1    shel                  Three-body angl  109.47000    degrees   0.000  1.900
O2    shel                  Three-body k4    0.0000000    eV*rad^-4 0.000  3.500
                            Three-body k3    0.0000000    eV*rad^-3 
--------------------------------------------------------------------------------
Si    core    Harmonic      Three-body cnst  1.2614000    eV*rad^-2 0.000  1.900
O1    shel                  Three-body angl  109.47000    degrees   0.000  1.900
õ(2   shel                  Three-body k4    0.0000000    eV*rad^-4 0.000  3.500
                            Three-body k3    0.0000000    eV*rad^-3 
--------------------------------------------------------------------------------
Si    core    Harmonic      Three-body cnst  1.2614000    eV*rad^-2 0.000  1.900
O2    shel                  Three-body angl  109.47000    degrees   0.000  1.900
õ(1   shel                  Three-body k4    0.0000000    eV*rad^-4 0.000  3.500
                            Three-body k3    0.0000000    eV*rad^-3 
--------------------------------------------------------------------------------
Si    core    Harmonic      Three-body cnst  1.2614000    eV*rad^-2 0.000  1.900
õ(1   shel                  Three-body angl  109.47000    degrees   0.000  1.900
õ(2   shel                  Three-body k4    0.0000000    eV*rad^-4 0.000  3.500
                            Three-body k3    0.0000000    eV*rad^-3 
--------------------------------------------------------------------------------
Si    core    Harmonic      Three-body cnst  1.2614000    eV*rad^-2 0.000  1.900
O2    shel                  Three-body angl  109.47000    degrees   0.000  1.900
O2    shel                  Three-body k4    0.0000000    eV*rad^-4 0.000  3.500
                            Three-body k3    0.0000000    eV*rad^-3 
--------------------------------------------------------------------------------
Si    core    Harmonic      Three-body cnst  1.2614000    eV*rad^-2 0.000  1.900
O2    shel                  Three-body angl  109.47000    degrees   0.000  1.900
õ(2   shel                  Three-body k4    0.0000000    eV*rad^-4 0.000  3.500
                            Three-body k3    0.0000000    eV*rad^-3 
--------------------------------------------------------------------------------
Si    core    Harmonic      Three-body cnst  1.2614000    eV*rad^-2 0.000  1.900
õ(2   shel                  Three-body angl  109.47000    degrees   0.000  1.900
õ(2   shel                  Three-body k4    0.0000000    eV*rad^-4 0.000  3.500
                            Three-body k3    0.0000000    eV*rad^-3 
--------------------------------------------------------------------------------

********************************************************************************
*  Output for configuration   1 : c00099.vasp                                  *
********************************************************************************


  Components of energy : 

--------------------------------------------------------------------------------
  Interatomic potentials     =         760.30861002 eV    
  Three-body potentials      =           0.01415815 eV    
  Monopole - monopole (real) =       -2676.00317479 eV    
  Monopole - monopole (recip)=       -1115.35404472 eV    
  Monopole - monopole (total)=       -3791.35721950 eV    
--------------------------------------------------------------------------------
  Total lattice energy       =       -3031.03445133 eV    
--------------------------------------------------------------------------------
  Total lattice energy       =         -292448.4909 kJ/(mole unit cells)
--------------------------------------------------------------------------------


  Number of variables =      363

  Maximum number of calculations  =          1000
  Maximum Hessian update interval =            10
  Maximum step size               =   0.100000000
  Maximum parameter tolerance     =   0.000010000
  Maximum function  tolerance     =   0.000010000
  Maximum gradient  tolerance     =   0.001000000
  Maximum gradient  component     =   0.010000000

  Symmetry not applied to optimisation

  Cell parameters to be optimised using strains

  Newton-Raphson optimiser to be used

  BFGS hessian update to be used

  Lower half triangular hessian to be used

  Minimiser to switch to RFO
  When gradient norm is less than     0.050000

  Dumpfile to be written after every cycle

  Start of bulk optimisation :

  Cycle:      0 Energy:     -3031.034451  Gnorm:      4.404994  CPU:    0.104
  ** Hessian calculated **
  Cycle:      1 Energy:     -3047.441551  Gnorm:      3.298805  CPU:    0.274
  ** Hessian calculated **
  Cycle:      2 Energy:     -3064.231117  Gnorm:      0.741685  CPU:    0.452
  ** Hessian calculated **
  Cycle:      3 Energy:     -3065.774973  Gnorm:      0.574704  CPU:    0.650
  ** Hessian calculated **
  Cycle:      4 Energy:     -3066.642066  Gnorm:      0.320189  CPU:    0.830
  Cycle:      5 Energy:     -3066.924041  Gnorm:      0.209949  CPU:    0.922
  Cycle:      6 Energy:     -3067.160754  Gnorm:      0.163270  CPU:    1.032
  Cycle:      7 Energy:     -3067.380039  Gnorm:      0.125487  CPU:    1.142
  Cycle:      8 Energy:     -3067.511936  Gnorm:      0.103050  CPU:    1.233
  Cycle:      9 Energy:     -3067.591433  Gnorm:      0.077355  CPU:    1.321
  Cycle:     10 Energy:     -3067.634231  Gnorm:      0.056779  CPU:    1.410
  Cycle:     11 Energy:     -3067.658212  Gnorm:      0.046068  CPU:    1.515
  ** Hessian has required structure
  Cycle:     12 Energy:     -3067.672249  Gnorm:      0.090605  CPU:    1.645
  ** Hessian has required structure
  Cycle:     13 Energy:     -3067.691591  Gnorm:      0.066754  CPU:    1.790
  ** Hessian has wrong structure
  ** Imaginary eigenvectors =   2
  ** Hessian has wrong structure
  ** Imaginary eigenvectors =   2
  Cycle:     14 Energy:     -3067.708719  Gnorm:      0.066687  CPU:    2.307
  ** Hessian has wrong structure
  ** Imaginary eigenvectors =   2
  ** Hessian has wrong structure
  ** Imaginary eigenvectors =   2
  Cycle:     15 Energy:     -3067.738424  Gnorm:      0.066879  CPU:    2.743
  ** Hessian has wrong structure
  ** Imaginary eigenvectors =   2
  ** Hessian has wrong structure
  ** Imaginary eigenvectors =   2
  Cycle:     16 Energy:     -3067.768275  Gnorm:      0.067694  CPU:    3.185
  ** Hessian has wrong structure
  ** Imaginary eigenvectors =   1
  ** Hessian has wrong structure
  ** Imaginary eigenvectors =   1
  Cycle:     17 Energy:     -3067.802094  Gnorm:      0.068527  CPU:    3.596
  ** Hessian has required structure
  Cycle:     18 Energy:     -3067.845065  Gnorm:      0.070202  CPU:    3.764
  ** Hessian has required structure
  Cycle:     19 Energy:     -3068.086697  Gnorm:      0.042575  CPU:    3.931
  ** Hessian has required structure
  Cycle:     20 Energy:     -3068.110868  Gnorm:      0.044650  CPU:    4.063
  ** Hessian has required structure
  Cycle:     21 Energy:     -3068.195114  Gnorm:      0.035500  CPU:    4.212
  ** Hessian has required structure
  Cycle:     22 Energy:     -3068.222406  Gnorm:      0.028612  CPU:    4.361
  ** Hessian has required structure
  Cycle:     23 Energy:     -3068.246808  Gnorm:      0.029870  CPU:    4.512
  ** Hessian has required structure
  Cycle:     24 Energy:     -3068.257817  Gnorm:      0.038901  CPU:    4.644
  ** Hessian has required structure
  Cycle:     25 Energy:     -3068.277598  Gnorm:      0.029633  CPU:    4.784
  ** Hessian has required structure
  Cycle:     26 Energy:     -3068.287333  Gnorm:      0.022292  CPU:    4.925
  ** Hessian has wrong structure
  ** Imaginary eigenvectors =   1
  Cycle:     27 Energy:     -3068.298552  Gnorm:      0.029688  CPU:    5.277
  ** Hessian has required structure
  Cycle:     28 Energy:     -3068.316839  Gnorm:      0.018745  CPU:    5.510
  ** Hessian has required structure
  Cycle:     29 Energy:     -3068.324535  Gnorm:      0.009789  CPU:    5.680
  ** Hessian has required structure
  Cycle:     30 Energy:     -3068.326738  Gnorm:      0.004401  CPU:    5.849
  ** Hessian has required structure
  Cycle:     31 Energy:     -3068.327305  Gnorm:      0.003135  CPU:    6.000
  ** Hessian has required structure
  Cycle:     32 Energy:     -3068.327540  Gnorm:      0.001292  CPU:    6.151
  ** Hessian has required structure
  Cycle:     33 Energy:     -3068.327623  Gnorm:      0.000785  CPU:    6.319
  ** Hessian has required structure
  Cycle:     34 Energy:     -3068.327645  Gnorm:      0.000413  CPU:    6.486
  ** Hessian has required structure
  Cycle:     35 Energy:     -3068.327653  Gnorm:      0.000296  CPU:    6.633
  ** Hessian has required structure
  Cycle:     36 Energy:     -3068.327658  Gnorm:      0.000217  CPU:    6.779
  ** Hessian has required structure
  Cycle:     37 Energy:     -3068.327663  Gnorm:      0.000173  CPU:    6.943
  ** Hessian has required structure
  Cycle:     38 Energy:     -3068.327663  Gnorm:      0.000173  CPU:    7.194
  ** Hessian calculated **
  Cycle:     39 Energy:     -3068.327663  Gnorm:      0.000122  CPU:    7.348
  ** Hessian has required structure
  Cycle:     40 Energy:     -3068.327663  Gnorm:      0.000127  CPU:    7.473
  ** Hessian has required structure
  Cycle:     41 Energy:     -3068.327663  Gnorm:      0.000139  CPU:    7.597
  ** Hessian has required structure
  Cycle:     42 Energy:     -3068.327663  Gnorm:      0.000161  CPU:    7.720
  ** Hessian has required structure
  Cycle:     43 Energy:     -3068.327663  Gnorm:      0.000149  CPU:    7.844
  ** Hessian has required structure
  Cycle:     44 Energy:     -3068.327663  Gnorm:      0.000143  CPU:    7.968
  ** Hessian has required structure
  Cycle:     45 Energy:     -3068.327663  Gnorm:      0.000147  CPU:    8.094
  ** Hessian has required structure
  Cycle:     46 Energy:     -3068.327663  Gnorm:      0.000147  CPU:    8.222
  ** Hessian has required structure
  Cycle:     47 Energy:     -3068.327663  Gnorm:      0.000141  CPU:    8.349
  ** Hessian has required structure
  Cycle:     48 Energy:     -3068.327663  Gnorm:      0.000140  CPU:    8.475
  ** Hessian has required structure
  Cycle:     49 Energy:     -3068.327663  Gnorm:      0.000141  CPU:    8.760
  ** Hessian calculated **


  **** Optimisation achieved ****


  Final energy =   -3068.32766332 eV      
  Final Gnorm  =       0.00008631

  Components of energy : 

--------------------------------------------------------------------------------
  Interatomic potentials     =         815.84562412 eV    
  Three-body potentials      =           0.19246994 eV    
  Monopole - monopole (real) =       -2207.37764210 eV    
  Monopole - monopole (recip)=       -1676.98811528 eV    
  Monopole - monopole (total)=       -3884.36575738 eV    
--------------------------------------------------------------------------------
  Total lattice energy       =       -3068.32766332 eV    
--------------------------------------------------------------------------------
  Total lattice energy       =         -296046.7158 kJ/(mole unit cells)
--------------------------------------------------------------------------------

  Final fractional coordinates of atoms :

--------------------------------------------------------------------------------
   No.  Atomic        x           y          z          Radius
        Label       (Frac)      (Frac)     (Frac)       (Angs) 
--------------------------------------------------------------------------------
     1  Ge    c     0.052090    0.000000    0.372270    0.000000
     2  Ge    c     0.651685    0.671738    0.713995    0.000000
     3  Ge    c     0.829270    0.706288    0.035724    0.000000
     4  Si    c     0.450953    0.000778    0.375477    0.000000
     5  Si    c     0.946731    0.995397    0.629476    0.000000
     6  Si    c     0.545123    0.977620    0.638387    0.000000
     7  Si    c     0.553606    0.986282    0.127266    0.000000
     8  Si    c     0.942271    0.999646    0.116299    0.000000
     9  Si    c     0.438218    0.998586    0.889583    0.000000
    10  Si    c     0.050926    0.988991    0.877251    0.000000
    11  Si    c     0.162086    0.300295    0.293416    0.000000
    12  Si    c     0.344243    0.696826    0.280921    0.000000
    13  Si    c     0.841909    0.296575    0.727700    0.000000
    14  Si    c     0.831748    0.701681    0.721308    0.000000
    15  Si    c     0.663110    0.264124    0.721246    0.000000
    16  Si    c     0.164755    0.704942    0.290500    0.000000
    17  Si    c     0.340767    0.295290    0.280147    0.000000
    18  Si    c     0.662892    0.277796    0.027608    0.000000
    19  Si    c     0.331699    0.292833    0.973305    0.000000
    20  Si    c     0.157459    0.698922    0.986287    0.000000
    21  Si    c     0.337418    0.690942    0.975230    0.000000
    22  Si    c     0.152579    0.295996    0.988484    0.000000
    23  Si    c     0.649100    0.675170    0.029359    0.000000
    24  Si    c     0.842768    0.305478    0.032421    0.000000
    25  O3    c     0.109110    0.186647    0.386930    0.000000
    26  O2    c     0.400505    0.822941    0.364211    0.000000
    27  O2    c     0.900021    0.176126    0.645896    0.000000
    28  O3    c     0.583008    0.788449    0.629357    0.000000
    29  O2    c     0.890730    0.827722    0.644946    0.000000
    30  O2    c     0.616693    0.115945    0.640275    0.000000
    31  O3    c     0.113436    0.822835    0.383194    0.000000
    32  O2    c     0.396618    0.168805    0.359728    0.000000
    33  O3    c     0.979406    0.991260    0.484224    0.000000
    34  O2    c     0.488214    0.012845    0.518280    0.000000
    35  O3    c     0.009929    0.000327    0.219656    0.000000
    36  O2    c     0.520476    0.000775    0.272472    0.000000
    37  O2    c     0.020466    0.988592    0.728084    0.000000
    38  O2    c     0.494999    0.002166    0.768513    0.000000
    39  O2    c     0.619916    0.134947    0.115376    0.000000
    40  O3    c     0.880756    0.844863    0.136751    0.000000
    41  O2    c     0.379185    0.160977    0.881907    0.000000
    42  O2    c     0.107568    0.824287    0.894429    0.000000
    43  O2    c     0.389586    0.816825    0.886245    0.000000
    44  O2    c     0.095627    0.172130    0.904181    0.000000
    45  O2    c     0.587837    0.792794    0.108153    0.000000
    46  O2    c     0.895657    0.181860    0.121203    0.000000
    47  O2    c     0.486072    0.021449    0.023288    0.000000
    48  O2    c     0.977641    0.966545    0.971390    0.000000
    49  O2    c     0.143748    0.503312    0.316736    0.000000
    50  O2    c     0.364665    0.495956    0.311906    0.000000
    51  O2    c     0.861359    0.501162    0.706724    0.000000
    52  O3    c     0.630217    0.453064    0.689779    0.000000
    53  O2    c     0.252346    0.261942    0.323936    0.000000
    54  O2    c     0.255852    0.737750    0.319341    0.000000
    55  O2    c     0.753734    0.256596    0.681274    0.000000
    56  O3    c     0.745516    0.713315    0.662451    0.000000
    57  O2    c     0.143780    0.249040    0.141478    0.000000
    58  O2    c     0.356373    0.733488    0.127067    0.000000
    59  O2    c     0.851865    0.249862    0.880265    0.000000
    60  O3    c     0.645809    0.726810    0.877700    0.000000
    61  O3    c     0.829622    0.759872    0.872290    0.000000
    62  O2    c     0.655692    0.222582    0.875641    0.000000
    63  O2    c     0.146395    0.752124    0.138438    0.000000
    64  O2    c     0.348315    0.254686    0.125797    0.000000
    65  O2    c     0.626030    0.469915    0.046784    0.000000
    66  O3    c     0.869391    0.502046    0.055909    0.000000
    67  O2    c     0.357871    0.490783    0.940067    0.000000
    68  O2    c     0.130081    0.497958    0.963718    0.000000
    69  O2    c     0.752604    0.283708    0.072162    0.000000
    70  O3    c     0.734303    0.707647    0.087104    0.000000
    71  O2    c     0.240646    0.265118    0.942845    0.000000
    72  O2    c     0.246953    0.723213    0.946293    0.000000
    73  O3    s     0.110041    0.183522    0.376039    0.000000
    74  O2    s     0.399596    0.827952    0.355966    0.000000
    75  O2    s     0.898531    0.170262    0.653282    0.000000
    76  O3    s     0.584856    0.797911    0.637197    0.000000
    77  O2    s     0.890314    0.832153    0.651696    0.000000
    78  O2    s     0.614297    0.117805    0.649108    0.000000
    79  O3    s     0.113890    0.824680    0.372578    0.000000
    80  O2    s     0.396199    0.164740    0.352283    0.000000
    81  O3    s     0.982440    0.992472    0.489581    0.000000
    82  O2    s     0.490495    0.007285    0.515568    0.000000
    83  O3    s     0.005915    0.000215    0.221203    0.000000
    84  O2    s     0.516432    0.999099    0.267458    0.000000
    85  O2    s     0.016041    0.989366    0.733958    0.000000
    86  O2    s     0.493885    0.998973    0.768337    0.000000
    87  O2    s     0.617586    0.134898    0.106705    0.000000
    88  O3    s     0.882573    0.848597    0.126198    0.000000
    89  O2    s     0.380204    0.158308    0.892880    0.000000
    90  O2    s     0.107060    0.828015    0.902945    0.000000
    91  O2    s     0.388961    0.822112    0.896475    0.000000
    92  O2    s     0.097217    0.166342    0.910810    0.000000
    93  O2    s     0.590770    0.800944    0.101650    0.000000
    94  O2    s     0.894751    0.176374    0.110902    0.000000
    95  O2    s     0.488324    0.014904    0.019970    0.000000
    96  O2    s     0.982026    0.972287    0.975882    0.000000
    97  O2    s     0.148074    0.503023    0.311286    0.000000
    98  O2    s     0.359914    0.496140    0.305193    0.000000
    99  O2    s     0.856259    0.499819    0.710456    0.000000
   100  O3    s     0.635326    0.451585    0.694934    0.000000
   101  O2    s     0.252298    0.269632    0.315951    0.000000
   102  O2    s     0.255658    0.729785    0.312077    0.000000
   103  O2    s     0.753603    0.261670    0.690404    0.000000
   104  O3    s     0.746523    0.708922    0.672266    0.000000
   105  O2    s     0.146580    0.259173    0.140799    0.000000
   106  O2    s     0.353050    0.725085    0.127257    0.000000
   107  O2    s     0.849822    0.260662    0.879861    0.000000
   108  O3    s     0.646612    0.717207    0.879380    0.000000
   109  O3    s     0.829803    0.749688    0.870793    0.000000
   110  O2    s     0.657267    0.232888    0.875796    0.000000
   111  O2    s     0.149417    0.741814    0.137906    0.000000
   112  O2    s     0.345687    0.263158    0.126005    0.000000
   113  O2    s     0.632217    0.470651    0.042990    0.000000
   114  O3    s     0.863393    0.497977    0.051836    0.000000
   115  O2    s     0.352889    0.491191    0.947372    0.000000
   116  O2    s     0.135336    0.497840    0.968727    0.000000
   117  O2    s     0.752420    0.285457    0.063092    0.000000
   118  O3    s     0.733479    0.704268    0.077081    0.000000
   119  O2    s     0.240986    0.271525    0.951108    0.000000
   120  O2    s     0.247103    0.716958    0.953856    0.000000
--------------------------------------------------------------------------------

  Final Cartesian lattice vectors (Angstroms) :

       17.224969   -0.083217   -0.060415
       -0.036965    7.644423   -0.030951
       -0.036595   -0.039759   10.194404


  Final cell parameters and derivatives :

--------------------------------------------------------------------------------
       a           17.225276 Angstrom     dE/de1(xx)     0.001893 eV/strain
       b            7.644575 Angstrom     dE/de2(yy)    -0.000559 eV/strain
       c           10.194547 Angstrom     dE/de3(zz)    -0.001391 eV/strain
       alpha       90.454436 Degrees      dE/de4(yz)    -0.000198 eV/strain
       beta        90.405544 Degrees      dE/de5(xz)    -0.000102 eV/strain
       gamma       90.553037 Degrees      dE/de6(xy)    -0.000559 eV/strain
--------------------------------------------------------------------------------

  Primitive cell volume =          1342.277963 Angs**3

  Density of cell =      1.949362 g/cm**3

  Non-primitive cell volume =          1342.277963 Angs**3


  Final internal derivatives :

--------------------------------------------------------------------------------
   No.  Atomic          a             b             c           Radius
        Label          (eV)          (eV)          (eV)        (eV/Angs)
--------------------------------------------------------------------------------
      1 Ge    c       0.000000      0.000000      0.000000      0.000000
      2 Ge    c       0.001412     -0.001316     -0.001940      0.000000
      3 Ge    c       0.004524      0.000623     -0.002072      0.000000
      4 Si    c      -0.000864     -0.000041      0.001502      0.000000
      5 Si    c       0.001240     -0.001807      0.000598      0.000000
      6 Si    c       0.004654      0.000405      0.001018      0.000000
      7 Si    c       0.002341      0.001327      0.000369      0.000000
      8 Si    c      -0.004361     -0.001038     -0.002141      0.000000
      9 Si    c      -0.002917     -0.000037      0.000955      0.000000
     10 Si    c      -0.000307      0.000097     -0.001007      0.000000
     11 Si    c       0.001105     -0.000279     -0.000646      0.000000
     12 Si    c      -0.000875      0.000727     -0.000364      0.000000
     13 Si    c      -0.001772      0.001301      0.000108      0.000000
     14 Si    c       0.001903      0.000617      0.001258      0.000000
     15 Si    c      -0.005551      0.000306      0.000841      0.000000
     16 Si    c      -0.001358      0.000699     -0.001491      0.000000
     17 Si    c       0.002455     -0.000750     -0.001734      0.000000
     18 Si    c      -0.003863     -0.001294     -0.001353      0.000000
     19 Si    c       0.001240     -0.001223      0.000599      0.000000
     20 Si    c      -0.001459      0.000808      0.001208      0.000000
     21 Si    c      -0.000090      0.000935     -0.000335      0.000000
     22 Si    c       0.000580     -0.000509      0.000188      0.000000
     23 Si    c       0.001276     -0.001022      0.001807      0.000000
     24 Si    c      -0.004801      0.000518      0.002026      0.000000
     25 O3    c       0.001671      0.001201      0.000897      0.000000
     26 O2    c      -0.000863     -0.001011     -0.000484      0.000000
     27 O2    c       0.000740     -0.000132     -0.000027      0.000000
     28 O3    c       0.001441      0.000626      0.001549      0.000000
     29 O2    c       0.000901      0.000773     -0.000376      0.000000
     30 O2    c      -0.003320     -0.000807     -0.001101      0.000000
     31 O3    c       0.000252     -0.001035      0.000855      0.000000
     32 O2    c      -0.000837      0.001386     -0.000319      0.000000
     33 O3    c      -0.002017      0.000395      0.001618      0.000000
     34 O2    c      -0.001455     -0.000438     -0.000997      0.000000
     35 O3    c       0.003103      0.001266      0.001071      0.000000
     36 O2    c       0.001281     -0.000693     -0.001268      0.000000
     37 O2    c      -0.001577      0.000472     -0.000479      0.000000
     38 O2    c       0.002671     -0.001038     -0.001005      0.000000
     39 O2    c      -0.002322     -0.000840     -0.000058      0.000000
     40 O3    c       0.002948      0.000155      0.002647      0.000000
     41 O2    c      -0.000166      0.001309     -0.000965      0.000000
     42 O2    c      -0.000019     -0.000831      0.000154      0.000000
     43 O2    c      -0.001300     -0.001854     -0.000841      0.000000
     44 O2    c       0.000048      0.001008      0.000221      0.000000
     45 O2    c       0.000232      0.000197     -0.001397      0.000000
     46 O2    c       0.001447      0.000059     -0.000092      0.000000
     47 O2    c      -0.000972     -0.000555      0.000915      0.000000
     48 O2    c       0.000111      0.000729      0.001249      0.000000
     49 O2    c       0.000017     -0.000798      0.000088      0.000000
     50 O2    c      -0.000544      0.000997      0.000318      0.000000
     51 O2    c       0.000274     -0.002656      0.000792      0.000000
     52 O3    c       0.001580      0.000055      0.002424      0.000000
     53 O2    c      -0.003086      0.000377      0.000747      0.000000
     54 O2    c       0.002467     -0.000248      0.000327      0.000000
     55 O2    c       0.006356     -0.000267     -0.000964      0.000000
     56 O3    c      -0.001789     -0.000101      0.000391      0.000000
     57 O2    c      -0.000022      0.000146      0.000563      0.000000
     58 O2    c      -0.000711     -0.000247      0.000027      0.000000
     59 O2    c       0.000617     -0.000618     -0.001834      0.000000
     60 O3    c       0.002307     -0.000505      0.002252      0.000000
     61 O3    c      -0.001337     -0.000224      0.002421      0.000000
     62 O2    c       0.002087      0.000188      0.000465      0.000000
     63 O2    c       0.000080     -0.000011      0.000450      0.000000
     64 O2    c      -0.001048      0.000246     -0.000088      0.000000
     65 O2    c       0.000104      0.004202     -0.001392      0.000000
     66 O3    c      -0.002666     -0.003288     -0.001054      0.000000
     67 O2    c      -0.000447      0.000871     -0.000045      0.000000
     68 O2    c      -0.000538     -0.000888     -0.000071      0.000000
     69 O2    c       0.009276      0.000797      0.000118      0.000000
     70 O3    c      -0.007282      0.000822      0.000801      0.000000
     71 O2    c      -0.000758      0.000306     -0.000142      0.000000
     72 O2    c       0.002776     -0.000471     -0.000206      0.000000
     73 O3    s      -0.000301     -0.000264     -0.000899      0.000000
     74 O2    s      -0.001111     -0.000282      0.000054      0.000000
     75 O2    s      -0.001491      0.000604      0.000166      0.000000
     76 O3    s      -0.000457      0.000686     -0.001858      0.000000
     77 O2    s       0.003163      0.000700      0.000083      0.000000
     78 O2    s      -0.002695      0.000864      0.000881      0.000000
     79 O3    s      -0.000880      0.000298     -0.000349      0.000000
     80 O2    s      -0.000092     -0.000222     -0.000455      0.000000
     81 O3    s       0.000092     -0.000381     -0.001057      0.000000
     82 O2    s       0.002960     -0.000074      0.002194      0.000000
     83 O3    s       0.000221      0.000386     -0.001682      0.000000
     84 O2    s       0.003936     -0.000051      0.000211      0.000000
     85 O2    s      -0.001822     -0.000410     -0.000521      0.000000
     86 O2    s       0.005140      0.000840     -0.000711      0.000000
     87 O2    s      -0.003215     -0.000498     -0.001357      0.000000
     88 O3    s       0.002369     -0.000405     -0.003044      0.000000
     89 O2    s      -0.001566      0.000035      0.000182      0.000000
     90 O2    s       0.000551     -0.000188     -0.000121      0.000000
     91 O2    s      -0.002481      0.000249      0.000952      0.000000
     92 O2    s       0.001508      0.000430      0.000133      0.000000
     93 O2    s       0.003388     -0.000923      0.000146      0.000000
     94 O2    s      -0.004135     -0.000001     -0.000712      0.000000
     95 O2    s       0.001944     -0.000185      0.001595      0.000000
     96 O2    s      -0.004478      0.000005     -0.000286      0.000000
     97 O2    s      -0.000791     -0.000145     -0.000441      0.000000
     98 O2    s       0.001629     -0.000128     -0.000429      0.000000
     99 O2    s       0.000225     -0.000736      0.001180      0.000000
    100 O3    s      -0.001700      0.000958      0.001595      0.000000
    101 O2    s      -0.001501     -0.000439     -0.000182      0.000000
    102 O2    s       0.001621      0.000486     -0.000128      0.000000
    103 O2    s       0.002326      0.001758      0.000098      0.000000
    104 O3    s      -0.004138     -0.000827     -0.000689      0.000000
    105 O2    s       0.000091     -0.000087      0.000499      0.000000
    106 O2    s       0.000218      0.000668     -0.000092      0.000000
    107 O2    s      -0.003020      0.000586      0.000821      0.000000
    108 O3    s      -0.001961     -0.000180     -0.000127      0.000000
    109 O3    s       0.001562     -0.000013     -0.000876      0.000000
    110 O2    s      -0.002555      0.000069     -0.001057      0.000000
    111 O2    s      -0.000740      0.000212      0.000247      0.000000
    112 O2    s       0.001239     -0.000761      0.000149      0.000000
    113 O2    s      -0.001281     -0.000102     -0.000932      0.000000
    114 O3    s       0.004234     -0.000321     -0.001969      0.000000
    115 O2    s       0.001011     -0.000007      0.000283      0.000000
    116 O2    s      -0.000857      0.000114      0.000256      0.000000
    117 O2    s       0.004844      0.001247     -0.000124      0.000000
    118 O3    s      -0.004031     -0.000684     -0.001376      0.000000
    119 O2    s      -0.001261     -0.000716      0.000115      0.000000
    120 O2    s       0.001768      0.000707      0.000209      0.000000
--------------------------------------------------------------------------------
  Maximum abs         0.009276      0.004202      0.003044      0.000000
--------------------------------------------------------------------------------


  Born effective charge tensors : 

-------------------------------------------------------------------------------
  Atom             x           y             z
-------------------------------------------------------------------------------
    1 Ge    x       4.2480      0.0223     -0.0214
            y      -0.0338      3.9036     -0.0247
            z      -0.9347     -0.0666      4.4479
-------------------------------------------------------------------------------
    2 Ge    x       3.9619     -0.3203      0.0474
            y      -0.3694      4.2015     -0.2328
            z       0.2077     -0.0572      3.4236
-------------------------------------------------------------------------------
    3 Ge    x       4.0070      0.4288      0.1292
            y       0.1398      4.1495      0.2676
            z       0.2008      0.0531      3.3117
-------------------------------------------------------------------------------
    4 Si    x       3.3942      0.0160      0.2736
            y      -0.0469      3.2688     -0.0195
            z       0.3105      0.0455      3.7920
-------------------------------------------------------------------------------
    5 Si    x       3.5605     -0.0771     -0.4855
            y       0.0335      3.2905      0.0073
            z      -0.3928      0.0389      4.2548
-------------------------------------------------------------------------------
    6 Si    x       3.5764     -0.3470      0.0497
            y      -0.0159      3.4860      0.0399
            z       0.5694     -0.1115      3.8213
-------------------------------------------------------------------------------
    7 Si    x       3.4884     -0.1193     -0.2941
            y       0.1616      3.2404      0.0088
            z      -0.3719     -0.0015      3.1186
-------------------------------------------------------------------------------
    8 Si    x       4.0328      0.0765      0.1549
            y       0.2411      3.4473     -0.0676
            z       0.8232     -0.0012      3.2115
-------------------------------------------------------------------------------
    9 Si    x       3.4940      0.0705     -0.0810
            y      -0.0620      3.2703     -0.0168
            z      -0.5915      0.0067      3.0595
-------------------------------------------------------------------------------
   10 Si    x       3.5140      0.0393      0.3966
            y      -0.0914      3.3031      0.0173
            z       0.3852     -0.0193      3.1191
-------------------------------------------------------------------------------
   11 Si    x       3.3766      0.3759     -0.2689
            y       0.3720      3.5379     -0.3529
            z      -0.2445     -0.1842      3.0234
-------------------------------------------------------------------------------
   12 Si    x       3.1583      0.2334      0.0937
            y       0.2592      3.4321      0.1512
            z       0.0982      0.0889      2.8166
-------------------------------------------------------------------------------
   13 Si    x       3.2314     -0.2482     -0.0506
            y      -0.2495      3.4081      0.1853
            z      -0.1214      0.0397      2.7878
-------------------------------------------------------------------------------
   14 Si    x       3.5923      0.3085      0.0830
            y       0.1994      3.6295     -0.1205
            z      -0.0625      0.0123      3.1562
-------------------------------------------------------------------------------
   15 Si    x       3.3122      0.2644      0.1194
            y       0.0104      3.7359      0.0578
            z       0.1527     -0.0053      2.8786
-------------------------------------------------------------------------------
   16 Si    x       3.3760     -0.4024     -0.2834
            y      -0.3647      3.5648      0.3447
            z      -0.2368      0.1854      3.0160
-------------------------------------------------------------------------------
   17 Si    x       3.1607     -0.2602      0.0949
            y      -0.2511      3.4595     -0.1420
            z       0.1250     -0.0895      2.8186
-------------------------------------------------------------------------------
   18 Si    x       3.2386      0.3727     -0.1522
            y       0.0970      3.4039     -0.1873
            z      -0.1520     -0.0587      2.7328
-------------------------------------------------------------------------------
   19 Si    x       3.2409     -0.2937     -0.1682
            y      -0.1799      3.4373      0.1662
            z      -0.1097      0.0758      2.7277
-------------------------------------------------------------------------------
   20 Si    x       3.2507     -0.2744      0.1883
            y      -0.1728      3.4617     -0.2235
            z       0.1388     -0.0720      2.7325
-------------------------------------------------------------------------------
   21 Si    x       3.2475      0.2710     -0.1508
            y       0.2352      3.4146     -0.1592
            z      -0.1098     -0.0773      2.7204
-------------------------------------------------------------------------------
   22 Si    x       3.2830      0.2679      0.1426
            y       0.2456      3.4474      0.1894
            z       0.1685      0.0605      2.7233
-------------------------------------------------------------------------------
   23 Si    x       3.6290     -0.2724      0.0553
            y      -0.2508      3.5979      0.1428
            z      -0.1057     -0.0047      3.0870
-------------------------------------------------------------------------------
   24 Si    x       3.3740     -0.2080      0.1392
            y      -0.0761      3.6994     -0.1209
            z       0.1700      0.0289      2.7632
-------------------------------------------------------------------------------
   25 O3    x      -2.0237     -0.9421      0.4482
            y      -0.9368     -2.3145      0.4802
            z       0.5546      0.4716     -1.6509
-------------------------------------------------------------------------------
   26 O2    x      -1.6650     -0.7154     -0.3384
            y      -0.7050     -1.9973     -0.3470
            z      -0.3422     -0.3427     -1.3515
-------------------------------------------------------------------------------
   27 O2    x      -1.6964      0.7320      0.3397
            y       0.6849     -1.9944     -0.3397
            z       0.3430     -0.3336     -1.3509
-------------------------------------------------------------------------------
   28 O3    x      -1.9607      0.9316     -0.3037
            y       0.9159     -2.5502      0.3055
            z      -0.4334      0.3166     -1.5009
-------------------------------------------------------------------------------
   29 O2    x      -1.7359     -0.7267      0.3054
            y      -0.7235     -1.9970      0.3105
            z       0.3247      0.3094     -1.3282
-------------------------------------------------------------------------------
   30 O2    x      -1.8218     -0.6725     -0.2755
            y      -0.7189     -1.8509     -0.3043
            z      -0.3574     -0.2838     -1.3518
-------------------------------------------------------------------------------
   31 O3    x      -2.0562      0.9578      0.4500
            y       0.9776     -2.3230     -0.4916
            z       0.5587     -0.4751     -1.6362
-------------------------------------------------------------------------------
   32 O2    x      -1.7066      0.7357     -0.3538
            y       0.7502     -1.9977      0.3661
            z      -0.3703      0.3544     -1.3447
-------------------------------------------------------------------------------
   33 O3    x      -2.0070     -0.0019      1.0836
            y      -0.0107     -1.2038      0.0062
            z       1.3692      0.0145     -3.4043
-------------------------------------------------------------------------------
   34 O2    x      -1.5874      0.0585     -0.7764
            y       0.0217     -1.0960      0.0427
            z      -0.9712      0.0751     -2.7320
-------------------------------------------------------------------------------
   35 O3    x      -2.2012      0.0346     -1.0136
            y       0.0120     -1.2394      0.0301
            z      -0.9952      0.0376     -2.6163
-------------------------------------------------------------------------------
   36 O2    x      -1.7113      0.0461      0.6937
            y      -0.0055     -1.1069     -0.0269
            z       0.6613     -0.0531     -2.2043
-------------------------------------------------------------------------------
   37 O2    x      -1.7751      0.0231     -0.6872
            y       0.0230     -1.1128      0.0078
            z      -0.6436      0.0223     -2.1985
-------------------------------------------------------------------------------
   38 O2    x      -1.7418      0.0257      0.7314
            y      -0.0030     -1.1193     -0.0221
            z       0.7608     -0.0281     -2.2382
-------------------------------------------------------------------------------
   39 O2    x      -1.7572     -0.7381      0.3696
            y      -0.6779     -1.9289      0.3784
            z       0.3536      0.3647     -1.2613
-------------------------------------------------------------------------------
   40 O3    x      -2.1249     -0.9630     -0.2279
            y      -0.9453     -2.3446     -0.2983
            z      -0.3187     -0.2548     -1.3846
-------------------------------------------------------------------------------
   41 O2    x      -1.7233      0.7248      0.2784
            y       0.7032     -1.9624     -0.3154
            z       0.3276     -0.3034     -1.2448
-------------------------------------------------------------------------------
   42 O2    x      -1.7491      0.7411     -0.4308
            y       0.7020     -1.9757      0.4209
            z      -0.3697      0.3665     -1.2768
-------------------------------------------------------------------------------
   43 O2    x      -1.6659     -0.7115      0.2978
            y      -0.6572     -2.0047      0.3323
            z       0.3527      0.3281     -1.2455
-------------------------------------------------------------------------------
   44 O2    x      -1.7216     -0.7344     -0.4154
            y      -0.6682     -2.0296     -0.4262
            z      -0.3818     -0.3798     -1.2604
-------------------------------------------------------------------------------
   45 O2    x      -1.6667      0.7044      0.3339
            y       0.5885     -2.0533     -0.3495
            z       0.3390     -0.3299     -1.2195
-------------------------------------------------------------------------------
   46 O2    x      -1.7063      0.6649     -0.2677
            y       0.6132     -1.9143      0.2899
            z      -0.3447      0.2639     -1.2483
-------------------------------------------------------------------------------
   47 O2    x      -1.8369      0.0460     -0.6112
            y       0.0244     -1.1661      0.0327
            z      -0.3546      0.0191     -1.7113
-------------------------------------------------------------------------------
   48 O2    x      -1.8446      0.0061      0.5427
            y      -0.0031     -1.1937     -0.0339
            z       0.2867     -0.0503     -1.6913
-------------------------------------------------------------------------------
   49 O2    x      -1.1717     -0.0106      0.0718
            y      -0.0133     -2.4665      0.0192
            z       0.0831      0.0082     -1.0903
-------------------------------------------------------------------------------
   50 O2    x      -1.1493     -0.0159     -0.0607
            y      -0.0226     -2.5546     -0.0010
            z      -0.0749      0.0088     -1.0716
-------------------------------------------------------------------------------
   51 O2    x      -1.1895      0.0135      0.0305
            y       0.0579     -2.6003      0.0513
            z       0.0601      0.0658     -1.0632
-------------------------------------------------------------------------------
   52 O3    x      -1.3595      0.1652     -0.0867
            y       0.2103     -3.1602      0.1051
            z      -0.1268      0.1110     -1.2053
-------------------------------------------------------------------------------
   53 O2    x      -2.3474      0.0404      0.0432
            y       0.0291     -1.2488      0.0717
            z       0.0415      0.0512     -1.0867
-------------------------------------------------------------------------------
   54 O2    x      -2.3598      0.0163      0.0285
            y      -0.0091     -1.2486     -0.0695
            z       0.0311     -0.0507     -1.0749
-------------------------------------------------------------------------------
   55 O2    x      -2.4271     -0.1296     -0.0176
            y      -0.0744     -1.2316     -0.0617
            z      -0.0153     -0.0298     -1.0981
-------------------------------------------------------------------------------
   56 O3    x      -2.9710     -0.0838     -0.1191
            y      -0.0277     -1.3867      0.0951
            z      -0.1216      0.0521     -1.2648
-------------------------------------------------------------------------------
   57 O2    x      -1.2130     -0.1374     -0.0780
            y      -0.1220     -1.2947     -0.0152
            z      -0.0833     -0.0117     -2.0457
-------------------------------------------------------------------------------
   58 O2    x      -1.1941     -0.1294     -0.0151
            y      -0.1204     -1.2669      0.0066
            z      -0.0116     -0.0019     -2.0607
-------------------------------------------------------------------------------
   59 O2    x      -1.2172      0.1299     -0.0226
            y       0.1013     -1.2632      0.0111
            z      -0.0217      0.0153     -2.0521
-------------------------------------------------------------------------------
   60 O3    x      -1.3105      0.1349      0.0694
            y       0.1184     -1.4645      0.0803
            z       0.0578      0.0588     -2.6314
-------------------------------------------------------------------------------
   61 O3    x      -1.3138     -0.1286      0.0368
            y      -0.0666     -1.4791     -0.0807
            z       0.0277     -0.0810     -2.5988
-------------------------------------------------------------------------------
   62 O2    x      -1.1994     -0.1316      0.0361
            y      -0.0710     -1.2666     -0.0536
            z       0.0317     -0.0510     -2.0765
-------------------------------------------------------------------------------
   63 O2    x      -1.2063      0.1402     -0.0706
            y       0.1143     -1.3031     -0.0081
            z      -0.0712      0.0018     -2.0398
-------------------------------------------------------------------------------
   64 O2    x      -1.1761      0.1233     -0.0263
            y       0.1032     -1.2742     -0.0024
            z      -0.0293     -0.0136     -2.0731
-------------------------------------------------------------------------------
   65 O2    x      -1.2619      0.0907      0.0620
            y       0.1477     -2.5167     -0.0177
            z       0.1008     -0.0337     -1.0196
-------------------------------------------------------------------------------
   66 O3    x      -1.4246     -0.0558     -0.0910
            y       0.0325     -3.1149     -0.0571
            z      -0.1240     -0.0734     -1.1259
-------------------------------------------------------------------------------
   67 O2    x      -1.1980     -0.0148      0.0898
            y      -0.0453     -2.5117     -0.0035
            z       0.0897      0.0069     -1.0379
-------------------------------------------------------------------------------
   68 O2    x      -1.2224     -0.0157     -0.0795
            y      -0.0416     -2.5765      0.0195
            z      -0.0925      0.0084     -1.0093
-------------------------------------------------------------------------------
   69 O2    x      -2.4687     -0.0598     -0.0089
            y      -0.0318     -1.2214      0.0511
            z      -0.0019      0.0119     -1.0709
-------------------------------------------------------------------------------
   70 O3    x      -3.0110     -0.1315     -0.0949
            y      -0.0908     -1.3914     -0.0983
            z      -0.0654     -0.0484     -1.2198
-------------------------------------------------------------------------------
   71 O2    x      -2.4294      0.0110      0.0688
            y       0.0050     -1.2359     -0.0680
            z       0.0259     -0.0401     -1.0420
-------------------------------------------------------------------------------
   72 O2    x      -2.4399      0.0282      0.0492
            y       0.0254     -1.2368      0.0665
            z       0.0246      0.0391     -1.0335
-------------------------------------------------------------------------------




  Elastic Constant Matrix: (Units=GPa)

-------------------------------------------------------------------------------
  Indices      1         2         3         4         5         6    
-------------------------------------------------------------------------------
       1     52.9829   27.3198   27.0226   -2.6262   -4.0160   -4.0900
       2     27.3198   74.4357   28.1865   -3.5272   -4.7376   -4.9400
       3     27.0226   28.1865   25.4756   -0.8693   -0.1000   -1.8117
       4     -2.6262   -3.5272   -0.8693   11.0321   -0.9726    0.6370
       5     -4.0160   -4.7376   -0.1000   -0.9726   24.0192   -1.7690
       6     -4.0900   -4.9400   -1.8117    0.6370   -1.7690   20.2671
-------------------------------------------------------------------------------


  Elastic Compliance Matrix: (Units=1/GPa)

-------------------------------------------------------------------------------
  Indices      1         2         3         4         5         6    
-------------------------------------------------------------------------------
       1    0.044127  0.004473 -0.051014  0.008349  0.008824  0.005943
       2    0.004473  0.024743 -0.031551  0.006771  0.006098  0.004433
       3   -0.051014 -0.031551  0.127229 -0.013120 -0.015309 -0.007536
       4    0.008349  0.006771 -0.013120  0.094348  0.006480 -0.000237
       5    0.008824  0.006098 -0.015309  0.006480  0.044924  0.005616
       6    0.005943  0.004433 -0.007536 -0.000237  0.005616  0.051445
-------------------------------------------------------------------------------

  Mechanical properties :

-------------------------------------------------------------------------------
  Convention :                    Reuss         Voigt         Hill
-------------------------------------------------------------------------------
  Bulk  Modulus (GPa)     =      25.05206      35.32801      30.19004
  Shear Modulus (GPa)     =       8.98788      15.75470      12.37129
-------------------------------------------------------------------------------
  Velocity S-wave (km/s)  =       2.14725       2.84288       2.51919
  Velocity P-wave (km/s)  =       4.35878       5.37576       4.89376
-------------------------------------------------------------------------------
  Compressibility (1/GPa) =    0.03991688
-------------------------------------------------------------------------------
  Stress axis :                     x             y             z
-------------------------------------------------------------------------------
  Youngs Moduli (GPa)     =      22.66168      40.41555       7.85982
-------------------------------------------------------------------------------
  Poissons Ratio (x)      =                    -0.18079       0.40096
  Poissons Ratio (y)      =      -0.10137                     0.24798
  Poissons Ratio (z)      =       1.15607       1.27513
-------------------------------------------------------------------------------


  Piezoelectric Strain Matrix: (Units=C/m**2)

-------------------------------------------------------------------------------
  Indices      1         2         3         4         5         6    
-------------------------------------------------------------------------------
       x     0.47107   1.09280   0.18990   0.04448   0.18969   0.04035
       y    -0.20734  -1.08494   0.18302  -0.05832  -0.08781   0.31741
       z     0.11373   0.03031   0.32602   0.24796  -0.39834   0.12331
-------------------------------------------------------------------------------


  Piezoelectric Stress Matrix: (Units=10**-11 C/N)

-------------------------------------------------------------------------------
  Indices      1         2         3         4         5         6    
-------------------------------------------------------------------------------
       x     1.82731   2.47917  -3.81409   1.42574   1.69493   0.93432
       y    -2.27144  -3.30697   6.78103  -1.76257  -1.37871   0.84293
       z    -1.21890  -0.92306   3.66364   1.76613  -1.93985   0.24015
-------------------------------------------------------------------------------


  Static dielectric constant tensor : 

-------------------------------------------------------------------------------
              x         y         z
-------------------------------------------------------------------------------
       x     3.99736  -0.00255  -0.04304
       y    -0.00255   4.13693  -0.04328
       z    -0.04304  -0.04328   3.24859
--------------------------------------------------------------------------------

  High frequency dielectric constant tensor : 

-------------------------------------------------------------------------------
              x         y         z
-------------------------------------------------------------------------------
       x     1.67752  -0.00081   0.00011
       y    -0.00081   1.68451  -0.00072
       z     0.00011  -0.00072   1.61599
-------------------------------------------------------------------------------

  Static refractive indices : 

-------------------------------------------------------------------------------
    1 =    1.80112      2 =    1.99996      3 =    2.03446
-------------------------------------------------------------------------------

  High frequency refractive indices : 

-------------------------------------------------------------------------------
    1 =    1.27121      2 =    1.29516      3 =    1.29793
-------------------------------------------------------------------------------


  Time to end of optimisation =       9.0801 seconds


  Peak dynamic memory used =       5.01 MB 


  Timing analysis for GULP :

--------------------------------------------------------------------------------
  Task / Subroutine                                          Time (Seconds)
--------------------------------------------------------------------------------
  Calculation of reciprocal space energy and derivatives          0.5770
  Calculation of real space energy and derivatives                5.6224
  Calculation of three-body energy and derivatives                0.5105
  Calculation and manipulation of Hessian matrix                  2.8937
  Calculation of matrix inversion                                 0.0401
  Global summation overhead                                       0.0001
--------------------------------------------------------------------------------
  Total CPU time                                                  9.0801
--------------------------------------------------------------------------------


  Dump file written as c00099.vasp.grs
  CIF file written as c00099.vasp.cif


  Job Finished at 11:43.57  7th October    2025                               

