********************************************************************************
*                       GENERAL UTILITY LATTICE PROGRAM                        *
*                                 Julian Gale                                  *
*                       Curtin Institute for Computation                       *
*                    School of Molecular and Life Sciences                     *
*                    Curtin University, Western Australia                      *
********************************************************************************
* Version = 6.1.2 * Last modified =   3rd November 2022                        *
********************************************************************************
*  optimise     - perform optimisation run                                     *
*  conp         - constant pressure calculation                                *
*  property     - calculate properties for final geometry                      *
********************************************************************************

  Job Started  at 11:42.57  7th October    2025                               

  Number of CPUs =     1


  Total number of configurations input =      1

********************************************************************************
*  Input for Configuration =   1 : c00094.vasp                                 *
********************************************************************************

  Formula = Ge3Si21O48                                                  

  Number of irreducible atoms/shells =     120


  Total number atoms/shells =     120

  Dimensionality = 3               :  Bulk   



  Cartesian lattice vectors (Angstroms) :

       17.182800    0.000000    0.000000
        0.000000    7.513760    0.000000
        0.000000    0.000000   10.447700

  Cell parameters (Angstroms/Degrees):

  a =      17.1828    alpha =  90.0000
  b =       7.5138    beta  =  90.0000
  c =      10.4477    gamma =  90.0000

  Initial cell volume =        1348.875752 Angs**3

  Temperature of configuration =   0.00     K 

  Pressure of configuration =         0.000 GPa 

  Fractional coordinates of asymmetric unit :

--------------------------------------------------------------------------------
   No.  Atomic       x           y          z         Charge      Occupancy
        Label      (Frac)      (Frac)     (Frac)        (e)         (Frac)  
--------------------------------------------------------------------------------
      1 Ge    c    0.052090    0.000000    0.372270     4.00000    1.000000    
      2 Ge    c    0.839810 *  0.293910 *  0.726560 *   4.00000    1.000000    
      3 Ge    c    0.160660 *  0.294090 *  0.982560 *   4.00000    1.000000    
      4 Si    c    0.447910 *  0.000000 *  0.372270 *   4.00000    1.000000    
      5 Si    c    0.947910 *  0.000000 *  0.627730 *   4.00000    1.000000    
      6 Si    c    0.552090 *  0.000000 *  0.627730 *   4.00000    1.000000    
      7 Si    c    0.556730 *  0.000000 *  0.122130 *   4.00000    1.000000    
      8 Si    c    0.943270 *  0.000000 *  0.122130 *   4.00000    1.000000    
      9 Si    c    0.443270 *  0.000000 *  0.877870 *   4.00000    1.000000    
     10 Si    c    0.056730 *  0.000000 *  0.877870 *   4.00000    1.000000    
     11 Si    c    0.160190 *  0.293910 *  0.273440 *   4.00000    1.000000    
     12 Si    c    0.339810 *  0.706090 *  0.273440 *   4.00000    1.000000    
     13 Si    c    0.660190 *  0.706090 *  0.726560 *   4.00000    1.000000    
     14 Si    c    0.839810 *  0.706090 *  0.726560 *   4.00000    1.000000    
     15 Si    c    0.660190 *  0.293910 *  0.726560 *   4.00000    1.000000    
     16 Si    c    0.160190 *  0.706090 *  0.273440 *   4.00000    1.000000    
     17 Si    c    0.339810 *  0.293910 *  0.273440 *   4.00000    1.000000    
     18 Si    c    0.660660 *  0.294090 *  0.017440 *   4.00000    1.000000    
     19 Si    c    0.839340 *  0.705910 *  0.017440 *   4.00000    1.000000    
     20 Si    c    0.339340 *  0.294090 *  0.982560 *   4.00000    1.000000    
     21 Si    c    0.160660 *  0.705910 *  0.982560 *   4.00000    1.000000    
     22 Si    c    0.339340 *  0.705910 *  0.982560 *   4.00000    1.000000    
     23 Si    c    0.660660 *  0.705910 *  0.017440 *   4.00000    1.000000    
     24 Si    c    0.839340 *  0.294090 *  0.017440 *   4.00000    1.000000    
     25 O3    c    0.106570 *  0.174340 *  0.366200 *   1.33043    1.000000    
     26 O2    c    0.393430 *  0.825660 *  0.366200 *   0.87073    1.000000    
     27 O3    c    0.893430 *  0.174340 *  0.633800 *   1.33043    1.000000    
     28 O2    c    0.606570 *  0.825660 *  0.633800 *   0.87073    1.000000    
     29 O2    c    0.893430 *  0.825660 *  0.633800 *   0.87073    1.000000    
     30 O2    c    0.606570 *  0.174340 *  0.633800 *   0.87073    1.000000    
     31 O3    c    0.106570 *  0.825660 *  0.366200 *   1.33043    1.000000    
     32 O2    c    0.393430 *  0.174340 *  0.366200 *   0.87073    1.000000    
     33 O3    c    0.000000 *  0.000000 *  0.500000 *   1.33043    1.000000    
     34 O2    c    0.500000 *  0.000000 *  0.500000 *   0.87073    1.000000    
     35 O3    c    0.994520 *  0.000000 *  0.250840 *   1.33043    1.000000    
     36 O2    c    0.505480 *  0.000000 *  0.250840 *   0.87073    1.000000    
     37 O2    c    0.005480 *  0.000000 *  0.749160 *   0.87073    1.000000    
     38 O2    c    0.494520 *  0.000000 *  0.749160 *   0.87073    1.000000    
     39 O2    c    0.610230 *  0.175520 *  0.115390 *   0.87073    1.000000    
     40 O2    c    0.889770 *  0.824480 *  0.115390 *   0.87073    1.000000    
     41 O2    c    0.389770 *  0.175520 *  0.884610 *   0.87073    1.000000    
     42 O2    c    0.110230 *  0.824480 *  0.884610 *   0.87073    1.000000    
     43 O2    c    0.389770 *  0.824480 *  0.884610 *   0.87073    1.000000    
     44 O3    c    0.110230 *  0.175520 *  0.884610 *   1.33043    1.000000    
     45 O2    c    0.610230 *  0.824480 *  0.115390 *   0.87073    1.000000    
     46 O2    c    0.889770 *  0.175520 *  0.115390 *   0.87073    1.000000    
     47 O2    c    0.500000 *  0.000000 *  0.000000 *   0.87073    1.000000    
     48 O2    c    0.000000 *  0.000000 *  0.000000 *   0.87073    1.000000    
     49 O2    c    0.151750 *  0.500000 *  0.313330 *   0.87073    1.000000    
     50 O2    c    0.348250 *  0.500000 *  0.313330 *   0.87073    1.000000    
     51 O3    c    0.848250 *  0.500000 *  0.686670 *   1.33043    1.000000    
     52 O2    c    0.651750 *  0.500000 *  0.686670 *   0.87073    1.000000    
     53 O2    c    0.250000 *  0.234950 *  0.285720 *   0.87073    1.000000    
     54 O2    c    0.250000 *  0.765050 *  0.285720 *   0.87073    1.000000    
     55 O3    c    0.750000 *  0.234950 *  0.714280 *   1.33043    1.000000    
     56 O2    c    0.750000 *  0.765050 *  0.714280 *   0.87073    1.000000    
     57 O3    c    0.131410 *  0.268650 *  0.127790 *   1.33043    1.000000    
     58 O2    c    0.368590 *  0.731350 *  0.127790 *   0.87073    1.000000    
     59 O3    c    0.868590 *  0.268650 *  0.872210 *   1.33043    1.000000    
     60 O2    c    0.631410 *  0.731350 *  0.872210 *   0.87073    1.000000    
     61 O2    c    0.868590 *  0.731350 *  0.872210 *   0.87073    1.000000    
     62 O2    c    0.631410 *  0.268650 *  0.872210 *   0.87073    1.000000    
     63 O2    c    0.131410 *  0.731350 *  0.127790 *   0.87073    1.000000    
     64 O2    c    0.368590 *  0.268650 *  0.127790 *   0.87073    1.000000    
     65 O2    c    0.653920 *  0.500000 *  0.058200 *   0.87073    1.000000    
     66 O2    c    0.846080 *  0.500000 *  0.058200 *   0.87073    1.000000    
     67 O2    c    0.346080 *  0.500000 *  0.941800 *   0.87073    1.000000    
     68 O3    c    0.153920 *  0.500000 *  0.941800 *   1.33043    1.000000    
     69 O2    c    0.750000 *  0.231060 *  0.027050 *   0.87073    1.000000    
     70 O2    c    0.750000 *  0.768940 *  0.027050 *   0.87073    1.000000    
     71 O3    c    0.250000 *  0.231060 *  0.972950 *   1.33043    1.000000    
     72 O2    c    0.250000 *  0.768940 *  0.972950 *   0.87073    1.000000    
     73 O3    s    0.106570 *  0.174340 *  0.366200 *  -3.33043    1.000000    
     74 O2    s    0.393430 *  0.825660 *  0.366200 *  -2.87073    1.000000    
     75 O3    s    0.893430 *  0.174340 *  0.633800 *  -3.33043    1.000000    
     76 O2    s    0.606570 *  0.825660 *  0.633800 *  -2.87073    1.000000    
     77 O2    s    0.893430 *  0.825660 *  0.633800 *  -2.87073    1.000000    
     78 O2    s    0.606570 *  0.174340 *  0.633800 *  -2.87073    1.000000    
     79 O3    s    0.106570 *  0.825660 *  0.366200 *  -3.33043    1.000000    
     80 O2    s    0.393430 *  0.174340 *  0.366200 *  -2.87073    1.000000    
     81 O3    s    0.000000 *  0.000000 *  0.500000 *  -3.33043    1.000000    
     82 O2    s    0.500000 *  0.000000 *  0.500000 *  -2.87073    1.000000    
     83 O3    s    0.994520 *  0.000000 *  0.250840 *  -3.33043    1.000000    
     84 O2    s    0.505480 *  0.000000 *  0.250840 *  -2.87073    1.000000    
     85 O2    s    0.005480 *  0.000000 *  0.749160 *  -2.87073    1.000000    
     86 O2    s    0.494520 *  0.000000 *  0.749160 *  -2.87073    1.000000    
     87 O2    s    0.610230 *  0.175520 *  0.115390 *  -2.87073    1.000000    
     88 O2    s    0.889770 *  0.824480 *  0.115390 *  -2.87073    1.000000    
     89 O2    s    0.389770 *  0.175520 *  0.884610 *  -2.87073    1.000000    
     90 O2    s    0.110230 *  0.824480 *  0.884610 *  -2.87073    1.000000    
     91 O2    s    0.389770 *  0.824480 *  0.884610 *  -2.87073    1.000000    
     92 O3    s    0.110230 *  0.175520 *  0.884610 *  -3.33043    1.000000    
     93 O2    s    0.610230 *  0.824480 *  0.115390 *  -2.87073    1.000000    
     94 O2    s    0.889770 *  0.175520 *  0.115390 *  -2.87073    1.000000    
     95 O2    s    0.500000 *  0.000000 *  0.000000 *  -2.87073    1.000000    
     96 O2    s    0.000000 *  0.000000 *  0.000000 *  -2.87073    1.000000    
     97 O2    s    0.151750 *  0.500000 *  0.313330 *  -2.87073    1.000000    
     98 O2    s    0.348250 *  0.500000 *  0.313330 *  -2.87073    1.000000    
     99 O3    s    0.848250 *  0.500000 *  0.686670 *  -3.33043    1.000000    
    100 O2    s    0.651750 *  0.500000 *  0.686670 *  -2.87073    1.000000    
    101 O2    s    0.250000 *  0.234950 *  0.285720 *  -2.87073    1.000000    
    102 O2    s    0.250000 *  0.765050 *  0.285720 *  -2.87073    1.000000    
    103 O3    s    0.750000 *  0.234950 *  0.714280 *  -3.33043    1.000000    
    104 O2    s    0.750000 *  0.765050 *  0.714280 *  -2.87073    1.000000    
    105 O3    s    0.131410 *  0.268650 *  0.127790 *  -3.33043    1.000000    
    106 O2    s    0.368590 *  0.731350 *  0.127790 *  -2.87073    1.000000    
    107 O3    s    0.868590 *  0.268650 *  0.872210 *  -3.33043    1.000000    
    108 O2    s    0.631410 *  0.731350 *  0.872210 *  -2.87073    1.000000    
    109 O2    s    0.868590 *  0.731350 *  0.872210 *  -2.87073    1.000000    
    110 O2    s    0.631410 *  0.268650 *  0.872210 *  -2.87073    1.000000    
    111 O2    s    0.131410 *  0.731350 *  0.127790 *  -2.87073    1.000000    
    112 O2    s    0.368590 *  0.268650 *  0.127790 *  -2.87073    1.000000    
    113 O2    s    0.653920 *  0.500000 *  0.058200 *  -2.87073    1.000000    
    114 O2    s    0.846080 *  0.500000 *  0.058200 *  -2.87073    1.000000    
    115 O2    s    0.346080 *  0.500000 *  0.941800 *  -2.87073    1.000000    
    116 O3    s    0.153920 *  0.500000 *  0.941800 *  -3.33043    1.000000    
    117 O2    s    0.750000 *  0.231060 *  0.027050 *  -2.87073    1.000000    
    118 O2    s    0.750000 *  0.768940 *  0.027050 *  -2.87073    1.000000    
    119 O3    s    0.250000 *  0.231060 *  0.972950 *  -3.33043    1.000000    
    120 O2    s    0.250000 *  0.768940 *  0.972950 *  -2.87073    1.000000    
--------------------------------------------------------------------------------



********************************************************************************
*  General input information                                                   *
********************************************************************************

  Species output for all configurations : 

--------------------------------------------------------------------------------
  Species    Type    Atomic    Atomic    Charge       Radii (Angs)     Library
                     Number     Mass       (e)     Cova   Ionic  VDW   Symbol
--------------------------------------------------------------------------------
    Ge       Core       32      72.61   4.000000   1.170  0.000  1.750 Ge       
    Si       Core       14      28.09   4.000000   1.200  0.000  2.100 Si       
    O1       Core        8      16.00   1.733957   0.730  0.000  0.000 O1       
    O2       Core        8      16.00   0.870733   0.730  0.000  1.360 O2       
    O3       Core        8      16.00   1.330431   0.730  0.000  1.360 O3       
    O1       Shell       8       0.00  -3.733957   0.730  0.000  0.000 O1       
    O2       Shell       8       0.00  -2.870733   0.730  0.000  0.000 O2       
    O3       Shell       8       0.00  -3.330431   0.730  0.000  0.000 O3       
--------------------------------------------------------------------------------


  Lattice summation method               =    Ewald          (3-D)
                                         =    Parry          (2-D)
                                         =    Saunders et al (1-D)
  Accuracy factor for lattice sums       =   12.000


  Analytic derivatives to be used

  Time limit = Infinity

  Maximum range for interatomic potentials =    100000.000000 Angstroms

  General interatomic potentials :

--------------------------------------------------------------------------------
Atom  Types   Potential      Parameter       Value         Units   Cutoffs(Ang)
  1     2                                                            Min /  Max 
--------------------------------------------------------------------------------
Si   c O1   s Buckingham    Buckingham A     1315.2478    eV        0.000 16.000
                            Buckingham rho  0.31775900    Ang       
                            Buckingham C     10.141118    eV*Ang^6  
--------------------------------------------------------------------------------
Si   c O2   s Buckingham    Buckingham A     1315.2478    eV        0.000 16.000
                            Buckingham rho  0.31775900    Ang       
                            Buckingham C     10.141118    eV*Ang^6  
--------------------------------------------------------------------------------
Si   c O3   s Buckingham    Buckingham A     1315.2478    eV        0.000 16.000
                            Buckingham rho  0.31775900    Ang       
                            Buckingham C     10.141118    eV*Ang^6  
--------------------------------------------------------------------------------
Ge   c O1   s Buckingham    Buckingham A     1497.3996    eV        0.000 16.000
                            Buckingham rho  0.32564600    Ang       
                            Buckingham C     16.808599    eV*Ang^6  
--------------------------------------------------------------------------------
Ge   c O2   s Buckingham    Buckingham A     1497.3996    eV        0.000 16.000
                            Buckingham rho  0.32564600    Ang       
                            Buckingham C     16.808599    eV*Ang^6  
--------------------------------------------------------------------------------
Ge   c O3   s Buckingham    Buckingham A     1497.3996    eV        0.000 16.000
                            Buckingham rho  0.32564600    Ang       
                            Buckingham C     16.808599    eV*Ang^6  
--------------------------------------------------------------------------------
O1   s O1   s Buckingham    Buckingham A     22764.000    eV        0.000 16.000
                            Buckingham rho  0.14900000    Ang       
                            Buckingham C     10.937044    eV*Ang^6  
--------------------------------------------------------------------------------
O1   s O2   s Buckingham    Buckingham A     22764.000    eV        0.000 16.000
                            Buckingham rho  0.14900000    Ang       
                            Buckingham C     10.937044    eV*Ang^6  
--------------------------------------------------------------------------------
O1   s O3   s Buckingham    Buckingham A     22764.000    eV        0.000 16.000
                            Buckingham rho  0.14900000    Ang       
                            Buckingham C     10.937044    eV*Ang^6  
--------------------------------------------------------------------------------
O2   s O2   s Buckingham    Buckingham A     22764.000    eV        0.000 16.000
                            Buckingham rho  0.14900000    Ang       
                            Buckingham C     10.937044    eV*Ang^6  
--------------------------------------------------------------------------------
O2   s O3   s Buckingham    Buckingham A     22764.000    eV        0.000 16.000
                            Buckingham rho  0.14900000    Ang       
                            Buckingham C     10.937044    eV*Ang^6  
--------------------------------------------------------------------------------
O3   s O3   s Buckingham    Buckingham A     22764.000    eV        0.000 16.000
                            Buckingham rho  0.14900000    Ang       
                            Buckingham C     10.937044    eV*Ang^6  
--------------------------------------------------------------------------------
O1   c O1   s Spring (c-s)  Spring k 2       180.31577    eV*Ang^-2 0.000  0.800
                            Spring k 4       0.0000000    eV*Ang^-4 
--------------------------------------------------------------------------------
O2   c O2   s Spring (c-s)  Spring k 2       75.969800    eV*Ang^-2 0.000  0.800
                            Spring k 4       0.0000000    eV*Ang^-4 
--------------------------------------------------------------------------------
O3   c O3   s Spring (c-s)  Spring k 2       128.14270    eV*Ang^-2 0.000  0.800
                            Spring k 4       0.0000000    eV*Ang^-4 
--------------------------------------------------------------------------------

  General Three-body potentials :

--------------------------------------------------------------------------------
  Atoms       Potential      Parameter       Value         Units   Cutoffs(Ang)
  1 / 2 / 3                                                          Min /  Max 
--------------------------------------------------------------------------------
Si    core    Harmonic      Three-body cnst  1.2614000    eV*rad^-2 0.000  1.900
O1    shel                  Three-body angl  109.47000    degrees   0.000  1.900
O1    shel                  Three-body k4    0.0000000    eV*rad^-4 0.000  3.500
                            Three-body k3    0.0000000    eV*rad^-3 
--------------------------------------------------------------------------------
Si    core    Harmonic      Three-body cnst  1.2614000    eV*rad^-2 0.000  1.900
O1    shel                  Three-body angl  109.47000    degrees   0.000  1.900
õ(1   shel                  Three-body k4    0.0000000    eV*rad^-4 0.000  3.500
                            Three-body k3    0.0000000    eV*rad^-3 
--------------------------------------------------------------------------------
Si    core    Harmonic      Three-body cnst  1.2614000    eV*rad^-2 0.000  1.900
õ(1   shel                  Three-body angl  109.47000    degrees   0.000  1.900
õ(1   shel                  Three-body k4    0.0000000    eV*rad^-4 0.000  3.500
                            Three-body k3    0.0000000    eV*rad^-3 
--------------------------------------------------------------------------------
Si    core    Harmonic      Three-body cnst  1.2614000    eV*rad^-2 0.000  1.900
O1    shel                  Three-body angl  109.47000    degrees   0.000  1.900
O2    shel                  Three-body k4    0.0000000    eV*rad^-4 0.000  3.500
                            Three-body k3    0.0000000    eV*rad^-3 
--------------------------------------------------------------------------------
Si    core    Harmonic      Three-body cnst  1.2614000    eV*rad^-2 0.000  1.900
O1    shel                  Three-body angl  109.47000    degrees   0.000  1.900
õ(2   shel                  Three-body k4    0.0000000    eV*rad^-4 0.000  3.500
                            Three-body k3    0.0000000    eV*rad^-3 
--------------------------------------------------------------------------------
Si    core    Harmonic      Three-body cnst  1.2614000    eV*rad^-2 0.000  1.900
O2    shel                  Three-body angl  109.47000    degrees   0.000  1.900
õ(1   shel                  Three-body k4    0.0000000    eV*rad^-4 0.000  3.500
                            Three-body k3    0.0000000    eV*rad^-3 
--------------------------------------------------------------------------------
Si    core    Harmonic      Three-body cnst  1.2614000    eV*rad^-2 0.000  1.900
õ(1   shel                  Three-body angl  109.47000    degrees   0.000  1.900
õ(2   shel                  Three-body k4    0.0000000    eV*rad^-4 0.000  3.500
                            Three-body k3    0.0000000    eV*rad^-3 
--------------------------------------------------------------------------------
Si    core    Harmonic      Three-body cnst  1.2614000    eV*rad^-2 0.000  1.900
O2    shel                  Three-body angl  109.47000    degrees   0.000  1.900
O2    shel                  Three-body k4    0.0000000    eV*rad^-4 0.000  3.500
                            Three-body k3    0.0000000    eV*rad^-3 
--------------------------------------------------------------------------------
Si    core    Harmonic      Three-body cnst  1.2614000    eV*rad^-2 0.000  1.900
O2    shel                  Three-body angl  109.47000    degrees   0.000  1.900
õ(2   shel                  Three-body k4    0.0000000    eV*rad^-4 0.000  3.500
                            Three-body k3    0.0000000    eV*rad^-3 
--------------------------------------------------------------------------------
Si    core    Harmonic      Three-body cnst  1.2614000    eV*rad^-2 0.000  1.900
õ(2   shel                  Three-body angl  109.47000    degrees   0.000  1.900
õ(2   shel                  Three-body k4    0.0000000    eV*rad^-4 0.000  3.500
                            Three-body k3    0.0000000    eV*rad^-3 
--------------------------------------------------------------------------------

********************************************************************************
*  Output for configuration   1 : c00094.vasp                                  *
********************************************************************************


  Components of energy : 

--------------------------------------------------------------------------------
  Interatomic potentials     =         760.30861002 eV    
  Three-body potentials      =           0.01427038 eV    
  Monopole - monopole (real) =       -2676.00317478 eV    
  Monopole - monopole (recip)=       -1115.35404472 eV    
  Monopole - monopole (total)=       -3791.35721950 eV    
--------------------------------------------------------------------------------
  Total lattice energy       =       -3031.03433910 eV    
--------------------------------------------------------------------------------
  Total lattice energy       =         -292448.4801 kJ/(mole unit cells)
--------------------------------------------------------------------------------


  Number of variables =      363

  Maximum number of calculations  =          1000
  Maximum Hessian update interval =            10
  Maximum step size               =   0.100000000
  Maximum parameter tolerance     =   0.000010000
  Maximum function  tolerance     =   0.000010000
  Maximum gradient  tolerance     =   0.001000000
  Maximum gradient  component     =   0.010000000

  Symmetry not applied to optimisation

  Cell parameters to be optimised using strains

  Newton-Raphson optimiser to be used

  BFGS hessian update to be used

  Lower half triangular hessian to be used

  Minimiser to switch to RFO
  When gradient norm is less than     0.050000

  Dumpfile to be written after every cycle

  Start of bulk optimisation :

  Cycle:      0 Energy:     -3031.034339  Gnorm:      4.405181  CPU:    0.109
  ** Hessian calculated **
  Cycle:      1 Energy:     -3061.957331  Gnorm:      0.977823  CPU:    0.231
  ** Hessian calculated **
  Cycle:      2 Energy:     -3065.966277  Gnorm:      0.486624  CPU:    0.452
  ** Hessian calculated **
  Cycle:      3 Energy:     -3066.586472  Gnorm:      0.276658  CPU:    0.640
  Cycle:      4 Energy:     -3066.797599  Gnorm:      0.183020  CPU:    0.739
  Cycle:      5 Energy:     -3066.981836  Gnorm:      0.142851  CPU:    0.854
  Cycle:      6 Energy:     -3067.154733  Gnorm:      0.114112  CPU:    0.970
  Cycle:      7 Energy:     -3067.265030  Gnorm:      0.093471  CPU:    1.069
  Cycle:      8 Energy:     -3067.333532  Gnorm:      0.072034  CPU:    1.167
  Cycle:      9 Energy:     -3067.372859  Gnorm:      0.058664  CPU:    1.264
  Cycle:     10 Energy:     -3067.397605  Gnorm:      0.048808  CPU:    1.385
  ** Hessian has required structure
  Cycle:     11 Energy:     -3067.421400  Gnorm:      0.110305  CPU:    1.544
  ** Hessian has required structure
  Cycle:     12 Energy:     -3067.449351  Gnorm:      0.089473  CPU:    1.724
  ** Hessian has wrong structure
  ** Imaginary eigenvectors =   2
  ** Hessian has wrong structure
  ** Imaginary eigenvectors =   2
  Cycle:     13 Energy:     -3067.471572  Gnorm:      0.089327  CPU:    2.322
  ** Hessian has wrong structure
  ** Imaginary eigenvectors =   2
  ** Hessian has wrong structure
  ** Imaginary eigenvectors =   2
  Cycle:     14 Energy:     -3067.510922  Gnorm:      0.089007  CPU:    2.790
  ** Hessian has wrong structure
  ** Imaginary eigenvectors =   2
  ** Hessian has wrong structure
  ** Imaginary eigenvectors =   2
  Cycle:     15 Energy:     -3067.552839  Gnorm:      0.088687  CPU:    3.248
  ** Hessian has wrong structure
  ** Imaginary eigenvectors =   1
  ** Hessian has wrong structure
  ** Imaginary eigenvectors =   1
  Cycle:     16 Energy:     -3067.774892  Gnorm:      0.070429  CPU:    3.729
  ** Hessian has wrong structure
  ** Imaginary eigenvectors =   1
  ** Hessian has required structure
  Cycle:     17 Energy:     -3068.031719  Gnorm:      0.042422  CPU:    4.187
  ** Hessian has required structure
  Cycle:     18 Energy:     -3068.149707  Gnorm:      0.027861  CPU:    4.373
  ** Hessian has required structure
  Cycle:     19 Energy:     -3068.202577  Gnorm:      0.019790  CPU:    4.557
  ** Hessian has required structure
  Cycle:     20 Energy:     -3068.223244  Gnorm:      0.022906  CPU:    4.744
  ** Hessian has required structure
  Cycle:     21 Energy:     -3068.254726  Gnorm:      0.021824  CPU:    4.915
  ** Hessian has required structure
  Cycle:     22 Energy:     -3068.277891  Gnorm:      0.019261  CPU:    5.104
  ** Hessian has required structure
  Cycle:     23 Energy:     -3068.297810  Gnorm:      0.023545  CPU:    5.275
  ** Hessian has required structure
  Cycle:     24 Energy:     -3068.321400  Gnorm:      0.023656  CPU:    5.443
  ** Hessian has required structure
  Cycle:     25 Energy:     -3068.334791  Gnorm:      0.020642  CPU:    5.592
  ** Hessian has required structure
  Cycle:     26 Energy:     -3068.347447  Gnorm:      0.022795  CPU:    5.761
  ** Hessian has required structure
  Cycle:     27 Energy:     -3068.364444  Gnorm:      0.019023  CPU:    6.035
  ** Hessian has required structure
  Cycle:     28 Energy:     -3068.374932  Gnorm:      0.010982  CPU:    6.183
  ** Hessian has required structure
  Cycle:     29 Energy:     -3068.378026  Gnorm:      0.009297  CPU:    6.349
  ** Hessian has required structure
  Cycle:     30 Energy:     -3068.378939  Gnorm:      0.004466  CPU:    6.516
  ** Hessian has required structure
  Cycle:     31 Energy:     -3068.379313  Gnorm:      0.003615  CPU:    6.684
  ** Hessian has required structure
  Cycle:     32 Energy:     -3068.379599  Gnorm:      0.002094  CPU:    6.871
  ** Hessian has required structure
  Cycle:     33 Energy:     -3068.379770  Gnorm:      0.001990  CPU:    7.058
  ** Hessian has required structure
  Cycle:     34 Energy:     -3068.379957  Gnorm:      0.001535  CPU:    7.243
  ** Hessian has required structure
  Cycle:     35 Energy:     -3068.380106  Gnorm:      0.001389  CPU:    7.429
  ** Hessian has required structure
  Cycle:     36 Energy:     -3068.380224  Gnorm:      0.001077  CPU:    7.601
  ** Hessian has required structure
  Cycle:     37 Energy:     -3068.380333  Gnorm:      0.000638  CPU:    7.853
  ** Hessian has required structure
  Cycle:     38 Energy:     -3068.380374  Gnorm:      0.000443  CPU:    8.027
  ** Hessian has required structure
  Cycle:     39 Energy:     -3068.380394  Gnorm:      0.000284  CPU:    8.199
  ** Hessian has required structure
  Cycle:     40 Energy:     -3068.380404  Gnorm:      0.000179  CPU:    8.369
  ** Hessian has required structure
  Cycle:     41 Energy:     -3068.380407  Gnorm:      0.000118  CPU:    8.524
  ** Hessian has required structure
  Cycle:     42 Energy:     -3068.380409  Gnorm:      0.000087  CPU:    8.661
  ** Hessian has required structure
  Cycle:     43 Energy:     -3068.380410  Gnorm:      0.000062  CPU:    8.798
  ** Hessian has required structure


  **** Optimisation achieved ****


  Final energy =   -3068.38041062 eV      
  Final Gnorm  =       0.00004446

  Components of energy : 

--------------------------------------------------------------------------------
  Interatomic potentials     =         815.07462479 eV    
  Three-body potentials      =           0.19547263 eV    
  Monopole - monopole (real) =       -2210.06470379 eV    
  Monopole - monopole (recip)=       -1673.58580425 eV    
  Monopole - monopole (total)=       -3883.65050805 eV    
--------------------------------------------------------------------------------
  Total lattice energy       =       -3068.38041062 eV    
--------------------------------------------------------------------------------
  Total lattice energy       =         -296051.8051 kJ/(mole unit cells)
--------------------------------------------------------------------------------

  Final fractional coordinates of atoms :

--------------------------------------------------------------------------------
   No.  Atomic        x           y          z          Radius
        Label       (Frac)      (Frac)     (Frac)       (Angs) 
--------------------------------------------------------------------------------
     1  Ge    c     0.052090    0.000000    0.372270    0.000000
     2  Ge    c     0.833389    0.306052    0.703234    0.000000
     3  Ge    c     0.163966    0.300488    0.966056    0.000000
     4  Si    c     0.451743    0.019458    0.354594    0.000000
     5  Si    c     0.947200    0.013225    0.628097    0.000000
     6  Si    c     0.543162    0.021762    0.623369    0.000000
     7  Si    c     0.557372    0.010964    0.106854    0.000000
     8  Si    c     0.942121    0.013696    0.121198    0.000000
     9  Si    c     0.439620    0.024094    0.871328    0.000000
    10  Si    c     0.050450    0.013341    0.882601    0.000000
    11  Si    c     0.169235    0.291461    0.272272    0.000000
    12  Si    c     0.337278    0.727215    0.270103    0.000000
    13  Si    c     0.657479    0.728558    0.712877    0.000000
    14  Si    c     0.837091    0.716379    0.705293    0.000000
    15  Si    c     0.650792    0.324653    0.708610    0.000000
    16  Si    c     0.158283    0.700340    0.272424    0.000000
    17  Si    c     0.346753    0.326331    0.268093    0.000000
    18  Si    c     0.655619    0.323441    0.013922    0.000000
    19  Si    c     0.843817    0.705426    0.009672    0.000000
    20  Si    c     0.345399    0.337882    0.961330    0.000000
    21  Si    c     0.149848    0.705889    0.973245    0.000000
    22  Si    c     0.330784    0.732833    0.966518    0.000000
    23  Si    c     0.664530    0.721179    0.016489    0.000000
    24  Si    c     0.835003    0.303938    0.013388    0.000000
    25  O3    c     0.116627    0.172925    0.363379    0.000000
    26  O2    c     0.389388    0.861109    0.352744    0.000000
    27  O3    c     0.893716    0.183155    0.609938    0.000000
    28  O2    c     0.603631    0.861862    0.632558    0.000000
    29  O2    c     0.889293    0.846175    0.619286    0.000000
    30  O2    c     0.588464    0.206360    0.631927    0.000000
    31  O3    c     0.101287    0.804293    0.362522    0.000000
    32  O2    c     0.407815    0.204704    0.344446    0.000000
    33  O3    c     0.014565    0.004768    0.526041    0.000000
    34  O2    c     0.499411    0.011107    0.487174    0.000000
    35  O3    c     0.974365    0.013467    0.266284    0.000000
    36  O2    c     0.512309    0.999175    0.239890    0.000000
    37  O2    c     0.985800    0.017001    0.771489    0.000000
    38  O2    c     0.478679    0.005934    0.733212    0.000000
    39  O2    c     0.600261    0.198758    0.098131    0.000000
    40  O2    c     0.901212    0.826579    0.093357    0.000000
    41  O2    c     0.406096    0.219794    0.884496    0.000000
    42  O2    c     0.095111    0.827888    0.883820    0.000000
    43  O2    c     0.370329    0.881445    0.878518    0.000000
    44  O3    c     0.112393    0.167183    0.862907    0.000000
    45  O2    c     0.619854    0.854891    0.107148    0.000000
    46  O2    c     0.881538    0.172909    0.108016    0.000000
    47  O2    c     0.500301    0.981434    0.985553    0.000000
    48  O2    c     0.012207    0.047963    0.022453    0.000000
    49  O2    c     0.142760    0.493186    0.282454    0.000000
    50  O2    c     0.366073    0.529182    0.297841    0.000000
    51  O3    c     0.859092    0.520700    0.673217    0.000000
    52  O2    c     0.631870    0.529299    0.683126    0.000000
    53  O2    c     0.260015    0.278308    0.314535    0.000000
    54  O2    c     0.247646    0.744574    0.311364    0.000000
    55  O3    c     0.736432    0.280316    0.661944    0.000000
    56  O2    c     0.746721    0.754633    0.670991    0.000000
    57  O3    c     0.159301    0.227357    0.124970    0.000000
    58  O2    c     0.344661    0.776263    0.118013    0.000000
    59  O3    c     0.845647    0.250084    0.865215    0.000000
    60  O2    c     0.650295    0.770240    0.865426    0.000000
    61  O2    c     0.852375    0.752933    0.858082    0.000000
    62  O2    c     0.644100    0.281055    0.862022    0.000000
    63  O2    c     0.141393    0.762998    0.123684    0.000000
    64  O2    c     0.351849    0.291589    0.114511    0.000000
    65  O2    c     0.633775    0.524089    0.043487    0.000000
    66  O2    c     0.866312    0.502592    0.033799    0.000000
    67  O2    c     0.366486    0.542356    0.936080    0.000000
    68  O3    c     0.124969    0.507756    0.953314    0.000000
    69  O2    c     0.744987    0.290738    0.052972    0.000000
    70  O2    c     0.755482    0.736605    0.052661    0.000000
    71  O3    c     0.258603    0.300600    0.913629    0.000000
    72  O2    c     0.239487    0.730837    0.932157    0.000000
    73  O3    s     0.116824    0.171094    0.354514    0.000000
    74  O2    s     0.390245    0.863160    0.343632    0.000000
    75  O3    s     0.893912    0.176778    0.619474    0.000000
    76  O2    s     0.603186    0.864128    0.640707    0.000000
    77  O2    s     0.889651    0.849348    0.629660    0.000000
    78  O2    s     0.590491    0.199469    0.639522    0.000000
    79  O3    s     0.103318    0.809195    0.353758    0.000000
    80  O2    s     0.405707    0.198283    0.336951    0.000000
    81  O3    s     0.010413    0.005283    0.524053    0.000000
    82  O2    s     0.498919    0.013391    0.487549    0.000000
    83  O3    s     0.977542    0.012347    0.259908    0.000000
    84  O2    s     0.510683    0.002916    0.237208    0.000000
    85  O2    s     0.989203    0.016198    0.769045    0.000000
    86  O2    s     0.481438    0.009867    0.736967    0.000000
    87  O2    s     0.601828    0.192502    0.089611    0.000000
    88  O2    s     0.899120    0.832794    0.086880    0.000000
    89  O2    s     0.403029    0.211847    0.891538    0.000000
    90  O2    s     0.096384    0.834027    0.893514    0.000000
    91  O2    s     0.373329    0.880172    0.887666    0.000000
    92  O3    s     0.110467    0.162901    0.873504    0.000000
    93  O2    s     0.618129    0.856730    0.096863    0.000000
    94  O2    s     0.882881    0.170365    0.098830    0.000000
    95  O2    s     0.499869    0.989625    0.986331    0.000000
    96  O2    s     0.008679    0.040716    0.018486    0.000000
    97  O2    s     0.147276    0.494389    0.280288    0.000000
    98  O2    s     0.360953    0.528547    0.291730    0.000000
    99  O3    s     0.854654    0.523551    0.679056    0.000000
   100  O2    s     0.636618    0.528959    0.689012    0.000000
   101  O2    s     0.259772    0.284820    0.305233    0.000000
   102  O2    s     0.247871    0.738056    0.302883    0.000000
   103  O3    s     0.735669    0.286830    0.669969    0.000000
   104  O2    s     0.746643    0.747795    0.679123    0.000000
   105  O3    s     0.160631    0.239415    0.126517    0.000000
   106  O2    s     0.342385    0.766424    0.118047    0.000000
   107  O3    s     0.843585    0.259988    0.867006    0.000000
   108  O2    s     0.652598    0.760566    0.865304    0.000000
   109  O2    s     0.849823    0.744002    0.858525    0.000000
   110  O2    s     0.646033    0.290177    0.862215    0.000000
   111  O2    s     0.143973    0.750881    0.123479    0.000000
   112  O2    s     0.350620    0.300230    0.114838    0.000000
   113  O2    s     0.639360    0.523561    0.037462    0.000000
   114  O2    s     0.860696    0.503491    0.029138    0.000000
   115  O2    s     0.360581    0.541045    0.941901    0.000000
   116  O3    s     0.130707    0.511594    0.956405    0.000000
   117  O2    s     0.744900    0.295853    0.044389    0.000000
   118  O2    s     0.755172    0.731470    0.044039    0.000000
   119  O3    s     0.259740    0.304413    0.922818    0.000000
   120  O2    s     0.239948    0.728326    0.940334    0.000000
--------------------------------------------------------------------------------

  Final Cartesian lattice vectors (Angstroms) :

       17.201316   -0.051726   -0.116020
       -0.022940    7.637397    0.037887
       -0.071700    0.055728   10.280258


  Final cell parameters and derivatives :

--------------------------------------------------------------------------------
       a           17.201785 Angstrom     dE/de1(xx)     0.002639 eV/strain
       b            7.637525 Angstrom     dE/de2(yy)     0.000714 eV/strain
       c           10.280659 Angstrom     dE/de3(zz)     0.004668 eV/strain
       alpha       89.403999 Degrees      dE/de4(yz)    -0.000042 eV/strain
       beta        90.786970 Degrees      dE/de5(xz)     0.000072 eV/strain
       gamma       90.346290 Degrees      dE/de6(xy)    -0.000120 eV/strain
--------------------------------------------------------------------------------

  Primitive cell volume =          1350.439378 Angs**3

  Density of cell =      1.937581 g/cm**3

  Non-primitive cell volume =          1350.439378 Angs**3


  Final internal derivatives :

--------------------------------------------------------------------------------
   No.  Atomic          a             b             c           Radius
        Label          (eV)          (eV)          (eV)        (eV/Angs)
--------------------------------------------------------------------------------
      1 Ge    c       0.000000      0.000000      0.000000      0.000000
      2 Ge    c      -0.000025      0.000070      0.000091      0.000000
      3 Ge    c       0.000142      0.000029     -0.000104      0.000000
      4 Si    c      -0.007505      0.000398     -0.000740      0.000000
      5 Si    c       0.000114     -0.000035      0.000024      0.000000
      6 Si    c       0.005136      0.000414      0.001583      0.000000
      7 Si    c       0.004259      0.000637     -0.000246      0.000000
      8 Si    c      -0.000030     -0.000046      0.000078      0.000000
      9 Si    c      -0.003828      0.000673     -0.000251      0.000000
     10 Si    c       0.000039      0.000052     -0.000152      0.000000
     11 Si    c       0.000373      0.000172     -0.000078      0.000000
     12 Si    c       0.000323     -0.000277      0.000327      0.000000
     13 Si    c      -0.000214     -0.000281     -0.000143      0.000000
     14 Si    c       0.000147     -0.000015     -0.000009      0.000000
     15 Si    c      -0.000500      0.000095     -0.000100      0.000000
     16 Si    c       0.000013     -0.000037      0.000054      0.000000
     17 Si    c       0.000640      0.000126      0.000038      0.000000
     18 Si    c      -0.000661      0.000093      0.000114      0.000000
     19 Si    c       0.000175     -0.000023      0.000010      0.000000
     20 Si    c       0.000539      0.000133     -0.000023      0.000000
     21 Si    c      -0.000140     -0.000069      0.000001      0.000000
     22 Si    c       0.000218     -0.000291     -0.000271      0.000000
     23 Si    c      -0.000680     -0.000101      0.000092      0.000000
     24 Si    c      -0.000037      0.000033     -0.000107      0.000000
     25 O3    c      -0.000146     -0.000068      0.000010      0.000000
     26 O2    c      -0.000018     -0.000336      0.000236      0.000000
     27 O3    c      -0.000147      0.000080     -0.000017      0.000000
     28 O2    c       0.000551     -0.000563     -0.000286      0.000000
     29 O2    c      -0.000178     -0.000083      0.000017      0.000000
     30 O2    c      -0.000179      0.000241     -0.000025      0.000000
     31 O3    c      -0.000095      0.000123      0.000024      0.000000
     32 O2    c       0.000170      0.000336      0.000092      0.000000
     33 O3    c      -0.000078      0.000007     -0.000024      0.000000
     34 O2    c       0.002733     -0.000432      0.000299      0.000000
     35 O3    c       0.000159      0.000013      0.000040      0.000000
     36 O2    c       0.002377     -0.000665      0.000431      0.000000
     37 O2    c       0.000322      0.000028      0.000203      0.000000
     38 O2    c      -0.004824     -0.000318     -0.000638      0.000000
     39 O2    c       0.000212      0.000685      0.000009      0.000000
     40 O2    c      -0.000090     -0.000045     -0.000058      0.000000
     41 O2    c       0.000085      0.000451      0.000067      0.000000
     42 O2    c      -0.000135      0.000124      0.000040      0.000000
     43 O2    c      -0.000506     -0.000422     -0.000064      0.000000
     44 O3    c      -0.000209     -0.000157      0.000212      0.000000
     45 O2    c       0.000655     -0.000655      0.000082      0.000000
     46 O2    c      -0.000096      0.000042      0.000034      0.000000
     47 O2    c       0.001578     -0.001435     -0.000749      0.000000
     48 O2    c       0.000044      0.000024     -0.000040      0.000000
     49 O2    c       0.000192     -0.000336     -0.000108      0.000000
     50 O2    c      -0.000027      0.000171     -0.000072      0.000000
     51 O3    c      -0.000065     -0.000062      0.000104      0.000000
     52 O2    c      -0.000121     -0.000015      0.000004      0.000000
     53 O2    c      -0.000685      0.000080     -0.000071      0.000000
     54 O2    c       0.000395     -0.000038     -0.000041      0.000000
     55 O3    c       0.000041      0.000029      0.000010      0.000000
     56 O2    c       0.000002      0.000009     -0.000044      0.000000
     57 O3    c       0.000145      0.000068      0.000318      0.000000
     58 O2    c      -0.000286     -0.000170     -0.000149      0.000000
     59 O3    c      -0.000131      0.000042     -0.000010      0.000000
     60 O2    c       0.000048     -0.000074      0.000195      0.000000
     61 O2    c      -0.000022     -0.000023     -0.000016      0.000000
     62 O2    c      -0.000021      0.000091      0.000042      0.000000
     63 O2    c       0.000060     -0.000031     -0.000080      0.000000
     64 O2    c      -0.000119      0.000136     -0.000028      0.000000
     65 O2    c      -0.000158      0.000040      0.000020      0.000000
     66 O2    c      -0.000066      0.000004     -0.000032      0.000000
     67 O2    c      -0.000096      0.000260      0.000080      0.000000
     68 O3    c       0.000205     -0.000080      0.000071      0.000000
     69 O2    c       0.000020      0.000014      0.000014      0.000000
     70 O2    c      -0.000172      0.000002      0.000062      0.000000
     71 O3    c      -0.000474      0.000052      0.000120      0.000000
     72 O2    c       0.000971     -0.000044      0.000022      0.000000
     73 O3    s       0.000221      0.000099     -0.000065      0.000000
     74 O2    s      -0.003216     -0.000347     -0.000283      0.000000
     75 O3    s       0.000048      0.000023     -0.000017      0.000000
     76 O2    s       0.002502     -0.000179      0.000408      0.000000
     77 O2    s       0.000018     -0.000040     -0.000002      0.000000
     78 O2    s       0.002152      0.000445      0.000027      0.000000
     79 O3    s       0.000018     -0.000034     -0.000045      0.000000
     80 O2    s      -0.002698      0.000523     -0.000069      0.000000
     81 O3    s       0.000141      0.000001     -0.000009      0.000000
     82 O2    s      -0.000124      0.000201      0.000117      0.000000
     83 O3    s       0.000096      0.000006      0.000007      0.000000
     84 O2    s      -0.000469     -0.000083      0.000495      0.000000
     85 O2    s       0.000229     -0.000015     -0.000024      0.000000
     86 O2    s      -0.000038      0.000115     -0.000418      0.000000
     87 O2    s       0.002570      0.000455     -0.000109      0.000000
     88 O2    s       0.000037     -0.000049      0.000013      0.000000
     89 O2    s      -0.002242      0.000467      0.000060      0.000000
     90 O2    s      -0.000069      0.000059     -0.000004      0.000000
     91 O2    s      -0.002527     -0.000214      0.000303      0.000000
     92 O3    s       0.000072     -0.000026     -0.000096      0.000000
     93 O2    s       0.002769     -0.000260      0.000120      0.000000
     94 O2    s      -0.000026      0.000004      0.000014      0.000000
     95 O2    s      -0.000372     -0.000108     -0.000236      0.000000
     96 O2    s       0.000248     -0.000009     -0.000043      0.000000
     97 O2    s       0.000165     -0.000087     -0.000118      0.000000
     98 O2    s      -0.000587      0.000038     -0.000173      0.000000
     99 O3    s      -0.000022      0.000027     -0.000004      0.000000
    100 O2    s       0.000389      0.000001      0.000039      0.000000
    101 O2    s      -0.000267      0.000112     -0.000145      0.000000
    102 O2    s       0.000005     -0.000056     -0.000137      0.000000
    103 O3    s       0.000137     -0.000016      0.000034      0.000000
    104 O2    s       0.000167     -0.000000      0.000031      0.000000
    105 O3    s       0.000209      0.000116      0.000048      0.000000
    106 O2    s       0.000318      0.000353     -0.000017      0.000000
    107 O3    s      -0.000015      0.000004     -0.000025      0.000000
    108 O2    s      -0.000315      0.000303     -0.000217      0.000000
    109 O2    s      -0.000011      0.000002     -0.000036      0.000000
    110 O2    s       0.000073     -0.000273     -0.000107      0.000000
    111 O2    s      -0.000009      0.000007      0.000029      0.000000
    112 O2    s      -0.000141     -0.000282      0.000002      0.000000
    113 O2    s       0.000468     -0.000010     -0.000077      0.000000
    114 O2    s       0.000015      0.000000     -0.000008      0.000000
    115 O2    s      -0.000593      0.000045      0.000172      0.000000
    116 O3    s      -0.000012     -0.000025     -0.000027      0.000000
    117 O2    s       0.000154     -0.000020     -0.000076      0.000000
    118 O2    s       0.000198      0.000021     -0.000049      0.000000
    119 O3    s       0.000130     -0.000020      0.000086      0.000000
    120 O2    s      -0.000011     -0.000034      0.000201      0.000000
--------------------------------------------------------------------------------
  Maximum abs         0.007505      0.001435      0.001583      0.000000
--------------------------------------------------------------------------------


  Born effective charge tensors : 

-------------------------------------------------------------------------------
  Atom             x           y             z
-------------------------------------------------------------------------------
    1 Ge    x       4.2756     -0.0994     -0.3624
            y       0.0656      3.9091      0.0332
            z      -0.3394      0.0447      4.5988
-------------------------------------------------------------------------------
    2 Ge    x       3.9702     -0.3374     -0.1501
            y      -0.2955      4.1661      0.2147
            z      -0.1601      0.0422      3.4215
-------------------------------------------------------------------------------
    3 Ge    x       4.0279      0.4197      0.1937
            y       0.1580      4.1602      0.3151
            z       0.1987      0.0394      3.2843
-------------------------------------------------------------------------------
    4 Si    x       3.4330     -0.0982      0.1743
            y       0.0946      3.2625     -0.0099
            z       0.4403      0.0112      3.8244
-------------------------------------------------------------------------------
    5 Si    x       3.9040     -0.2007     -0.1544
            y      -0.1907      3.4642     -0.0368
            z      -0.9969      0.0691      3.9730
-------------------------------------------------------------------------------
    6 Si    x       3.4176      0.0577      0.2235
            y      -0.0966      3.2486      0.0177
            z       0.3889      0.0313      3.8407
-------------------------------------------------------------------------------
    7 Si    x       3.4821      0.1126     -0.1961
            y      -0.1081      3.2739     -0.0089
            z      -0.5120     -0.0047      3.1083
-------------------------------------------------------------------------------
    8 Si    x       3.6092      0.0915      0.4817
            y      -0.1157      3.3138      0.0387
            z       0.4930      0.0108      3.5540
-------------------------------------------------------------------------------
    9 Si    x       3.4491     -0.1713     -0.2427
            y       0.1721      3.2548      0.0095
            z      -0.4625      0.0379      3.1292
-------------------------------------------------------------------------------
   10 Si    x       3.7355      0.0764     -0.0153
            y       0.2735      3.4329     -0.0807
            z       0.6061     -0.0126      2.9834
-------------------------------------------------------------------------------
   11 Si    x       3.4588      0.4448     -0.2140
            y       0.3395      3.6647     -0.2784
            z      -0.2600     -0.0907      3.2587
-------------------------------------------------------------------------------
   12 Si    x       3.1753      0.3008      0.1022
            y       0.1968      3.4618      0.1546
            z       0.1148      0.0714      2.8058
-------------------------------------------------------------------------------
   13 Si    x       3.1916     -0.2809      0.1020
            y      -0.2051      3.4482     -0.1513
            z       0.1275     -0.0749      2.8250
-------------------------------------------------------------------------------
   14 Si    x       3.2859      0.1818     -0.1246
            y       0.1065      3.7246     -0.0619
            z      -0.1185      0.0169      2.8775
-------------------------------------------------------------------------------
   15 Si    x       3.5085      0.1607     -0.0448
            y       0.2246      3.5311      0.1976
            z       0.0524      0.1088      2.8967
-------------------------------------------------------------------------------
   16 Si    x       3.4499     -0.3604     -0.2501
            y      -0.4021      3.5127      0.3747
            z      -0.2760      0.1554      2.9851
-------------------------------------------------------------------------------
   17 Si    x       3.1550     -0.2400      0.0404
            y      -0.2885      3.4486     -0.1533
            z       0.1389     -0.0839      2.7988
-------------------------------------------------------------------------------
   18 Si    x       3.2431      0.2805     -0.1169
            y       0.2390      3.4188     -0.1667
            z      -0.1517     -0.0673      2.7165
-------------------------------------------------------------------------------
   19 Si    x       3.2920      0.2639      0.1205
            y       0.2411      3.4028      0.1710
            z       0.1667      0.0512      2.7089
-------------------------------------------------------------------------------
   20 Si    x       3.5871     -0.2199     -0.0064
            y      -0.2224      3.5070      0.2104
            z      -0.1162      0.0940      2.8079
-------------------------------------------------------------------------------
   21 Si    x       3.3916     -0.2092      0.1773
            y      -0.1026      3.7180     -0.1615
            z       0.1893      0.0241      2.7410
-------------------------------------------------------------------------------
   22 Si    x       3.2107      0.3722     -0.1678
            y       0.0841      3.4256     -0.1663
            z      -0.1112     -0.0825      2.7439
-------------------------------------------------------------------------------
   23 Si    x       3.2330     -0.3156     -0.1621
            y      -0.1353      3.4387      0.1866
            z      -0.1184      0.0747      2.7315
-------------------------------------------------------------------------------
   24 Si    x       3.3015     -0.3269      0.1053
            y      -0.1580      3.5427     -0.1079
            z       0.0873      0.0197      3.0011
-------------------------------------------------------------------------------
   25 O3    x      -2.1182     -0.9599      0.5351
            y      -0.9769     -2.2996      0.5299
            z       0.5677      0.5175     -1.6251
-------------------------------------------------------------------------------
   26 O2    x      -1.7348     -0.7326     -0.3053
            y      -0.7539     -1.9675     -0.3256
            z      -0.3550     -0.3314     -1.3446
-------------------------------------------------------------------------------
   27 O3    x      -2.0575      0.9462      0.2709
            y       0.9938     -2.4189     -0.2979
            z       0.3944     -0.2725     -1.5233
-------------------------------------------------------------------------------
   28 O2    x      -1.7461      0.7474     -0.3284
            y       0.7616     -1.9722      0.3340
            z      -0.3679      0.3376     -1.3420
-------------------------------------------------------------------------------
   29 O2    x      -1.7299     -0.6679      0.2520
            y      -0.6796     -1.8749      0.2709
            z       0.3462      0.2446     -1.3666
-------------------------------------------------------------------------------
   30 O2    x      -1.6542     -0.7050     -0.3124
            y      -0.6796     -2.0124     -0.3297
            z      -0.3453     -0.3298     -1.3496
-------------------------------------------------------------------------------
   31 O3    x      -2.0608      0.9559      0.5703
            y       0.9071     -2.3015     -0.5420
            z       0.5819     -0.5291     -1.6653
-------------------------------------------------------------------------------
   32 O2    x      -1.6667      0.7277     -0.3004
            y       0.6994     -2.0278      0.3243
            z      -0.3563      0.3221     -1.3231
-------------------------------------------------------------------------------
   33 O3    x      -2.1340      0.0511      1.1207
            y       0.0140     -1.1956     -0.0335
            z       1.4460     -0.0797     -3.2628
-------------------------------------------------------------------------------
   34 O2    x      -1.5726     -0.0022     -0.8255
            y      -0.0046     -1.0905     -0.0092
            z      -1.0034     -0.0202     -2.8420
-------------------------------------------------------------------------------
   35 O3    x      -2.0457      0.0266     -0.9640
            y       0.0392     -1.2197      0.0159
            z      -0.9525      0.0295     -2.8550
-------------------------------------------------------------------------------
   36 O2    x      -1.7358      0.0149      0.7510
            y       0.0191     -1.1182     -0.0175
            z       0.7534     -0.0224     -2.2295
-------------------------------------------------------------------------------
   37 O2    x      -1.7365      0.0218     -0.6759
            y      -0.0104     -1.1426      0.0061
            z      -0.6427      0.0057     -2.1505
-------------------------------------------------------------------------------
   38 O2    x      -1.7054      0.0281      0.7218
            y      -0.0097     -1.1108     -0.0195
            z       0.7224     -0.0389     -2.2356
-------------------------------------------------------------------------------
   39 O2    x      -1.6679     -0.7152      0.3293
            y      -0.6378     -2.0245      0.3564
            z       0.3626      0.3407     -1.2312
-------------------------------------------------------------------------------
   40 O2    x      -1.6937     -0.7084     -0.3828
            y      -0.6214     -2.0232     -0.4042
            z      -0.3673     -0.3759     -1.2668
-------------------------------------------------------------------------------
   41 O2    x      -1.6351      0.6956      0.3333
            y       0.5846     -2.0594     -0.3618
            z       0.3552     -0.3505     -1.2332
-------------------------------------------------------------------------------
   42 O2    x      -1.7322      0.6834     -0.3113
            y       0.6309     -1.9191      0.3322
            z      -0.3657      0.2840     -1.2356
-------------------------------------------------------------------------------
   43 O2    x      -1.7437     -0.7177      0.3351
            y      -0.6764     -1.9334      0.3662
            z       0.3361      0.3527     -1.2575
-------------------------------------------------------------------------------
   44 O3    x      -2.1719     -0.9865     -0.2858
            y      -0.9641     -2.3225     -0.3266
            z      -0.3657     -0.2872     -1.3980
-------------------------------------------------------------------------------
   45 O2    x      -1.7357      0.7241      0.3262
            y       0.6898     -1.9412     -0.3517
            z       0.3441     -0.3360     -1.2579
-------------------------------------------------------------------------------
   46 O2    x      -1.7336      0.7157     -0.3459
            y       0.6719     -1.9581      0.3467
            z      -0.3268      0.3297     -1.2597
-------------------------------------------------------------------------------
   47 O2    x      -1.8326      0.0316     -0.6187
            y       0.0107     -1.1756      0.0226
            z      -0.3606      0.0177     -1.6916
-------------------------------------------------------------------------------
   48 O2    x      -1.8491     -0.0169      0.5691
            y      -0.0181     -1.2052     -0.0325
            z       0.2834     -0.0406     -1.6929
-------------------------------------------------------------------------------
   49 O2    x      -1.2105      0.0482      0.0437
            y       0.0858     -2.5160      0.0185
            z       0.0667      0.0266     -1.0682
-------------------------------------------------------------------------------
   50 O2    x      -1.1574      0.0505     -0.0524
            y       0.0843     -2.5529     -0.0161
            z      -0.0781     -0.0120     -1.0667
-------------------------------------------------------------------------------
   51 O3    x      -1.3160      0.0554      0.0928
            y       0.0424     -3.1920     -0.0841
            z       0.1048     -0.1092     -1.2054
-------------------------------------------------------------------------------
   52 O2    x      -1.1545     -0.0611     -0.0548
            y      -0.0812     -2.5752     -0.0219
            z      -0.0742     -0.0162     -1.0813
-------------------------------------------------------------------------------
   53 O2    x      -2.3451     -0.0812      0.0386
            y      -0.0397     -1.2597      0.0761
            z       0.0413      0.0520     -1.0966
-------------------------------------------------------------------------------
   54 O2    x      -2.3797     -0.0961      0.0048
            y      -0.0543     -1.2472     -0.0768
            z       0.0275     -0.0421     -1.0902
-------------------------------------------------------------------------------
   55 O3    x      -2.9899      0.1255      0.1187
            y       0.0889     -1.3969     -0.1048
            z       0.1089     -0.0752     -1.2362
-------------------------------------------------------------------------------
   56 O2    x      -2.4200      0.0201      0.0354
            y      -0.0037     -1.2299      0.0611
            z       0.0308      0.0371     -1.0892
-------------------------------------------------------------------------------
   57 O3    x      -1.3369     -0.1583     -0.1310
            y      -0.1037     -1.5058     -0.1109
            z      -0.0858     -0.0737     -2.5232
-------------------------------------------------------------------------------
   58 O2    x      -1.1745     -0.1331      0.0009
            y      -0.0847     -1.2776      0.0056
            z      -0.0140      0.0137     -2.0731
-------------------------------------------------------------------------------
   59 O3    x      -1.3292      0.1592      0.0188
            y       0.1195     -1.4615     -0.1191
            z       0.0079     -0.0648     -2.5806
-------------------------------------------------------------------------------
   60 O2    x      -1.1756      0.1264     -0.0081
            y       0.0920     -1.2783      0.0201
            z      -0.0171      0.0032     -2.0746
-------------------------------------------------------------------------------
   61 O2    x      -1.2159     -0.1200     -0.0376
            y      -0.1031     -1.2566      0.0405
            z      -0.0569      0.0503     -2.0698
-------------------------------------------------------------------------------
   62 O2    x      -1.1827     -0.1171     -0.0332
            y      -0.1073     -1.2873      0.0022
            z      -0.0219      0.0030     -2.0849
-------------------------------------------------------------------------------
   63 O2    x      -1.2412      0.1459     -0.0756
            y       0.1257     -1.3023      0.0466
            z      -0.0803      0.0468     -2.0095
-------------------------------------------------------------------------------
   64 O2    x      -1.1751      0.1080      0.0484
            y       0.1038     -1.2842      0.0066
            z       0.0467      0.0244     -2.1001
-------------------------------------------------------------------------------
   65 O2    x      -1.2170     -0.0364      0.0803
            y      -0.0752     -2.5131     -0.0204
            z       0.0964     -0.0014     -1.0228
-------------------------------------------------------------------------------
   66 O2    x      -1.2491     -0.0264     -0.0651
            y      -0.0742     -2.5499      0.0386
            z      -0.0885      0.0295     -1.0052
-------------------------------------------------------------------------------
   67 O2    x      -1.2303      0.0849      0.0855
            y       0.1518     -2.4937     -0.0217
            z       0.1056     -0.0281     -1.0404
-------------------------------------------------------------------------------
   68 O3    x      -1.4235     -0.0363     -0.0951
            y       0.0497     -3.1496     -0.0872
            z      -0.1173     -0.0827     -1.1099
-------------------------------------------------------------------------------
   69 O2    x      -2.4286      0.0546     -0.0151
            y       0.0447     -1.2477      0.0630
            z      -0.0199      0.0343     -1.0358
-------------------------------------------------------------------------------
   70 O2    x      -2.4373      0.0504      0.0358
            y       0.0264     -1.2302     -0.0656
            z       0.0163     -0.0354     -1.0441
-------------------------------------------------------------------------------
   71 O3    x      -3.0281     -0.1662     -0.0461
            y      -0.1329     -1.3836     -0.1007
            z      -0.0764     -0.0528     -1.2147
-------------------------------------------------------------------------------
   72 O2    x      -2.4765     -0.0574      0.0387
            y      -0.0195     -1.2258      0.0569
            z       0.0123      0.0189     -1.0541
-------------------------------------------------------------------------------




  Elastic Constant Matrix: (Units=GPa)

-------------------------------------------------------------------------------
  Indices      1         2         3         4         5         6    
-------------------------------------------------------------------------------
       1     53.4404   29.7838   27.2070    0.0099   -2.1323   -2.0272
       2     29.7838   80.1224   23.4022   -0.2837   -1.4546   -2.4882
       3     27.2070   23.4022   41.6686   -0.3039    0.1064   -1.4143
       4      0.0099   -0.2837   -0.3039   11.1266   -0.3493   -0.4010
       5     -2.1323   -1.4546    0.1064   -0.3493   24.4214    2.2554
       6     -2.0272   -2.4882   -1.4143   -0.4010    2.2554   20.2890
-------------------------------------------------------------------------------


  Elastic Compliance Matrix: (Units=1/GPa)

-------------------------------------------------------------------------------
  Indices      1         2         3         4         5         6    
-------------------------------------------------------------------------------
       1    0.030891 -0.006616 -0.016434 -0.000542  0.002287  0.000865
       2   -0.006616  0.016396 -0.004853  0.000337  0.000334  0.000981
       3   -0.016434 -0.004853  0.037487  0.000876 -0.001931  0.000608
       4   -0.000542  0.000337  0.000876  0.090004  0.001099  0.001705
       5    0.002287  0.000334 -0.001931  0.001099  0.041604 -0.004468
       6    0.000865  0.000981  0.000608  0.001705 -0.004468  0.050067
-------------------------------------------------------------------------------

  Mechanical properties :

-------------------------------------------------------------------------------
  Convention :                    Reuss         Voigt         Hill
-------------------------------------------------------------------------------
  Bulk  Modulus (GPa)     =      34.52354      37.33528      35.92941
  Shear Modulus (GPa)     =      15.06423      17.48997      16.27710
-------------------------------------------------------------------------------
  Velocity S-wave (km/s)  =       2.78833       3.00445       2.89840
  Velocity P-wave (km/s)  =       5.30888       5.59505       5.45384
-------------------------------------------------------------------------------
  Compressibility (1/GPa) =    0.02896574
-------------------------------------------------------------------------------
  Stress axis :                     x             y             z
-------------------------------------------------------------------------------
  Youngs Moduli (GPa)     =      32.37190      60.99162      26.67576
-------------------------------------------------------------------------------
  Poissons Ratio (x)      =                     0.40355       0.43840
  Poissons Ratio (y)      =       0.21419                     0.12946
  Poissons Ratio (z)      =       0.53201       0.29601
-------------------------------------------------------------------------------


  Piezoelectric Strain Matrix: (Units=C/m**2)

-------------------------------------------------------------------------------
  Indices      1         2         3         4         5         6    
-------------------------------------------------------------------------------
       x    -0.20326  -0.54060   0.48688   0.42962  -0.46712   0.00841
       y     0.40520   1.34676   0.03441  -0.08544   0.38276   0.10786
       z    -0.21767   0.05471  -0.87164  -0.36007   0.04222  -0.12197
-------------------------------------------------------------------------------


  Piezoelectric Stress Matrix: (Units=10**-11 C/N)

-------------------------------------------------------------------------------
  Indices      1         2         3         4         5         6    
-------------------------------------------------------------------------------
       x    -1.19975  -0.98846   2.54992   3.85225  -2.05851   0.28308
       y     0.40558   1.94380  -1.26538  -0.68206   1.66591   0.52366
       z     0.74252   0.63406  -2.98346  -3.31965   0.31096  -0.75736
-------------------------------------------------------------------------------


  Static dielectric constant tensor : 

-------------------------------------------------------------------------------
              x         y         z
-------------------------------------------------------------------------------
       x     4.03052  -0.02887  -0.21727
       y    -0.02887   4.09184   0.06264
       z    -0.21727   0.06264   3.44739
--------------------------------------------------------------------------------

  High frequency dielectric constant tensor : 

-------------------------------------------------------------------------------
              x         y         z
-------------------------------------------------------------------------------
       x     1.67328  -0.00064  -0.00072
       y    -0.00064   1.68017   0.00093
       z    -0.00072   0.00093   1.61265
-------------------------------------------------------------------------------

  Static refractive indices : 

-------------------------------------------------------------------------------
    1 =    1.83625      2 =    2.01292      3 =    2.03620
-------------------------------------------------------------------------------

  High frequency refractive indices : 

-------------------------------------------------------------------------------
    1 =    1.26989      2 =    1.29353      3 =    1.29624
-------------------------------------------------------------------------------


  Time to end of optimisation =       9.1063 seconds


  Peak dynamic memory used =       5.01 MB 


  Timing analysis for GULP :

--------------------------------------------------------------------------------
  Task / Subroutine                                          Time (Seconds)
--------------------------------------------------------------------------------
  Calculation of reciprocal space energy and derivatives          0.5364
  Calculation of real space energy and derivatives                5.5882
  Calculation of three-body energy and derivatives                0.5218
  Calculation and manipulation of Hessian matrix                  3.0925
  Calculation of matrix inversion                                 0.0214
  Global summation overhead                                       0.0001
--------------------------------------------------------------------------------
  Total CPU time                                                  9.1063
--------------------------------------------------------------------------------


  Dump file written as c00094.vasp.grs
  CIF file written as c00094.vasp.cif


  Job Finished at 11:43.06  7th October    2025                               

