********************************************************************************
*                       GENERAL UTILITY LATTICE PROGRAM                        *
*                                 Julian Gale                                  *
*                       Curtin Institute for Computation                       *
*                    School of Molecular and Life Sciences                     *
*                    Curtin University, Western Australia                      *
********************************************************************************
* Version = 6.1.2 * Last modified =   3rd November 2022                        *
********************************************************************************
*  optimise     - perform optimisation run                                     *
*  conp         - constant pressure calculation                                *
*  property     - calculate properties for final geometry                      *
********************************************************************************

  Job Started  at 11:42.09  7th October    2025                               

  Number of CPUs =     1


  Total number of configurations input =      1

********************************************************************************
*  Input for Configuration =   1 : c00090.vasp                                 *
********************************************************************************

  Formula = Ge3Si21O48                                                  

  Number of irreducible atoms/shells =     120


  Total number atoms/shells =     120

  Dimensionality = 3               :  Bulk   



  Cartesian lattice vectors (Angstroms) :

       17.182800    0.000000    0.000000
        0.000000    7.513760    0.000000
        0.000000    0.000000   10.447700

  Cell parameters (Angstroms/Degrees):

  a =      17.1828    alpha =  90.0000
  b =       7.5138    beta  =  90.0000
  c =      10.4477    gamma =  90.0000

  Initial cell volume =        1348.875752 Angs**3

  Temperature of configuration =   0.00     K 

  Pressure of configuration =         0.000 GPa 

  Fractional coordinates of asymmetric unit :

--------------------------------------------------------------------------------
   No.  Atomic       x           y          z         Charge      Occupancy
        Label      (Frac)      (Frac)     (Frac)        (e)         (Frac)  
--------------------------------------------------------------------------------
      1 Ge    c    0.052090    0.000000    0.372270     4.00000    1.000000    
      2 Ge    c    0.839810 *  0.293910 *  0.726560 *   4.00000    1.000000    
      3 Ge    c    0.839340 *  0.705910 *  0.017440 *   4.00000    1.000000    
      4 Si    c    0.447910 *  0.000000 *  0.372270 *   4.00000    1.000000    
      5 Si    c    0.947910 *  0.000000 *  0.627730 *   4.00000    1.000000    
      6 Si    c    0.552090 *  0.000000 *  0.627730 *   4.00000    1.000000    
      7 Si    c    0.556730 *  0.000000 *  0.122130 *   4.00000    1.000000    
      8 Si    c    0.943270 *  0.000000 *  0.122130 *   4.00000    1.000000    
      9 Si    c    0.443270 *  0.000000 *  0.877870 *   4.00000    1.000000    
     10 Si    c    0.056730 *  0.000000 *  0.877870 *   4.00000    1.000000    
     11 Si    c    0.160190 *  0.293910 *  0.273440 *   4.00000    1.000000    
     12 Si    c    0.339810 *  0.706090 *  0.273440 *   4.00000    1.000000    
     13 Si    c    0.660190 *  0.706090 *  0.726560 *   4.00000    1.000000    
     14 Si    c    0.839810 *  0.706090 *  0.726560 *   4.00000    1.000000    
     15 Si    c    0.660190 *  0.293910 *  0.726560 *   4.00000    1.000000    
     16 Si    c    0.160190 *  0.706090 *  0.273440 *   4.00000    1.000000    
     17 Si    c    0.339810 *  0.293910 *  0.273440 *   4.00000    1.000000    
     18 Si    c    0.660660 *  0.294090 *  0.017440 *   4.00000    1.000000    
     19 Si    c    0.339340 *  0.294090 *  0.982560 *   4.00000    1.000000    
     20 Si    c    0.160660 *  0.705910 *  0.982560 *   4.00000    1.000000    
     21 Si    c    0.339340 *  0.705910 *  0.982560 *   4.00000    1.000000    
     22 Si    c    0.160660 *  0.294090 *  0.982560 *   4.00000    1.000000    
     23 Si    c    0.660660 *  0.705910 *  0.017440 *   4.00000    1.000000    
     24 Si    c    0.839340 *  0.294090 *  0.017440 *   4.00000    1.000000    
     25 O3    c    0.106570 *  0.174340 *  0.366200 *   1.33043    1.000000    
     26 O2    c    0.393430 *  0.825660 *  0.366200 *   0.87073    1.000000    
     27 O3    c    0.893430 *  0.174340 *  0.633800 *   1.33043    1.000000    
     28 O2    c    0.606570 *  0.825660 *  0.633800 *   0.87073    1.000000    
     29 O2    c    0.893430 *  0.825660 *  0.633800 *   0.87073    1.000000    
     30 O2    c    0.606570 *  0.174340 *  0.633800 *   0.87073    1.000000    
     31 O3    c    0.106570 *  0.825660 *  0.366200 *   1.33043    1.000000    
     32 O2    c    0.393430 *  0.174340 *  0.366200 *   0.87073    1.000000    
     33 O3    c    0.000000 *  0.000000 *  0.500000 *   1.33043    1.000000    
     34 O2    c    0.500000 *  0.000000 *  0.500000 *   0.87073    1.000000    
     35 O3    c    0.994520 *  0.000000 *  0.250840 *   1.33043    1.000000    
     36 O2    c    0.505480 *  0.000000 *  0.250840 *   0.87073    1.000000    
     37 O2    c    0.005480 *  0.000000 *  0.749160 *   0.87073    1.000000    
     38 O2    c    0.494520 *  0.000000 *  0.749160 *   0.87073    1.000000    
     39 O2    c    0.610230 *  0.175520 *  0.115390 *   0.87073    1.000000    
     40 O3    c    0.889770 *  0.824480 *  0.115390 *   1.33043    1.000000    
     41 O2    c    0.389770 *  0.175520 *  0.884610 *   0.87073    1.000000    
     42 O2    c    0.110230 *  0.824480 *  0.884610 *   0.87073    1.000000    
     43 O2    c    0.389770 *  0.824480 *  0.884610 *   0.87073    1.000000    
     44 O2    c    0.110230 *  0.175520 *  0.884610 *   0.87073    1.000000    
     45 O2    c    0.610230 *  0.824480 *  0.115390 *   0.87073    1.000000    
     46 O2    c    0.889770 *  0.175520 *  0.115390 *   0.87073    1.000000    
     47 O2    c    0.500000 *  0.000000 *  0.000000 *   0.87073    1.000000    
     48 O2    c    0.000000 *  0.000000 *  0.000000 *   0.87073    1.000000    
     49 O2    c    0.151750 *  0.500000 *  0.313330 *   0.87073    1.000000    
     50 O2    c    0.348250 *  0.500000 *  0.313330 *   0.87073    1.000000    
     51 O3    c    0.848250 *  0.500000 *  0.686670 *   1.33043    1.000000    
     52 O2    c    0.651750 *  0.500000 *  0.686670 *   0.87073    1.000000    
     53 O2    c    0.250000 *  0.234950 *  0.285720 *   0.87073    1.000000    
     54 O2    c    0.250000 *  0.765050 *  0.285720 *   0.87073    1.000000    
     55 O3    c    0.750000 *  0.234950 *  0.714280 *   1.33043    1.000000    
     56 O2    c    0.750000 *  0.765050 *  0.714280 *   0.87073    1.000000    
     57 O2    c    0.131410 *  0.268650 *  0.127790 *   0.87073    1.000000    
     58 O2    c    0.368590 *  0.731350 *  0.127790 *   0.87073    1.000000    
     59 O3    c    0.868590 *  0.268650 *  0.872210 *   1.33043    1.000000    
     60 O2    c    0.631410 *  0.731350 *  0.872210 *   0.87073    1.000000    
     61 O3    c    0.868590 *  0.731350 *  0.872210 *   1.33043    1.000000    
     62 O2    c    0.631410 *  0.268650 *  0.872210 *   0.87073    1.000000    
     63 O2    c    0.131410 *  0.731350 *  0.127790 *   0.87073    1.000000    
     64 O2    c    0.368590 *  0.268650 *  0.127790 *   0.87073    1.000000    
     65 O2    c    0.653920 *  0.500000 *  0.058200 *   0.87073    1.000000    
     66 O3    c    0.846080 *  0.500000 *  0.058200 *   1.33043    1.000000    
     67 O2    c    0.346080 *  0.500000 *  0.941800 *   0.87073    1.000000    
     68 O2    c    0.153920 *  0.500000 *  0.941800 *   0.87073    1.000000    
     69 O2    c    0.750000 *  0.231060 *  0.027050 *   0.87073    1.000000    
     70 O3    c    0.750000 *  0.768940 *  0.027050 *   1.33043    1.000000    
     71 O2    c    0.250000 *  0.231060 *  0.972950 *   0.87073    1.000000    
     72 O2    c    0.250000 *  0.768940 *  0.972950 *   0.87073    1.000000    
     73 O3    s    0.106570 *  0.174340 *  0.366200 *  -3.33043    1.000000    
     74 O2    s    0.393430 *  0.825660 *  0.366200 *  -2.87073    1.000000    
     75 O3    s    0.893430 *  0.174340 *  0.633800 *  -3.33043    1.000000    
     76 O2    s    0.606570 *  0.825660 *  0.633800 *  -2.87073    1.000000    
     77 O2    s    0.893430 *  0.825660 *  0.633800 *  -2.87073    1.000000    
     78 O2    s    0.606570 *  0.174340 *  0.633800 *  -2.87073    1.000000    
     79 O3    s    0.106570 *  0.825660 *  0.366200 *  -3.33043    1.000000    
     80 O2    s    0.393430 *  0.174340 *  0.366200 *  -2.87073    1.000000    
     81 O3    s    0.000000 *  0.000000 *  0.500000 *  -3.33043    1.000000    
     82 O2    s    0.500000 *  0.000000 *  0.500000 *  -2.87073    1.000000    
     83 O3    s    0.994520 *  0.000000 *  0.250840 *  -3.33043    1.000000    
     84 O2    s    0.505480 *  0.000000 *  0.250840 *  -2.87073    1.000000    
     85 O2    s    0.005480 *  0.000000 *  0.749160 *  -2.87073    1.000000    
     86 O2    s    0.494520 *  0.000000 *  0.749160 *  -2.87073    1.000000    
     87 O2    s    0.610230 *  0.175520 *  0.115390 *  -2.87073    1.000000    
     88 O3    s    0.889770 *  0.824480 *  0.115390 *  -3.33043    1.000000    
     89 O2    s    0.389770 *  0.175520 *  0.884610 *  -2.87073    1.000000    
     90 O2    s    0.110230 *  0.824480 *  0.884610 *  -2.87073    1.000000    
     91 O2    s    0.389770 *  0.824480 *  0.884610 *  -2.87073    1.000000    
     92 O2    s    0.110230 *  0.175520 *  0.884610 *  -2.87073    1.000000    
     93 O2    s    0.610230 *  0.824480 *  0.115390 *  -2.87073    1.000000    
     94 O2    s    0.889770 *  0.175520 *  0.115390 *  -2.87073    1.000000    
     95 O2    s    0.500000 *  0.000000 *  0.000000 *  -2.87073    1.000000    
     96 O2    s    0.000000 *  0.000000 *  0.000000 *  -2.87073    1.000000    
     97 O2    s    0.151750 *  0.500000 *  0.313330 *  -2.87073    1.000000    
     98 O2    s    0.348250 *  0.500000 *  0.313330 *  -2.87073    1.000000    
     99 O3    s    0.848250 *  0.500000 *  0.686670 *  -3.33043    1.000000    
    100 O2    s    0.651750 *  0.500000 *  0.686670 *  -2.87073    1.000000    
    101 O2    s    0.250000 *  0.234950 *  0.285720 *  -2.87073    1.000000    
    102 O2    s    0.250000 *  0.765050 *  0.285720 *  -2.87073    1.000000    
    103 O3    s    0.750000 *  0.234950 *  0.714280 *  -3.33043    1.000000    
    104 O2    s    0.750000 *  0.765050 *  0.714280 *  -2.87073    1.000000    
    105 O2    s    0.131410 *  0.268650 *  0.127790 *  -2.87073    1.000000    
    106 O2    s    0.368590 *  0.731350 *  0.127790 *  -2.87073    1.000000    
    107 O3    s    0.868590 *  0.268650 *  0.872210 *  -3.33043    1.000000    
    108 O2    s    0.631410 *  0.731350 *  0.872210 *  -2.87073    1.000000    
    109 O3    s    0.868590 *  0.731350 *  0.872210 *  -3.33043    1.000000    
    110 O2    s    0.631410 *  0.268650 *  0.872210 *  -2.87073    1.000000    
    111 O2    s    0.131410 *  0.731350 *  0.127790 *  -2.87073    1.000000    
    112 O2    s    0.368590 *  0.268650 *  0.127790 *  -2.87073    1.000000    
    113 O2    s    0.653920 *  0.500000 *  0.058200 *  -2.87073    1.000000    
    114 O3    s    0.846080 *  0.500000 *  0.058200 *  -3.33043    1.000000    
    115 O2    s    0.346080 *  0.500000 *  0.941800 *  -2.87073    1.000000    
    116 O2    s    0.153920 *  0.500000 *  0.941800 *  -2.87073    1.000000    
    117 O2    s    0.750000 *  0.231060 *  0.027050 *  -2.87073    1.000000    
    118 O3    s    0.750000 *  0.768940 *  0.027050 *  -3.33043    1.000000    
    119 O2    s    0.250000 *  0.231060 *  0.972950 *  -2.87073    1.000000    
    120 O2    s    0.250000 *  0.768940 *  0.972950 *  -2.87073    1.000000    
--------------------------------------------------------------------------------



********************************************************************************
*  General input information                                                   *
********************************************************************************

  Species output for all configurations : 

--------------------------------------------------------------------------------
  Species    Type    Atomic    Atomic    Charge       Radii (Angs)     Library
                     Number     Mass       (e)     Cova   Ionic  VDW   Symbol
--------------------------------------------------------------------------------
    Ge       Core       32      72.61   4.000000   1.170  0.000  1.750 Ge       
    Si       Core       14      28.09   4.000000   1.200  0.000  2.100 Si       
    O1       Core        8      16.00   1.733957   0.730  0.000  0.000 O1       
    O2       Core        8      16.00   0.870733   0.730  0.000  1.360 O2       
    O3       Core        8      16.00   1.330431   0.730  0.000  1.360 O3       
    O1       Shell       8       0.00  -3.733957   0.730  0.000  0.000 O1       
    O2       Shell       8       0.00  -2.870733   0.730  0.000  0.000 O2       
    O3       Shell       8       0.00  -3.330431   0.730  0.000  0.000 O3       
--------------------------------------------------------------------------------


  Lattice summation method               =    Ewald          (3-D)
                                         =    Parry          (2-D)
                                         =    Saunders et al (1-D)
  Accuracy factor for lattice sums       =   12.000


  Analytic derivatives to be used

  Time limit = Infinity

  Maximum range for interatomic potentials =    100000.000000 Angstroms

  General interatomic potentials :

--------------------------------------------------------------------------------
Atom  Types   Potential      Parameter       Value         Units   Cutoffs(Ang)
  1     2                                                            Min /  Max 
--------------------------------------------------------------------------------
Si   c O1   s Buckingham    Buckingham A     1315.2478    eV        0.000 16.000
                            Buckingham rho  0.31775900    Ang       
                            Buckingham C     10.141118    eV*Ang^6  
--------------------------------------------------------------------------------
Si   c O2   s Buckingham    Buckingham A     1315.2478    eV        0.000 16.000
                            Buckingham rho  0.31775900    Ang       
                            Buckingham C     10.141118    eV*Ang^6  
--------------------------------------------------------------------------------
Si   c O3   s Buckingham    Buckingham A     1315.2478    eV        0.000 16.000
                            Buckingham rho  0.31775900    Ang       
                            Buckingham C     10.141118    eV*Ang^6  
--------------------------------------------------------------------------------
Ge   c O1   s Buckingham    Buckingham A     1497.3996    eV        0.000 16.000
                            Buckingham rho  0.32564600    Ang       
                            Buckingham C     16.808599    eV*Ang^6  
--------------------------------------------------------------------------------
Ge   c O2   s Buckingham    Buckingham A     1497.3996    eV        0.000 16.000
                            Buckingham rho  0.32564600    Ang       
                            Buckingham C     16.808599    eV*Ang^6  
--------------------------------------------------------------------------------
Ge   c O3   s Buckingham    Buckingham A     1497.3996    eV        0.000 16.000
                            Buckingham rho  0.32564600    Ang       
                            Buckingham C     16.808599    eV*Ang^6  
--------------------------------------------------------------------------------
O1   s O1   s Buckingham    Buckingham A     22764.000    eV        0.000 16.000
                            Buckingham rho  0.14900000    Ang       
                            Buckingham C     10.937044    eV*Ang^6  
--------------------------------------------------------------------------------
O1   s O2   s Buckingham    Buckingham A     22764.000    eV        0.000 16.000
                            Buckingham rho  0.14900000    Ang       
                            Buckingham C     10.937044    eV*Ang^6  
--------------------------------------------------------------------------------
O1   s O3   s Buckingham    Buckingham A     22764.000    eV        0.000 16.000
                            Buckingham rho  0.14900000    Ang       
                            Buckingham C     10.937044    eV*Ang^6  
--------------------------------------------------------------------------------
O2   s O2   s Buckingham    Buckingham A     22764.000    eV        0.000 16.000
                            Buckingham rho  0.14900000    Ang       
                            Buckingham C     10.937044    eV*Ang^6  
--------------------------------------------------------------------------------
O2   s O3   s Buckingham    Buckingham A     22764.000    eV        0.000 16.000
                            Buckingham rho  0.14900000    Ang       
                            Buckingham C     10.937044    eV*Ang^6  
--------------------------------------------------------------------------------
O3   s O3   s Buckingham    Buckingham A     22764.000    eV        0.000 16.000
                            Buckingham rho  0.14900000    Ang       
                            Buckingham C     10.937044    eV*Ang^6  
--------------------------------------------------------------------------------
O1   c O1   s Spring (c-s)  Spring k 2       180.31577    eV*Ang^-2 0.000  0.800
                            Spring k 4       0.0000000    eV*Ang^-4 
--------------------------------------------------------------------------------
O2   c O2   s Spring (c-s)  Spring k 2       75.969800    eV*Ang^-2 0.000  0.800
                            Spring k 4       0.0000000    eV*Ang^-4 
--------------------------------------------------------------------------------
O3   c O3   s Spring (c-s)  Spring k 2       128.14270    eV*Ang^-2 0.000  0.800
                            Spring k 4       0.0000000    eV*Ang^-4 
--------------------------------------------------------------------------------

  General Three-body potentials :

--------------------------------------------------------------------------------
  Atoms       Potential      Parameter       Value         Units   Cutoffs(Ang)
  1 / 2 / 3                                                          Min /  Max 
--------------------------------------------------------------------------------
Si    core    Harmonic      Three-body cnst  1.2614000    eV*rad^-2 0.000  1.900
O1    shel                  Three-body angl  109.47000    degrees   0.000  1.900
O1    shel                  Three-body k4    0.0000000    eV*rad^-4 0.000  3.500
                            Three-body k3    0.0000000    eV*rad^-3 
--------------------------------------------------------------------------------
Si    core    Harmonic      Three-body cnst  1.2614000    eV*rad^-2 0.000  1.900
O1    shel                  Three-body angl  109.47000    degrees   0.000  1.900
õ(1   shel                  Three-body k4    0.0000000    eV*rad^-4 0.000  3.500
                            Three-body k3    0.0000000    eV*rad^-3 
--------------------------------------------------------------------------------
Si    core    Harmonic      Three-body cnst  1.2614000    eV*rad^-2 0.000  1.900
õ(1   shel                  Three-body angl  109.47000    degrees   0.000  1.900
õ(1   shel                  Three-body k4    0.0000000    eV*rad^-4 0.000  3.500
                            Three-body k3    0.0000000    eV*rad^-3 
--------------------------------------------------------------------------------
Si    core    Harmonic      Three-body cnst  1.2614000    eV*rad^-2 0.000  1.900
O1    shel                  Three-body angl  109.47000    degrees   0.000  1.900
O2    shel                  Three-body k4    0.0000000    eV*rad^-4 0.000  3.500
                            Three-body k3    0.0000000    eV*rad^-3 
--------------------------------------------------------------------------------
Si    core    Harmonic      Three-body cnst  1.2614000    eV*rad^-2 0.000  1.900
O1    shel                  Three-body angl  109.47000    degrees   0.000  1.900
õ(2   shel                  Three-body k4    0.0000000    eV*rad^-4 0.000  3.500
                            Three-body k3    0.0000000    eV*rad^-3 
--------------------------------------------------------------------------------
Si    core    Harmonic      Three-body cnst  1.2614000    eV*rad^-2 0.000  1.900
O2    shel                  Three-body angl  109.47000    degrees   0.000  1.900
õ(1   shel                  Three-body k4    0.0000000    eV*rad^-4 0.000  3.500
                            Three-body k3    0.0000000    eV*rad^-3 
--------------------------------------------------------------------------------
Si    core    Harmonic      Three-body cnst  1.2614000    eV*rad^-2 0.000  1.900
õ(1   shel                  Three-body angl  109.47000    degrees   0.000  1.900
õ(2   shel                  Three-body k4    0.0000000    eV*rad^-4 0.000  3.500
                            Three-body k3    0.0000000    eV*rad^-3 
--------------------------------------------------------------------------------
Si    core    Harmonic      Three-body cnst  1.2614000    eV*rad^-2 0.000  1.900
O2    shel                  Three-body angl  109.47000    degrees   0.000  1.900
O2    shel                  Three-body k4    0.0000000    eV*rad^-4 0.000  3.500
                            Three-body k3    0.0000000    eV*rad^-3 
--------------------------------------------------------------------------------
Si    core    Harmonic      Three-body cnst  1.2614000    eV*rad^-2 0.000  1.900
O2    shel                  Three-body angl  109.47000    degrees   0.000  1.900
õ(2   shel                  Three-body k4    0.0000000    eV*rad^-4 0.000  3.500
                            Three-body k3    0.0000000    eV*rad^-3 
--------------------------------------------------------------------------------
Si    core    Harmonic      Three-body cnst  1.2614000    eV*rad^-2 0.000  1.900
õ(2   shel                  Three-body angl  109.47000    degrees   0.000  1.900
õ(2   shel                  Three-body k4    0.0000000    eV*rad^-4 0.000  3.500
                            Three-body k3    0.0000000    eV*rad^-3 
--------------------------------------------------------------------------------

********************************************************************************
*  Output for configuration   1 : c00090.vasp                                  *
********************************************************************************


  Components of energy : 

--------------------------------------------------------------------------------
  Interatomic potentials     =         760.30861002 eV    
  Three-body potentials      =           0.01448223 eV    
  Monopole - monopole (real) =       -2676.00317478 eV    
  Monopole - monopole (recip)=       -1115.35404472 eV    
  Monopole - monopole (total)=       -3791.35721950 eV    
--------------------------------------------------------------------------------
  Total lattice energy       =       -3031.03412725 eV    
--------------------------------------------------------------------------------
  Total lattice energy       =         -292448.4597 kJ/(mole unit cells)
--------------------------------------------------------------------------------


  Number of variables =      363

  Maximum number of calculations  =          1000
  Maximum Hessian update interval =            10
  Maximum step size               =   0.100000000
  Maximum parameter tolerance     =   0.000010000
  Maximum function  tolerance     =   0.000010000
  Maximum gradient  tolerance     =   0.001000000
  Maximum gradient  component     =   0.010000000

  Symmetry not applied to optimisation

  Cell parameters to be optimised using strains

  Newton-Raphson optimiser to be used

  BFGS hessian update to be used

  Lower half triangular hessian to be used

  Minimiser to switch to RFO
  When gradient norm is less than     0.050000

  Dumpfile to be written after every cycle

  Start of bulk optimisation :

  Cycle:      0 Energy:     -3031.034127  Gnorm:      4.405050  CPU:    0.122
  ** Hessian calculated **
  Cycle:      1 Energy:     -3044.618907  Gnorm:      3.515479  CPU:    0.329
  ** Hessian calculated **
  Cycle:      2 Energy:     -3063.800841  Gnorm:      0.786140  CPU:    0.543
  ** Hessian calculated **
  Cycle:      3 Energy:     -3065.766513  Gnorm:      0.576908  CPU:    0.771
  Cycle:      4 Energy:     -3067.123467  Gnorm:      0.324401  CPU:    0.880
  ** Hessian calculated **
  Cycle:      5 Energy:     -3067.401267  Gnorm:      0.185189  CPU:    1.087
  Cycle:      6 Energy:     -3067.496949  Gnorm:      0.126289  CPU:    1.197
  Cycle:      7 Energy:     -3067.585033  Gnorm:      0.100428  CPU:    1.326
  Cycle:      8 Energy:     -3067.667273  Gnorm:      0.079802  CPU:    1.455
  Cycle:      9 Energy:     -3067.716500  Gnorm:      0.064448  CPU:    1.564
  Cycle:     10 Energy:     -3067.745938  Gnorm:      0.048458  CPU:    1.674
  ** Hessian has required structure
  Cycle:     11 Energy:     -3067.753451  Gnorm:      0.062951  CPU:    1.828
  ** Hessian has required structure
  Cycle:     12 Energy:     -3067.762113  Gnorm:      0.058667  CPU:    1.983
  ** Hessian has required structure
  Cycle:     13 Energy:     -3067.769641  Gnorm:      0.065957  CPU:    2.137
  ** Hessian has required structure
  Cycle:     14 Energy:     -3067.774274  Gnorm:      0.063436  CPU:    2.290
  ** Hessian has wrong structure
  ** Imaginary eigenvectors =   2
  Cycle:     15 Energy:     -3067.794222  Gnorm:      0.063558  CPU:    2.792
  ** Hessian has wrong structure
  ** Imaginary eigenvectors =   2
  Cycle:     16 Energy:     -3067.833344  Gnorm:      0.069776  CPU:    3.235
  ** Hessian has required structure
  Cycle:     17 Energy:     -3067.968610  Gnorm:      0.057222  CPU:    3.505
  ** Hessian has required structure
  Cycle:     18 Energy:     -3068.095710  Gnorm:      0.038485  CPU:    3.655
  ** Hessian has required structure
  Cycle:     19 Energy:     -3068.140612  Gnorm:      0.036670  CPU:    3.804
  ** Hessian has required structure
  Cycle:     20 Energy:     -3068.173072  Gnorm:      0.021704  CPU:    3.954
  ** Hessian has required structure
  Cycle:     21 Energy:     -3068.189447  Gnorm:      0.016726  CPU:    4.121
  ** Hessian has required structure
  Cycle:     22 Energy:     -3068.200640  Gnorm:      0.015958  CPU:    4.272
  ** Hessian has required structure
  Cycle:     23 Energy:     -3068.209889  Gnorm:      0.013402  CPU:    4.421
  ** Hessian has required structure
  Cycle:     24 Energy:     -3068.216319  Gnorm:      0.009357  CPU:    4.569
  ** Hessian has required structure
  Cycle:     25 Energy:     -3068.220470  Gnorm:      0.011956  CPU:    4.717
  ** Hessian has required structure
  Cycle:     26 Energy:     -3068.223828  Gnorm:      0.013131  CPU:    4.867
  ** Hessian has wrong structure
  ** Imaginary eigenvectors =   2
  Cycle:     27 Energy:     -3068.238943  Gnorm:      0.023479  CPU:    5.254
  ** Hessian has required structure
  Cycle:     28 Energy:     -3068.263389  Gnorm:      0.028878  CPU:    5.501
  ** Hessian has required structure
  Cycle:     29 Energy:     -3068.282212  Gnorm:      0.028257  CPU:    5.650
  ** Hessian has required structure
  Cycle:     30 Energy:     -3068.297148  Gnorm:      0.020331  CPU:    5.798
  ** Hessian has required structure
  Cycle:     31 Energy:     -3068.304921  Gnorm:      0.008714  CPU:    5.929
  ** Hessian has required structure
  Cycle:     32 Energy:     -3068.310190  Gnorm:      0.008943  CPU:    6.076
  ** Hessian has required structure
  Cycle:     33 Energy:     -3068.312624  Gnorm:      0.008843  CPU:    6.223
  ** Hessian has required structure
  Cycle:     34 Energy:     -3068.314830  Gnorm:      0.009689  CPU:    6.388
  ** Hessian has required structure
  Cycle:     35 Energy:     -3068.316255  Gnorm:      0.008594  CPU:    6.535
  ** Hessian has required structure
  Cycle:     36 Energy:     -3068.317699  Gnorm:      0.007225  CPU:    6.701
  ** Hessian has required structure
  Cycle:     37 Energy:     -3068.319190  Gnorm:      0.006268  CPU:    6.866
  ** Hessian has required structure
  Cycle:     38 Energy:     -3068.321496  Gnorm:      0.004866  CPU:    7.113
  ** Hessian has required structure
  Cycle:     39 Energy:     -3068.322967  Gnorm:      0.004570  CPU:    7.281
  ** Hessian has required structure
  Cycle:     40 Energy:     -3068.323809  Gnorm:      0.002173  CPU:    7.449
  ** Hessian has required structure
  Cycle:     41 Energy:     -3068.324135  Gnorm:      0.003214  CPU:    7.600
  ** Hessian has required structure
  Cycle:     42 Energy:     -3068.324449  Gnorm:      0.002149  CPU:    7.768
  ** Hessian has required structure
  Cycle:     43 Energy:     -3068.324615  Gnorm:      0.001616  CPU:    7.935
  ** Hessian has required structure
  Cycle:     44 Energy:     -3068.324758  Gnorm:      0.001094  CPU:    8.103
  ** Hessian has required structure
  Cycle:     45 Energy:     -3068.324851  Gnorm:      0.000841  CPU:    8.271
  ** Hessian has required structure
  Cycle:     46 Energy:     -3068.324899  Gnorm:      0.000500  CPU:    8.421
  ** Hessian has required structure
  Cycle:     47 Energy:     -3068.324925  Gnorm:      0.000476  CPU:    8.572
  ** Hessian has required structure
  Cycle:     48 Energy:     -3068.324936  Gnorm:      0.000243  CPU:    8.821
  ** Hessian has required structure
  Cycle:     49 Energy:     -3068.324939  Gnorm:      0.000183  CPU:    8.954
  ** Hessian has required structure
  Cycle:     50 Energy:     -3068.324940  Gnorm:      0.000135  CPU:    9.086
  ** Hessian has required structure
  Cycle:     51 Energy:     -3068.324942  Gnorm:      0.000098  CPU:    9.218
  ** Hessian has required structure
  Cycle:     52 Energy:     -3068.324942  Gnorm:      0.000070  CPU:    9.350
  ** Hessian has required structure


  **** Optimisation achieved ****


  Final energy =   -3068.32494310 eV      
  Final Gnorm  =       0.00004936

  Components of energy : 

--------------------------------------------------------------------------------
  Interatomic potentials     =         815.55207676 eV    
  Three-body potentials      =           0.19015929 eV    
  Monopole - monopole (real) =       -2208.06903601 eV    
  Monopole - monopole (recip)=       -1675.99814315 eV    
  Monopole - monopole (total)=       -3884.06717916 eV    
--------------------------------------------------------------------------------
  Total lattice energy       =       -3068.32494310 eV    
--------------------------------------------------------------------------------
  Total lattice energy       =         -296046.4534 kJ/(mole unit cells)
--------------------------------------------------------------------------------

  Final fractional coordinates of atoms :

--------------------------------------------------------------------------------
   No.  Atomic        x           y          z          Radius
        Label       (Frac)      (Frac)     (Frac)       (Angs) 
--------------------------------------------------------------------------------
     1  Ge    c     0.052090    0.000000    0.372270    0.000000
     2  Ge    c     0.841729    0.320982    0.714297    0.000000
     3  Ge    c     0.825530    0.712429    0.036340    0.000000
     4  Si    c     0.452444    0.994550    0.360272    0.000000
     5  Si    c     0.945954    0.017350    0.626589    0.000000
     6  Si    c     0.542726    0.999031    0.629652    0.000000
     7  Si    c     0.551547    0.984556    0.106649    0.000000
     8  Si    c     0.939363    0.999317    0.118406    0.000000
     9  Si    c     0.433191    0.000367    0.871475    0.000000
    10  Si    c     0.047059    0.996201    0.880522    0.000000
    11  Si    c     0.159020    0.305950    0.292237    0.000000
    12  Si    c     0.347171    0.689727    0.272073    0.000000
    13  Si    c     0.649491    0.693084    0.722825    0.000000
    14  Si    c     0.826848    0.734782    0.728314    0.000000
    15  Si    c     0.659721    0.292142    0.710374    0.000000
    16  Si    c     0.167230    0.711261    0.285422    0.000000
    17  Si    c     0.338364    0.286579    0.275950    0.000000
    18  Si    c     0.663756    0.275827    0.015658    0.000000
    19  Si    c     0.326629    0.287524    0.972731    0.000000
    20  Si    c     0.157104    0.707221    0.984131    0.000000
    21  Si    c     0.337597    0.687420    0.969972    0.000000
    22  Si    c     0.146802    0.303965    0.990523    0.000000
    23  Si    c     0.645209    0.668111    0.028795    0.000000
    24  Si    c     0.844164    0.309389    0.021140    0.000000
    25  O3    c     0.104596    0.193822    0.385703    0.000000
    26  O2    c     0.405846    0.810531    0.353684    0.000000
    27  O3    c     0.908896    0.209670    0.624246    0.000000
    28  O2    c     0.588614    0.817636    0.649036    0.000000
    29  O2    c     0.875596    0.879722    0.648877    0.000000
    30  O2    c     0.602377    0.162598    0.633398    0.000000
    31  O3    c     0.119031    0.831595    0.378477    0.000000
    32  O2    c     0.392104    0.155338    0.358668    0.000000
    33  O3    c     0.983797    0.976855    0.489928    0.000000
    34  O2    c     0.502210    0.998103    0.490527    0.000000
    35  O3    c     0.005021    0.994415    0.225314    0.000000
    36  O2    c     0.511452    0.016153    0.242337    0.000000
    37  O2    c     0.014722    0.999833    0.734173    0.000000
    38  O2    c     0.475672    0.018419    0.735340    0.000000
    39  O2    c     0.624021    0.119325    0.096421    0.000000
    40  O3    c     0.874978    0.849013    0.140080    0.000000
    41  O2    c     0.369660    0.153971    0.879633    0.000000
    42  O2    c     0.108777    0.838517    0.892272    0.000000
    43  O2    c     0.390310    0.811080    0.878767    0.000000
    44  O2    c     0.087380    0.184327    0.909061    0.000000
    45  O2    c     0.581661    0.784489    0.101683    0.000000
    46  O2    c     0.896928    0.187718    0.115041    0.000000
    47  O2    c     0.493842    0.026703    0.988113    0.000000
    48  O2    c     0.976844    0.957585    0.978096    0.000000
    49  O2    c     0.143288    0.510193    0.314102    0.000000
    50  O2    c     0.365333    0.486305    0.302622    0.000000
    51  O3    c     0.861268    0.543191    0.705934    0.000000
    52  O2    c     0.629342    0.491236    0.690291    0.000000
    53  O2    c     0.249363    0.260911    0.320293    0.000000
    54  O2    c     0.259331    0.735799    0.311159    0.000000
    55  O3    c     0.747440    0.279899    0.660980    0.000000
    56  O2    c     0.737073    0.737236    0.676477    0.000000
    57  O2    c     0.138170    0.256063    0.142788    0.000000
    58  O2    c     0.358897    0.730699    0.119244    0.000000
    59  O3    c     0.854340    0.251336    0.873328    0.000000
    60  O2    c     0.644657    0.723705    0.876887    0.000000
    61  O3    c     0.827567    0.787162    0.877948    0.000000
    62  O2    c     0.659448    0.237267    0.862457    0.000000
    63  O2    c     0.147819    0.760490    0.134558    0.000000
    64  O2    c     0.345081    0.242880    0.123457    0.000000
    65  O2    c     0.622639    0.461883    0.045044    0.000000
    66  O3    c     0.868738    0.508610    0.042222    0.000000
    67  O2    c     0.355549    0.485077    0.939326    0.000000
    68  O2    c     0.126337    0.508082    0.964006    0.000000
    69  O2    c     0.753444    0.287432    0.060101    0.000000
    70  O3    c     0.730237    0.701194    0.087408    0.000000
    71  O2    c     0.234595    0.268215    0.945463    0.000000
    72  O2    c     0.246846    0.724193    0.943013    0.000000
    73  O3    s     0.106027    0.189971    0.374989    0.000000
    74  O2    s     0.404259    0.816820    0.345173    0.000000
    75  O3    s     0.907055    0.199949    0.631751    0.000000
    76  O2    s     0.590475    0.823492    0.655309    0.000000
    77  O2    s     0.877785    0.878507    0.655323    0.000000
    78  O2    s     0.602328    0.159207    0.641650    0.000000
    79  O3    s     0.118741    0.832383    0.368108    0.000000
    80  O2    s     0.392551    0.152761    0.349470    0.000000
    81  O3    s     0.985936    0.983166    0.493785    0.000000
    82  O2    s     0.501046    0.997785    0.491459    0.000000
    83  O3    s     0.001728    0.995461    0.226213    0.000000
    84  O2    s     0.509407    0.009935    0.239771    0.000000
    85  O2    s     0.011038    0.001306    0.739126    0.000000
    86  O2    s     0.478267    0.014135    0.739359    0.000000
    87  O2    s     0.620679    0.122314    0.088354    0.000000
    88  O3    s     0.877218    0.852408    0.129349    0.000000
    89  O2    s     0.371679    0.152384    0.889286    0.000000
    90  O2    s     0.107553    0.840783    0.901359    0.000000
    91  O2    s     0.389033    0.817478    0.888124    0.000000
    92  O2    s     0.089727    0.177740    0.915186    0.000000
    93  O2    s     0.585331    0.793029    0.094320    0.000000
    94  O2    s     0.895737    0.181059    0.105317    0.000000
    95  O2    s     0.493513    0.018947    0.988306    0.000000
    96  O2    s     0.980708    0.965958    0.981679    0.000000
    97  O2    s     0.147635    0.509365    0.308560    0.000000
    98  O2    s     0.360465    0.486923    0.296458    0.000000
    99  O3    s     0.856267    0.544168    0.708797    0.000000
   100  O2    s     0.634682    0.491946    0.695888    0.000000
   101  O2    s     0.249358    0.268498    0.312501    0.000000
   102  O2    s     0.258936    0.728137    0.304130    0.000000
   103  O3    s     0.746221    0.284367    0.670096    0.000000
   104  O2    s     0.736959    0.732287    0.686632    0.000000
   105  O2    s     0.141203    0.266112    0.141907    0.000000
   106  O2    s     0.355407    0.721864    0.119567    0.000000
   107  O3    s     0.852341    0.262606    0.875082    0.000000
   108  O2    s     0.645236    0.714530    0.876360    0.000000
   109  O3    s     0.827321    0.775747    0.875947    0.000000
   110  O2    s     0.659940    0.247232    0.862923    0.000000
   111  O2    s     0.150765    0.749956    0.134165    0.000000
   112  O2    s     0.342392    0.252231    0.123557    0.000000
   113  O2    s     0.629161    0.463973    0.040333    0.000000
   114  O3    s     0.862760    0.504619    0.039609    0.000000
   115  O2    s     0.350543    0.485906    0.946175    0.000000
   116  O2    s     0.131724    0.507475    0.968928    0.000000
   117  O2    s     0.753073    0.288563    0.051140    0.000000
   118  O3    s     0.729351    0.698747    0.077343    0.000000
   119  O2    s     0.235066    0.274263    0.953351    0.000000
   120  O2    s     0.246962    0.718221    0.950504    0.000000
--------------------------------------------------------------------------------

  Final Cartesian lattice vectors (Angstroms) :

       17.164212   -0.071664   -0.087555
       -0.031915    7.620027    0.046175
       -0.057653    0.070350   10.281709


  Final cell parameters and derivatives :

--------------------------------------------------------------------------------
       a           17.164585 Angstrom     dE/de1(xx)    -0.000660 eV/strain
       b            7.620233 Angstrom     dE/de2(yy)    -0.002388 eV/strain
       c           10.282111 Angstrom     dE/de3(zz)     0.003293 eV/strain
       alpha       89.259458 Degrees      dE/de4(yz)     0.000233 eV/strain
       beta        90.615157 Degrees      dE/de5(xz)    -0.000112 eV/strain
       gamma       90.480945 Degrees      dE/de6(xy)    -0.000231 eV/strain
--------------------------------------------------------------------------------

  Primitive cell volume =          1344.645383 Angs**3

  Density of cell =      1.945930 g/cm**3

  Non-primitive cell volume =          1344.645383 Angs**3


  Final internal derivatives :

--------------------------------------------------------------------------------
   No.  Atomic          a             b             c           Radius
        Label          (eV)          (eV)          (eV)        (eV/Angs)
--------------------------------------------------------------------------------
      1 Ge    c       0.000000      0.000000      0.000000      0.000000
      2 Ge    c      -0.000164     -0.000121     -0.000034      0.000000
      3 Ge    c      -0.000066      0.000172      0.000772      0.000000
      4 Si    c      -0.007055     -0.000271     -0.002388      0.000000
      5 Si    c      -0.000318     -0.000045      0.000066      0.000000
      6 Si    c       0.005761     -0.000108      0.000409      0.000000
      7 Si    c       0.003845     -0.000650     -0.001101      0.000000
      8 Si    c       0.001088      0.000077      0.001980      0.000000
      9 Si    c      -0.004018     -0.000805     -0.001082      0.000000
     10 Si    c       0.000410     -0.000069      0.000425      0.000000
     11 Si    c       0.000181      0.000219      0.000181      0.000000
     12 Si    c       0.000467     -0.000411      0.000276      0.000000
     13 Si    c      -0.000275     -0.000192     -0.000118      0.000000
     14 Si    c      -0.000221      0.000091     -0.000181      0.000000
     15 Si    c      -0.000430      0.000231     -0.000073      0.000000
     16 Si    c       0.000324     -0.000229      0.000717      0.000000
     17 Si    c      -0.000051      0.000422      0.000731      0.000000
     18 Si    c      -0.000507      0.000261      0.000288      0.000000
     19 Si    c       0.000096      0.000335     -0.000698      0.000000
     20 Si    c       0.000393     -0.000229     -0.000379      0.000000
     21 Si    c       0.000589     -0.000183     -0.000208      0.000000
     22 Si    c      -0.000026      0.000295     -0.000077      0.000000
     23 Si    c      -0.000453     -0.000316      0.000098      0.000000
     24 Si    c      -0.000350     -0.000225      0.000242      0.000000
     25 O3    c      -0.001738     -0.001105     -0.000449      0.000000
     26 O2    c       0.001091      0.000573      0.000177      0.000000
     27 O3    c       0.000106     -0.000122      0.000046      0.000000
     28 O2    c      -0.000245     -0.000287     -0.000018      0.000000
     29 O2    c       0.000397      0.000116     -0.000078      0.000000
     30 O2    c      -0.000177      0.000132     -0.000175      0.000000
     31 O3    c      -0.001440      0.000954     -0.000684      0.000000
     32 O2    c       0.000876     -0.000228      0.000083      0.000000
     33 O3    c       0.001104      0.000034     -0.000480      0.000000
     34 O2    c       0.002237      0.000052      0.001540      0.000000
     35 O3    c      -0.004394     -0.000584      0.000051      0.000000
     36 O2    c       0.002147      0.000650      0.002751      0.000000
     37 O2    c      -0.000519      0.000000     -0.000118      0.000000
     38 O2    c      -0.005850      0.000649      0.001637      0.000000
     39 O2    c      -0.000050      0.000247      0.000096      0.000000
     40 O3    c       0.001933      0.001465     -0.001429      0.000000
     41 O2    c       0.000137      0.000112      0.000249      0.000000
     42 O2    c      -0.000982      0.000625      0.000118      0.000000
     43 O2    c       0.001372      0.000739      0.000226      0.000000
     44 O2    c      -0.000516     -0.000577     -0.000156      0.000000
     45 O2    c      -0.000072     -0.000529      0.000003      0.000000
     46 O2    c       0.001483     -0.001057     -0.000401      0.000000
     47 O2    c       0.000107      0.001122      0.000903      0.000000
     48 O2    c       0.001462      0.000234     -0.000470      0.000000
     49 O2    c       0.000532      0.000148     -0.000203      0.000000
     50 O2    c      -0.000318     -0.000090     -0.000192      0.000000
     51 O3    c       0.000379     -0.000145     -0.000287      0.000000
     52 O2    c      -0.000129      0.000102     -0.000025      0.000000
     53 O2    c       0.000267      0.000117     -0.000213      0.000000
     54 O2    c      -0.000626     -0.000137     -0.000177      0.000000
     55 O3    c       0.000299     -0.000032     -0.000047      0.000000
     56 O2    c      -0.000622     -0.000044     -0.000040      0.000000
     57 O2    c      -0.000073      0.000059     -0.000035      0.000000
     58 O2    c       0.000075     -0.000119     -0.000060      0.000000
     59 O3    c       0.000276      0.000055     -0.000210      0.000000
     60 O2    c       0.000042     -0.000074      0.000111      0.000000
     61 O3    c       0.000007      0.000126      0.000113      0.000000
     62 O2    c       0.000146      0.000081      0.000012      0.000000
     63 O2    c       0.000122     -0.000061     -0.000082      0.000000
     64 O2    c      -0.000236      0.000145     -0.000102      0.000000
     65 O2    c       0.000019     -0.000051     -0.000022      0.000000
     66 O3    c       0.000245      0.000161      0.000201      0.000000
     67 O2    c      -0.000234     -0.000016      0.000163      0.000000
     68 O2    c       0.000423     -0.000009      0.000108      0.000000
     69 O2    c       0.000410      0.000051      0.000004      0.000000
     70 O3    c       0.000372     -0.000025     -0.000075      0.000000
     71 O2    c       0.000422      0.000072      0.000141      0.000000
     72 O2    c      -0.000192     -0.000067      0.000189      0.000000
     73 O3    s       0.000186     -0.000088     -0.000045      0.000000
     74 O2    s      -0.002163     -0.000175     -0.000461      0.000000
     75 O3    s       0.000199     -0.000125     -0.000046      0.000000
     76 O2    s       0.002256     -0.000317     -0.000058      0.000000
     77 O2    s       0.000256      0.000165     -0.000028      0.000000
     78 O2    s       0.002431      0.000115      0.000280      0.000000
     79 O3    s       0.000187      0.000029     -0.000334      0.000000
     80 O2    s      -0.002769      0.000161     -0.000379      0.000000
     81 O3    s       0.000366      0.000115     -0.000088      0.000000
     82 O2    s      -0.001076     -0.000065     -0.000902      0.000000
     83 O3    s       0.000993      0.000101     -0.000015      0.000000
     84 O2    s      -0.000428      0.000021      0.000001      0.000000
     85 O2    s       0.000331     -0.000072      0.000272      0.000000
     86 O2    s       0.000334     -0.000322     -0.000684      0.000000
     87 O2    s       0.002324     -0.000010     -0.000281      0.000000
     88 O3    s       0.000631      0.000353      0.000239      0.000000
     89 O2    s      -0.001844     -0.000075      0.000458      0.000000
     90 O2    s      -0.000378      0.000094      0.000168      0.000000
     91 O2    s      -0.001795     -0.000241     -0.000273      0.000000
     92 O2    s      -0.000149     -0.000327      0.000032      0.000000
     93 O2    s       0.002267     -0.000272     -0.000262      0.000000
     94 O2    s       0.000520     -0.000817      0.000402      0.000000
     95 O2    s      -0.001870      0.000110     -0.000774      0.000000
     96 O2    s      -0.000479     -0.000003      0.000804      0.000000
     97 O2    s      -0.000239      0.000153      0.000104      0.000000
     98 O2    s      -0.000318     -0.000121      0.000028      0.000000
     99 O3    s       0.000180     -0.000048     -0.000024      0.000000
    100 O2    s       0.000331      0.000063      0.000015      0.000000
    101 O2    s       0.000098     -0.000046      0.000047      0.000000
    102 O2    s      -0.000378      0.000030      0.000047      0.000000
    103 O3    s       0.000026     -0.000072     -0.000055      0.000000
    104 O2    s      -0.000021      0.000159     -0.000123      0.000000
    105 O2    s       0.000296     -0.000089      0.000042      0.000000
    106 O2    s      -0.000296      0.000336      0.000149      0.000000
    107 O3    s      -0.000079     -0.000199      0.000037      0.000000
    108 O2    s      -0.000027      0.000360     -0.000106      0.000000
    109 O3    s       0.000351      0.000175      0.000225      0.000000
    110 O2    s      -0.000460     -0.000343     -0.000069      0.000000
    111 O2    s      -0.000211      0.000134      0.000210      0.000000
    112 O2    s       0.000765     -0.000511     -0.000009      0.000000
    113 O2    s       0.000198      0.000076     -0.000049      0.000000
    114 O3    s       0.000187     -0.000001      0.000095      0.000000
    115 O2    s      -0.000423     -0.000166     -0.000016      0.000000
    116 O2    s       0.000013      0.000118     -0.000045      0.000000
    117 O2    s      -0.000023     -0.000112      0.000041      0.000000
    118 O3    s       0.000033      0.000024      0.000162      0.000000
    119 O2    s       0.000099     -0.000026      0.000076      0.000000
    120 O2    s      -0.000296      0.000029     -0.000039      0.000000
--------------------------------------------------------------------------------
  Maximum abs         0.007055      0.001465      0.002751      0.000000
--------------------------------------------------------------------------------


  Born effective charge tensors : 

-------------------------------------------------------------------------------
  Atom             x           y             z
-------------------------------------------------------------------------------
    1 Ge    x       4.2500      0.0983     -0.0562
            y      -0.1020      3.8858      0.0195
            z      -0.8667     -0.0955      4.4656
-------------------------------------------------------------------------------
    2 Ge    x       3.9897     -0.3018     -0.0507
            y      -0.3623      4.1759      0.2887
            z      -0.1613      0.0240      3.4004
-------------------------------------------------------------------------------
    3 Ge    x       4.0450      0.4520      0.1683
            y       0.1243      4.1324      0.2933
            z       0.2214      0.0249      3.2808
-------------------------------------------------------------------------------
    4 Si    x       3.4032      0.0664      0.1693
            y      -0.0895      3.2532      0.0445
            z       0.4775      0.0026      3.8181
-------------------------------------------------------------------------------
    5 Si    x       3.7373     -0.4018     -0.4296
            y      -0.0399      3.5012      0.0240
            z      -0.4945      0.2902      4.2465
-------------------------------------------------------------------------------
    6 Si    x       3.4292     -0.0760      0.2419
            y       0.0782      3.2463     -0.0378
            z       0.3369      0.0358      3.8539
-------------------------------------------------------------------------------
    7 Si    x       3.4567     -0.2080     -0.2133
            y       0.2029      3.2384     -0.0064
            z      -0.4678      0.0900      3.1000
-------------------------------------------------------------------------------
    8 Si    x       4.0363      0.0606      0.2013
            y       0.2834      3.4155     -0.0791
            z       0.8126      0.0083      3.2342
-------------------------------------------------------------------------------
    9 Si    x       3.4825      0.1234     -0.2325
            y      -0.1181      3.2657      0.0126
            z      -0.4933     -0.0350      3.1377
-------------------------------------------------------------------------------
   10 Si    x       3.5100      0.0816      0.3446
            y      -0.1341      3.2889      0.0476
            z       0.3901     -0.0175      3.1129
-------------------------------------------------------------------------------
   11 Si    x       3.3807      0.3574     -0.2720
            y       0.3861      3.5181     -0.3410
            z      -0.2468     -0.1737      3.0157
-------------------------------------------------------------------------------
   12 Si    x       3.1546      0.2160      0.0788
            y       0.2746      3.4280      0.1578
            z       0.0983      0.0871      2.8124
-------------------------------------------------------------------------------
   13 Si    x       3.1848     -0.2524      0.0395
            y      -0.2581      3.4288     -0.1503
            z       0.1722     -0.0814      2.8122
-------------------------------------------------------------------------------
   14 Si    x       3.3834      0.2874     -0.0728
            y       0.0321      3.8239     -0.0006
            z      -0.1813      0.0885      3.1157
-------------------------------------------------------------------------------
   15 Si    x       3.5513      0.2872     -0.0281
            y       0.1677      3.5234      0.1884
            z       0.0719      0.0830      2.8867
-------------------------------------------------------------------------------
   16 Si    x       3.3504     -0.4119     -0.2966
            y      -0.3280      3.5844      0.3602
            z      -0.2217      0.1998      3.0158
-------------------------------------------------------------------------------
   17 Si    x       3.1559     -0.2776      0.1091
            y      -0.2181      3.4593     -0.1515
            z       0.1108     -0.0706      2.8083
-------------------------------------------------------------------------------
   18 Si    x       3.1838      0.4138     -0.1167
            y       0.0582      3.4376     -0.1500
            z      -0.1358     -0.0785      2.7245
-------------------------------------------------------------------------------
   19 Si    x       3.2243     -0.2997     -0.1996
            y      -0.1330      3.4497      0.1885
            z      -0.1130      0.0934      2.7500
-------------------------------------------------------------------------------
   20 Si    x       3.2512     -0.2913      0.1851
            y      -0.1435      3.4628     -0.2107
            z       0.1263     -0.0591      2.7125
-------------------------------------------------------------------------------
   21 Si    x       3.2521      0.2563     -0.1633
            y       0.2488      3.4182     -0.1764
            z      -0.1204     -0.0711      2.7230
-------------------------------------------------------------------------------
   22 Si    x       3.2935      0.2537      0.1370
            y       0.2619      3.4381      0.1887
            z       0.1719      0.0678      2.7099
-------------------------------------------------------------------------------
   23 Si    x       3.5774     -0.2467      0.0554
            y      -0.2394      3.5074      0.2167
            z      -0.1094      0.0689      2.7955
-------------------------------------------------------------------------------
   24 Si    x       3.4486     -0.2587      0.1192
            y      -0.1334      3.7873     -0.0351
            z       0.1698      0.1295      3.0085
-------------------------------------------------------------------------------
   25 O3    x      -2.0006     -0.9270      0.4603
            y      -0.9028     -2.3116      0.4650
            z       0.5576      0.4656     -1.6562
-------------------------------------------------------------------------------
   26 O2    x      -1.6494     -0.7046     -0.3137
            y      -0.6855     -2.0005     -0.3418
            z      -0.3559     -0.3356     -1.3501
-------------------------------------------------------------------------------
   27 O3    x      -1.9605      0.9000      0.3737
            y       0.8599     -2.5103     -0.3453
            z       0.4055     -0.3283     -1.5285
-------------------------------------------------------------------------------
   28 O2    x      -1.6890      0.7376     -0.3260
            y       0.7077     -2.0163      0.3520
            z      -0.3685      0.3489     -1.3319
-------------------------------------------------------------------------------
   29 O2    x      -1.8431     -0.6685      0.3301
            y      -0.7047     -1.8628      0.3178
            z       0.3701      0.2912     -1.3469
-------------------------------------------------------------------------------
   30 O2    x      -1.7291     -0.7239     -0.3064
            y      -0.7457     -1.9706     -0.3103
            z      -0.3505     -0.3270     -1.3425
-------------------------------------------------------------------------------
   31 O3    x      -2.0640      0.9419      0.4698
            y       0.9842     -2.3129     -0.5386
            z       0.5545     -0.4974     -1.6495
-------------------------------------------------------------------------------
   32 O2    x      -1.7291      0.7296     -0.3061
            y       0.7561     -1.9618      0.3123
            z      -0.3505      0.3094     -1.3367
-------------------------------------------------------------------------------
   33 O3    x      -2.0026      0.0758      1.0724
            y       0.0281     -1.2145     -0.0939
            z       1.3900     -0.1667     -3.3511
-------------------------------------------------------------------------------
   34 O2    x      -1.5645     -0.0114     -0.8265
            y      -0.0101     -1.0889     -0.0205
            z      -0.9888     -0.0321     -2.8495
-------------------------------------------------------------------------------
   35 O3    x      -2.2063      0.0278     -1.0396
            y       0.0107     -1.2345      0.0168
            z      -1.0238      0.0267     -2.6294
-------------------------------------------------------------------------------
   36 O2    x      -1.6632      0.0487      0.7262
            y      -0.0022     -1.1278     -0.0413
            z       0.6878     -0.0716     -2.2442
-------------------------------------------------------------------------------
   37 O2    x      -1.7279      0.0312     -0.6985
            y       0.0229     -1.1154      0.0205
            z      -0.6533      0.0292     -2.2505
-------------------------------------------------------------------------------
   38 O2    x      -1.7600      0.0034      0.7279
            y       0.0204     -1.1089     -0.0011
            z       0.7646      0.0043     -2.2096
-------------------------------------------------------------------------------
   39 O2    x      -1.7735     -0.7187      0.3138
            y      -0.6787     -1.9365      0.3494
            z       0.3376      0.3320     -1.2181
-------------------------------------------------------------------------------
   40 O3    x      -2.1594     -0.9620     -0.2428
            y      -0.9282     -2.2811     -0.3033
            z      -0.3290     -0.2728     -1.4112
-------------------------------------------------------------------------------
   41 O2    x      -1.7267      0.7097      0.3670
            y       0.6906     -1.9422     -0.4000
            z       0.3557     -0.3577     -1.2851
-------------------------------------------------------------------------------
   42 O2    x      -1.7730      0.7395     -0.4010
            y       0.7087     -1.9507      0.3869
            z      -0.3536      0.3446     -1.2582
-------------------------------------------------------------------------------
   43 O2    x      -1.6377     -0.6953      0.3473
            y      -0.6192     -2.0197      0.3692
            z       0.3562      0.3544     -1.2684
-------------------------------------------------------------------------------
   44 O2    x      -1.7202     -0.7209     -0.4102
            y      -0.6444     -2.0325     -0.4331
            z      -0.3869     -0.3885     -1.2579
-------------------------------------------------------------------------------
   45 O2    x      -1.6448      0.6902      0.3021
            y       0.5635     -2.0569     -0.3063
            z       0.3466     -0.3142     -1.2016
-------------------------------------------------------------------------------
   46 O2    x      -1.6956      0.6568     -0.2823
            y       0.5784     -1.9300      0.3032
            z      -0.3433      0.2696     -1.2437
-------------------------------------------------------------------------------
   47 O2    x      -1.8354      0.0353     -0.6212
            y       0.0077     -1.1720      0.0307
            z      -0.3676      0.0240     -1.6951
-------------------------------------------------------------------------------
   48 O2    x      -1.8408     -0.0190      0.5560
            y      -0.0179     -1.2115     -0.0366
            z       0.2939     -0.0487     -1.6787
-------------------------------------------------------------------------------
   49 O2    x      -1.1724     -0.0328      0.0752
            y      -0.0570     -2.4601      0.0235
            z       0.0827      0.0081     -1.0914
-------------------------------------------------------------------------------
   50 O2    x      -1.1508     -0.0389     -0.0587
            y      -0.0665     -2.5514      0.0093
            z      -0.0721      0.0083     -1.0636
-------------------------------------------------------------------------------
   51 O3    x      -1.3933      0.1726      0.0596
            y       0.2332     -3.1930     -0.1151
            z       0.0955     -0.0672     -1.1597
-------------------------------------------------------------------------------
   52 O2    x      -1.1613      0.0256     -0.0459
            y       0.0639     -2.5568     -0.0615
            z      -0.0792     -0.0533     -1.0820
-------------------------------------------------------------------------------
   53 O2    x      -2.3496      0.0837      0.0596
            y       0.0535     -1.2509      0.0688
            z       0.0550      0.0436     -1.0847
-------------------------------------------------------------------------------
   54 O2    x      -2.3549      0.0551      0.0470
            y       0.0130     -1.2523     -0.0720
            z       0.0380     -0.0527     -1.0710
-------------------------------------------------------------------------------
   55 O3    x      -3.0102     -0.0837      0.0843
            y      -0.0084     -1.3698     -0.0955
            z       0.1143     -0.0459     -1.2626
-------------------------------------------------------------------------------
   56 O2    x      -2.3864     -0.1486      0.0063
            y      -0.1018     -1.2545      0.0577
            z       0.0075      0.0325     -1.1070
-------------------------------------------------------------------------------
   57 O2    x      -1.2211     -0.1377     -0.0853
            y      -0.1289     -1.2933     -0.0190
            z      -0.0979     -0.0165     -2.0381
-------------------------------------------------------------------------------
   58 O2    x      -1.2021     -0.1296     -0.0194
            y      -0.1278     -1.2702      0.0016
            z      -0.0232     -0.0066     -2.0549
-------------------------------------------------------------------------------
   59 O3    x      -1.3729      0.1723      0.0068
            y       0.1408     -1.4413     -0.0501
            z      -0.0169     -0.0247     -2.5521
-------------------------------------------------------------------------------
   60 O2    x      -1.1855      0.1033      0.0758
            y       0.0925     -1.2870      0.0399
            z       0.0753      0.0561     -2.0936
-------------------------------------------------------------------------------
   61 O3    x      -1.3479     -0.1511     -0.0384
            y      -0.0752     -1.4451     -0.0081
            z      -0.0145     -0.0083     -2.5681
-------------------------------------------------------------------------------
   62 O2    x      -1.1736     -0.1170     -0.0212
            y      -0.0547     -1.2946      0.0130
            z      -0.0288      0.0340     -2.0829
-------------------------------------------------------------------------------
   63 O2    x      -1.2047      0.1390     -0.0845
            y       0.1060     -1.3072     -0.0161
            z      -0.0851     -0.0056     -2.0287
-------------------------------------------------------------------------------
   64 O2    x      -1.1730      0.1249     -0.0383
            y       0.0965     -1.2838     -0.0077
            z      -0.0462     -0.0144     -2.0698
-------------------------------------------------------------------------------
   65 O2    x      -1.2552      0.0909      0.0742
            y       0.1758     -2.4755     -0.0580
            z       0.1133     -0.0399     -1.0281
-------------------------------------------------------------------------------
   66 O3    x      -1.4555     -0.0099     -0.0785
            y       0.0908     -3.1197     -0.1155
            z      -0.1172     -0.0777     -1.0953
-------------------------------------------------------------------------------
   67 O2    x      -1.2004     -0.0352      0.0935
            y      -0.0897     -2.5217      0.0033
            z       0.0899      0.0019     -1.0341
-------------------------------------------------------------------------------
   68 O2    x      -1.2311     -0.0408     -0.0792
            y      -0.0865     -2.5668      0.0237
            z      -0.0917      0.0056     -1.0042
-------------------------------------------------------------------------------
   69 O2    x      -2.4610     -0.0844     -0.0471
            y      -0.0260     -1.2481      0.0434
            z      -0.0504      0.0091     -1.0574
-------------------------------------------------------------------------------
   70 O3    x      -2.9960     -0.1798     -0.1292
            y      -0.1345     -1.3789     -0.0998
            z      -0.1294     -0.0458     -1.2486
-------------------------------------------------------------------------------
   71 O2    x      -2.4352      0.0523      0.0839
            y       0.0283     -1.2405     -0.0725
            z       0.0411     -0.0437     -1.0375
-------------------------------------------------------------------------------
   72 O2    x      -2.4410      0.0652      0.0692
            y       0.0443     -1.2382      0.0637
            z       0.0433      0.0327     -1.0310
-------------------------------------------------------------------------------




  Elastic Constant Matrix: (Units=GPa)

-------------------------------------------------------------------------------
  Indices      1         2         3         4         5         6    
-------------------------------------------------------------------------------
       1     48.3069   23.1065   20.4468    1.4422    3.3006    0.6417
       2     23.1065   71.8936   16.0345    1.2177    5.9159    0.8922
       3     20.4468   16.0345   33.3977    1.9303   -1.1944    0.7622
       4      1.4422    1.2177    1.9303   11.3060   -0.4605    0.3831
       5      3.3006    5.9159   -1.1944   -0.4605   22.0413    1.8999
       6      0.6417    0.8922    0.7622    0.3831    1.8999   21.9474
-------------------------------------------------------------------------------


  Elastic Compliance Matrix: (Units=1/GPa)

-------------------------------------------------------------------------------
  Indices      1         2         3         4         5         6    
-------------------------------------------------------------------------------
       1    0.030589 -0.005938 -0.015980 -0.000701 -0.003889  0.000251
       2   -0.005938  0.017213 -0.004745 -0.000449 -0.003997 -0.000007
       3   -0.015980 -0.004745  0.042502 -0.004421  0.005986 -0.001257
       4   -0.000701 -0.000449 -0.004421  0.089474  0.001988 -0.001542
       5   -0.003889 -0.003997  0.005986  0.001988  0.047744 -0.004099
       6    0.000251 -0.000007 -0.001257 -0.001542 -0.004099  0.045982
-------------------------------------------------------------------------------

  Mechanical properties :

-------------------------------------------------------------------------------
  Convention :                    Reuss         Voigt         Hill
-------------------------------------------------------------------------------
  Bulk  Modulus (GPa)     =      27.04461      30.30819      28.67640
  Shear Modulus (GPa)     =      14.74245      17.32632      16.03439
-------------------------------------------------------------------------------
  Velocity S-wave (km/s)  =       2.75246       2.98394       2.87053
  Velocity P-wave (km/s)  =       4.89892       5.23899       5.07181
-------------------------------------------------------------------------------
  Compressibility (1/GPa) =    0.03697594
-------------------------------------------------------------------------------
  Stress axis :                     x             y             z
-------------------------------------------------------------------------------
  Youngs Moduli (GPa)     =      32.69184      58.09592      23.52817
-------------------------------------------------------------------------------
  Poissons Ratio (x)      =                     0.34499       0.37599
  Poissons Ratio (y)      =       0.19413                     0.11165
  Poissons Ratio (z)      =       0.52243       0.27568
-------------------------------------------------------------------------------


  Piezoelectric Strain Matrix: (Units=C/m**2)

-------------------------------------------------------------------------------
  Indices      1         2         3         4         5         6    
-------------------------------------------------------------------------------
       x     0.26989   0.57149   1.30794  -0.14184   0.37686  -0.39084
       y    -0.65034  -0.84062   0.08286  -0.02051  -0.19143   0.25659
       z    -0.44498  -0.09760  -1.98837  -0.13150  -0.65247   0.20054
-------------------------------------------------------------------------------


  Piezoelectric Stress Matrix: (Units=10**-11 C/N)

-------------------------------------------------------------------------------
  Indices      1         2         3         4         5         6    
-------------------------------------------------------------------------------
       x    -1.75035   0.05881   5.19395  -1.75666   2.38085  -2.08783
       y    -1.54023  -1.02284   1.65259  -0.21443  -0.38477   1.23538
       z     2.14229   1.30630  -8.05123  -0.42267  -4.20163   1.44869
-------------------------------------------------------------------------------


  Static dielectric constant tensor : 

-------------------------------------------------------------------------------
              x         y         z
-------------------------------------------------------------------------------
       x     4.03031  -0.00817  -0.16803
       y    -0.00817   4.13590   0.05185
       z    -0.16803   0.05185   3.39027
--------------------------------------------------------------------------------

  High frequency dielectric constant tensor : 

-------------------------------------------------------------------------------
              x         y         z
-------------------------------------------------------------------------------
       x     1.67603  -0.00052   0.00015
       y    -0.00052   1.68285   0.00180
       z     0.00015   0.00180   1.61479
-------------------------------------------------------------------------------

  Static refractive indices : 

-------------------------------------------------------------------------------
    1 =    1.82917      2 =    2.01645      3 =    2.03581
-------------------------------------------------------------------------------

  High frequency refractive indices : 

-------------------------------------------------------------------------------
    1 =    1.27072      2 =    1.29460      3 =    1.29728
-------------------------------------------------------------------------------


  Time to end of optimisation =       9.6561 seconds


  Peak dynamic memory used =       5.01 MB 


  Timing analysis for GULP :

--------------------------------------------------------------------------------
  Task / Subroutine                                          Time (Seconds)
--------------------------------------------------------------------------------
  Calculation of reciprocal space energy and derivatives          0.5677
  Calculation of real space energy and derivatives                6.0188
  Calculation of three-body energy and derivatives                0.5643
  Calculation and manipulation of Hessian matrix                  2.8673
  Calculation of matrix inversion                                 0.0314
  Global summation overhead                                       0.0001
--------------------------------------------------------------------------------
  Total CPU time                                                  9.6561
--------------------------------------------------------------------------------


  Dump file written as c00090.vasp.grs
  CIF file written as c00090.vasp.cif


  Job Finished at 11:42.19  7th October    2025                               

