********************************************************************************
*                       GENERAL UTILITY LATTICE PROGRAM                        *
*                                 Julian Gale                                  *
*                       Curtin Institute for Computation                       *
*                    School of Molecular and Life Sciences                     *
*                    Curtin University, Western Australia                      *
********************************************************************************
* Version = 6.1.2 * Last modified =   3rd November 2022                        *
********************************************************************************
*  optimise     - perform optimisation run                                     *
*  conp         - constant pressure calculation                                *
*  property     - calculate properties for final geometry                      *
********************************************************************************

  Job Started  at 11:41.21  7th October    2025                               

  Number of CPUs =     1


  Total number of configurations input =      1

********************************************************************************
*  Input for Configuration =   1 : c00085.vasp                                 *
********************************************************************************

  Formula = Ge3Si21O48                                                  

  Number of irreducible atoms/shells =     120


  Total number atoms/shells =     120

  Dimensionality = 3               :  Bulk   



  Cartesian lattice vectors (Angstroms) :

       17.182800    0.000000    0.000000
        0.000000    7.513760    0.000000
        0.000000    0.000000   10.447700

  Cell parameters (Angstroms/Degrees):

  a =      17.1828    alpha =  90.0000
  b =       7.5138    beta  =  90.0000
  c =      10.4477    gamma =  90.0000

  Initial cell volume =        1348.875752 Angs**3

  Temperature of configuration =   0.00     K 

  Pressure of configuration =         0.000 GPa 

  Fractional coordinates of asymmetric unit :

--------------------------------------------------------------------------------
   No.  Atomic       x           y          z         Charge      Occupancy
        Label      (Frac)      (Frac)     (Frac)        (e)         (Frac)  
--------------------------------------------------------------------------------
      1 Ge    c    0.052090    0.000000    0.372270     4.00000    1.000000    
      2 Ge    c    0.339810 *  0.706090 *  0.273440 *   4.00000    1.000000    
      3 Ge    c    0.839340 *  0.294090 *  0.017440 *   4.00000    1.000000    
      4 Si    c    0.447910 *  0.000000 *  0.372270 *   4.00000    1.000000    
      5 Si    c    0.947910 *  0.000000 *  0.627730 *   4.00000    1.000000    
      6 Si    c    0.552090 *  0.000000 *  0.627730 *   4.00000    1.000000    
      7 Si    c    0.556730 *  0.000000 *  0.122130 *   4.00000    1.000000    
      8 Si    c    0.943270 *  0.000000 *  0.122130 *   4.00000    1.000000    
      9 Si    c    0.443270 *  0.000000 *  0.877870 *   4.00000    1.000000    
     10 Si    c    0.056730 *  0.000000 *  0.877870 *   4.00000    1.000000    
     11 Si    c    0.160190 *  0.293910 *  0.273440 *   4.00000    1.000000    
     12 Si    c    0.839810 *  0.293910 *  0.726560 *   4.00000    1.000000    
     13 Si    c    0.660190 *  0.706090 *  0.726560 *   4.00000    1.000000    
     14 Si    c    0.839810 *  0.706090 *  0.726560 *   4.00000    1.000000    
     15 Si    c    0.660190 *  0.293910 *  0.726560 *   4.00000    1.000000    
     16 Si    c    0.160190 *  0.706090 *  0.273440 *   4.00000    1.000000    
     17 Si    c    0.339810 *  0.293910 *  0.273440 *   4.00000    1.000000    
     18 Si    c    0.660660 *  0.294090 *  0.017440 *   4.00000    1.000000    
     19 Si    c    0.839340 *  0.705910 *  0.017440 *   4.00000    1.000000    
     20 Si    c    0.339340 *  0.294090 *  0.982560 *   4.00000    1.000000    
     21 Si    c    0.160660 *  0.705910 *  0.982560 *   4.00000    1.000000    
     22 Si    c    0.339340 *  0.705910 *  0.982560 *   4.00000    1.000000    
     23 Si    c    0.160660 *  0.294090 *  0.982560 *   4.00000    1.000000    
     24 Si    c    0.660660 *  0.705910 *  0.017440 *   4.00000    1.000000    
     25 O3    c    0.106570 *  0.174340 *  0.366200 *   1.33043    1.000000    
     26 O3    c    0.393430 *  0.825660 *  0.366200 *   1.33043    1.000000    
     27 O2    c    0.893430 *  0.174340 *  0.633800 *   0.87073    1.000000    
     28 O2    c    0.606570 *  0.825660 *  0.633800 *   0.87073    1.000000    
     29 O2    c    0.893430 *  0.825660 *  0.633800 *   0.87073    1.000000    
     30 O2    c    0.606570 *  0.174340 *  0.633800 *   0.87073    1.000000    
     31 O3    c    0.106570 *  0.825660 *  0.366200 *   1.33043    1.000000    
     32 O2    c    0.393430 *  0.174340 *  0.366200 *   0.87073    1.000000    
     33 O3    c    0.000000 *  0.000000 *  0.500000 *   1.33043    1.000000    
     34 O2    c    0.500000 *  0.000000 *  0.500000 *   0.87073    1.000000    
     35 O3    c    0.994520 *  0.000000 *  0.250840 *   1.33043    1.000000    
     36 O2    c    0.505480 *  0.000000 *  0.250840 *   0.87073    1.000000    
     37 O2    c    0.005480 *  0.000000 *  0.749160 *   0.87073    1.000000    
     38 O2    c    0.494520 *  0.000000 *  0.749160 *   0.87073    1.000000    
     39 O2    c    0.610230 *  0.175520 *  0.115390 *   0.87073    1.000000    
     40 O2    c    0.889770 *  0.824480 *  0.115390 *   0.87073    1.000000    
     41 O2    c    0.389770 *  0.175520 *  0.884610 *   0.87073    1.000000    
     42 O2    c    0.110230 *  0.824480 *  0.884610 *   0.87073    1.000000    
     43 O2    c    0.389770 *  0.824480 *  0.884610 *   0.87073    1.000000    
     44 O2    c    0.110230 *  0.175520 *  0.884610 *   0.87073    1.000000    
     45 O2    c    0.610230 *  0.824480 *  0.115390 *   0.87073    1.000000    
     46 O3    c    0.889770 *  0.175520 *  0.115390 *   1.33043    1.000000    
     47 O2    c    0.500000 *  0.000000 *  0.000000 *   0.87073    1.000000    
     48 O2    c    0.000000 *  0.000000 *  0.000000 *   0.87073    1.000000    
     49 O2    c    0.151750 *  0.500000 *  0.313330 *   0.87073    1.000000    
     50 O3    c    0.348250 *  0.500000 *  0.313330 *   1.33043    1.000000    
     51 O2    c    0.848250 *  0.500000 *  0.686670 *   0.87073    1.000000    
     52 O2    c    0.651750 *  0.500000 *  0.686670 *   0.87073    1.000000    
     53 O2    c    0.250000 *  0.234950 *  0.285720 *   0.87073    1.000000    
     54 O3    c    0.250000 *  0.765050 *  0.285720 *   1.33043    1.000000    
     55 O2    c    0.750000 *  0.234950 *  0.714280 *   0.87073    1.000000    
     56 O2    c    0.750000 *  0.765050 *  0.714280 *   0.87073    1.000000    
     57 O2    c    0.131410 *  0.268650 *  0.127790 *   0.87073    1.000000    
     58 O3    c    0.368590 *  0.731350 *  0.127790 *   1.33043    1.000000    
     59 O3    c    0.868590 *  0.268650 *  0.872210 *   1.33043    1.000000    
     60 O2    c    0.631410 *  0.731350 *  0.872210 *   0.87073    1.000000    
     61 O2    c    0.868590 *  0.731350 *  0.872210 *   0.87073    1.000000    
     62 O2    c    0.631410 *  0.268650 *  0.872210 *   0.87073    1.000000    
     63 O2    c    0.131410 *  0.731350 *  0.127790 *   0.87073    1.000000    
     64 O2    c    0.368590 *  0.268650 *  0.127790 *   0.87073    1.000000    
     65 O2    c    0.653920 *  0.500000 *  0.058200 *   0.87073    1.000000    
     66 O3    c    0.846080 *  0.500000 *  0.058200 *   1.33043    1.000000    
     67 O2    c    0.346080 *  0.500000 *  0.941800 *   0.87073    1.000000    
     68 O2    c    0.153920 *  0.500000 *  0.941800 *   0.87073    1.000000    
     69 O3    c    0.750000 *  0.231060 *  0.027050 *   1.33043    1.000000    
     70 O2    c    0.750000 *  0.768940 *  0.027050 *   0.87073    1.000000    
     71 O2    c    0.250000 *  0.231060 *  0.972950 *   0.87073    1.000000    
     72 O2    c    0.250000 *  0.768940 *  0.972950 *   0.87073    1.000000    
     73 O3    s    0.106570 *  0.174340 *  0.366200 *  -3.33043    1.000000    
     74 O3    s    0.393430 *  0.825660 *  0.366200 *  -3.33043    1.000000    
     75 O2    s    0.893430 *  0.174340 *  0.633800 *  -2.87073    1.000000    
     76 O2    s    0.606570 *  0.825660 *  0.633800 *  -2.87073    1.000000    
     77 O2    s    0.893430 *  0.825660 *  0.633800 *  -2.87073    1.000000    
     78 O2    s    0.606570 *  0.174340 *  0.633800 *  -2.87073    1.000000    
     79 O3    s    0.106570 *  0.825660 *  0.366200 *  -3.33043    1.000000    
     80 O2    s    0.393430 *  0.174340 *  0.366200 *  -2.87073    1.000000    
     81 O3    s    0.000000 *  0.000000 *  0.500000 *  -3.33043    1.000000    
     82 O2    s    0.500000 *  0.000000 *  0.500000 *  -2.87073    1.000000    
     83 O3    s    0.994520 *  0.000000 *  0.250840 *  -3.33043    1.000000    
     84 O2    s    0.505480 *  0.000000 *  0.250840 *  -2.87073    1.000000    
     85 O2    s    0.005480 *  0.000000 *  0.749160 *  -2.87073    1.000000    
     86 O2    s    0.494520 *  0.000000 *  0.749160 *  -2.87073    1.000000    
     87 O2    s    0.610230 *  0.175520 *  0.115390 *  -2.87073    1.000000    
     88 O2    s    0.889770 *  0.824480 *  0.115390 *  -2.87073    1.000000    
     89 O2    s    0.389770 *  0.175520 *  0.884610 *  -2.87073    1.000000    
     90 O2    s    0.110230 *  0.824480 *  0.884610 *  -2.87073    1.000000    
     91 O2    s    0.389770 *  0.824480 *  0.884610 *  -2.87073    1.000000    
     92 O2    s    0.110230 *  0.175520 *  0.884610 *  -2.87073    1.000000    
     93 O2    s    0.610230 *  0.824480 *  0.115390 *  -2.87073    1.000000    
     94 O3    s    0.889770 *  0.175520 *  0.115390 *  -3.33043    1.000000    
     95 O2    s    0.500000 *  0.000000 *  0.000000 *  -2.87073    1.000000    
     96 O2    s    0.000000 *  0.000000 *  0.000000 *  -2.87073    1.000000    
     97 O2    s    0.151750 *  0.500000 *  0.313330 *  -2.87073    1.000000    
     98 O3    s    0.348250 *  0.500000 *  0.313330 *  -3.33043    1.000000    
     99 O2    s    0.848250 *  0.500000 *  0.686670 *  -2.87073    1.000000    
    100 O2    s    0.651750 *  0.500000 *  0.686670 *  -2.87073    1.000000    
    101 O2    s    0.250000 *  0.234950 *  0.285720 *  -2.87073    1.000000    
    102 O3    s    0.250000 *  0.765050 *  0.285720 *  -3.33043    1.000000    
    103 O2    s    0.750000 *  0.234950 *  0.714280 *  -2.87073    1.000000    
    104 O2    s    0.750000 *  0.765050 *  0.714280 *  -2.87073    1.000000    
    105 O2    s    0.131410 *  0.268650 *  0.127790 *  -2.87073    1.000000    
    106 O3    s    0.368590 *  0.731350 *  0.127790 *  -3.33043    1.000000    
    107 O3    s    0.868590 *  0.268650 *  0.872210 *  -3.33043    1.000000    
    108 O2    s    0.631410 *  0.731350 *  0.872210 *  -2.87073    1.000000    
    109 O2    s    0.868590 *  0.731350 *  0.872210 *  -2.87073    1.000000    
    110 O2    s    0.631410 *  0.268650 *  0.872210 *  -2.87073    1.000000    
    111 O2    s    0.131410 *  0.731350 *  0.127790 *  -2.87073    1.000000    
    112 O2    s    0.368590 *  0.268650 *  0.127790 *  -2.87073    1.000000    
    113 O2    s    0.653920 *  0.500000 *  0.058200 *  -2.87073    1.000000    
    114 O3    s    0.846080 *  0.500000 *  0.058200 *  -3.33043    1.000000    
    115 O2    s    0.346080 *  0.500000 *  0.941800 *  -2.87073    1.000000    
    116 O2    s    0.153920 *  0.500000 *  0.941800 *  -2.87073    1.000000    
    117 O3    s    0.750000 *  0.231060 *  0.027050 *  -3.33043    1.000000    
    118 O2    s    0.750000 *  0.768940 *  0.027050 *  -2.87073    1.000000    
    119 O2    s    0.250000 *  0.231060 *  0.972950 *  -2.87073    1.000000    
    120 O2    s    0.250000 *  0.768940 *  0.972950 *  -2.87073    1.000000    
--------------------------------------------------------------------------------



********************************************************************************
*  General input information                                                   *
********************************************************************************

  Species output for all configurations : 

--------------------------------------------------------------------------------
  Species    Type    Atomic    Atomic    Charge       Radii (Angs)     Library
                     Number     Mass       (e)     Cova   Ionic  VDW   Symbol
--------------------------------------------------------------------------------
    Ge       Core       32      72.61   4.000000   1.170  0.000  1.750 Ge       
    Si       Core       14      28.09   4.000000   1.200  0.000  2.100 Si       
    O1       Core        8      16.00   1.733957   0.730  0.000  0.000 O1       
    O2       Core        8      16.00   0.870733   0.730  0.000  1.360 O2       
    O3       Core        8      16.00   1.330431   0.730  0.000  1.360 O3       
    O1       Shell       8       0.00  -3.733957   0.730  0.000  0.000 O1       
    O2       Shell       8       0.00  -2.870733   0.730  0.000  0.000 O2       
    O3       Shell       8       0.00  -3.330431   0.730  0.000  0.000 O3       
--------------------------------------------------------------------------------


  Lattice summation method               =    Ewald          (3-D)
                                         =    Parry          (2-D)
                                         =    Saunders et al (1-D)
  Accuracy factor for lattice sums       =   12.000


  Analytic derivatives to be used

  Time limit = Infinity

  Maximum range for interatomic potentials =    100000.000000 Angstroms

  General interatomic potentials :

--------------------------------------------------------------------------------
Atom  Types   Potential      Parameter       Value         Units   Cutoffs(Ang)
  1     2                                                            Min /  Max 
--------------------------------------------------------------------------------
Si   c O1   s Buckingham    Buckingham A     1315.2478    eV        0.000 16.000
                            Buckingham rho  0.31775900    Ang       
                            Buckingham C     10.141118    eV*Ang^6  
--------------------------------------------------------------------------------
Si   c O2   s Buckingham    Buckingham A     1315.2478    eV        0.000 16.000
                            Buckingham rho  0.31775900    Ang       
                            Buckingham C     10.141118    eV*Ang^6  
--------------------------------------------------------------------------------
Si   c O3   s Buckingham    Buckingham A     1315.2478    eV        0.000 16.000
                            Buckingham rho  0.31775900    Ang       
                            Buckingham C     10.141118    eV*Ang^6  
--------------------------------------------------------------------------------
Ge   c O1   s Buckingham    Buckingham A     1497.3996    eV        0.000 16.000
                            Buckingham rho  0.32564600    Ang       
                            Buckingham C     16.808599    eV*Ang^6  
--------------------------------------------------------------------------------
Ge   c O2   s Buckingham    Buckingham A     1497.3996    eV        0.000 16.000
                            Buckingham rho  0.32564600    Ang       
                            Buckingham C     16.808599    eV*Ang^6  
--------------------------------------------------------------------------------
Ge   c O3   s Buckingham    Buckingham A     1497.3996    eV        0.000 16.000
                            Buckingham rho  0.32564600    Ang       
                            Buckingham C     16.808599    eV*Ang^6  
--------------------------------------------------------------------------------
O1   s O1   s Buckingham    Buckingham A     22764.000    eV        0.000 16.000
                            Buckingham rho  0.14900000    Ang       
                            Buckingham C     10.937044    eV*Ang^6  
--------------------------------------------------------------------------------
O1   s O2   s Buckingham    Buckingham A     22764.000    eV        0.000 16.000
                            Buckingham rho  0.14900000    Ang       
                            Buckingham C     10.937044    eV*Ang^6  
--------------------------------------------------------------------------------
O1   s O3   s Buckingham    Buckingham A     22764.000    eV        0.000 16.000
                            Buckingham rho  0.14900000    Ang       
                            Buckingham C     10.937044    eV*Ang^6  
--------------------------------------------------------------------------------
O2   s O2   s Buckingham    Buckingham A     22764.000    eV        0.000 16.000
                            Buckingham rho  0.14900000    Ang       
                            Buckingham C     10.937044    eV*Ang^6  
--------------------------------------------------------------------------------
O2   s O3   s Buckingham    Buckingham A     22764.000    eV        0.000 16.000
                            Buckingham rho  0.14900000    Ang       
                            Buckingham C     10.937044    eV*Ang^6  
--------------------------------------------------------------------------------
O3   s O3   s Buckingham    Buckingham A     22764.000    eV        0.000 16.000
                            Buckingham rho  0.14900000    Ang       
                            Buckingham C     10.937044    eV*Ang^6  
--------------------------------------------------------------------------------
O1   c O1   s Spring (c-s)  Spring k 2       180.31577    eV*Ang^-2 0.000  0.800
                            Spring k 4       0.0000000    eV*Ang^-4 
--------------------------------------------------------------------------------
O2   c O2   s Spring (c-s)  Spring k 2       75.969800    eV*Ang^-2 0.000  0.800
                            Spring k 4       0.0000000    eV*Ang^-4 
--------------------------------------------------------------------------------
O3   c O3   s Spring (c-s)  Spring k 2       128.14270    eV*Ang^-2 0.000  0.800
                            Spring k 4       0.0000000    eV*Ang^-4 
--------------------------------------------------------------------------------

  General Three-body potentials :

--------------------------------------------------------------------------------
  Atoms       Potential      Parameter       Value         Units   Cutoffs(Ang)
  1 / 2 / 3                                                          Min /  Max 
--------------------------------------------------------------------------------
Si    core    Harmonic      Three-body cnst  1.2614000    eV*rad^-2 0.000  1.900
O1    shel                  Three-body angl  109.47000    degrees   0.000  1.900
O1    shel                  Three-body k4    0.0000000    eV*rad^-4 0.000  3.500
                            Three-body k3    0.0000000    eV*rad^-3 
--------------------------------------------------------------------------------
Si    core    Harmonic      Three-body cnst  1.2614000    eV*rad^-2 0.000  1.900
O1    shel                  Three-body angl  109.47000    degrees   0.000  1.900
õ(1   shel                  Three-body k4    0.0000000    eV*rad^-4 0.000  3.500
                            Three-body k3    0.0000000    eV*rad^-3 
--------------------------------------------------------------------------------
Si    core    Harmonic      Three-body cnst  1.2614000    eV*rad^-2 0.000  1.900
õ(1   shel                  Three-body angl  109.47000    degrees   0.000  1.900
õ(1   shel                  Three-body k4    0.0000000    eV*rad^-4 0.000  3.500
                            Three-body k3    0.0000000    eV*rad^-3 
--------------------------------------------------------------------------------
Si    core    Harmonic      Three-body cnst  1.2614000    eV*rad^-2 0.000  1.900
O1    shel                  Three-body angl  109.47000    degrees   0.000  1.900
O2    shel                  Three-body k4    0.0000000    eV*rad^-4 0.000  3.500
                            Three-body k3    0.0000000    eV*rad^-3 
--------------------------------------------------------------------------------
Si    core    Harmonic      Three-body cnst  1.2614000    eV*rad^-2 0.000  1.900
O1    shel                  Three-body angl  109.47000    degrees   0.000  1.900
õ(2   shel                  Three-body k4    0.0000000    eV*rad^-4 0.000  3.500
                            Three-body k3    0.0000000    eV*rad^-3 
--------------------------------------------------------------------------------
Si    core    Harmonic      Three-body cnst  1.2614000    eV*rad^-2 0.000  1.900
O2    shel                  Three-body angl  109.47000    degrees   0.000  1.900
õ(1   shel                  Three-body k4    0.0000000    eV*rad^-4 0.000  3.500
                            Three-body k3    0.0000000    eV*rad^-3 
--------------------------------------------------------------------------------
Si    core    Harmonic      Three-body cnst  1.2614000    eV*rad^-2 0.000  1.900
õ(1   shel                  Three-body angl  109.47000    degrees   0.000  1.900
õ(2   shel                  Three-body k4    0.0000000    eV*rad^-4 0.000  3.500
                            Three-body k3    0.0000000    eV*rad^-3 
--------------------------------------------------------------------------------
Si    core    Harmonic      Three-body cnst  1.2614000    eV*rad^-2 0.000  1.900
O2    shel                  Three-body angl  109.47000    degrees   0.000  1.900
O2    shel                  Three-body k4    0.0000000    eV*rad^-4 0.000  3.500
                            Three-body k3    0.0000000    eV*rad^-3 
--------------------------------------------------------------------------------
Si    core    Harmonic      Three-body cnst  1.2614000    eV*rad^-2 0.000  1.900
O2    shel                  Three-body angl  109.47000    degrees   0.000  1.900
õ(2   shel                  Three-body k4    0.0000000    eV*rad^-4 0.000  3.500
                            Three-body k3    0.0000000    eV*rad^-3 
--------------------------------------------------------------------------------
Si    core    Harmonic      Three-body cnst  1.2614000    eV*rad^-2 0.000  1.900
õ(2   shel                  Three-body angl  109.47000    degrees   0.000  1.900
õ(2   shel                  Three-body k4    0.0000000    eV*rad^-4 0.000  3.500
                            Three-body k3    0.0000000    eV*rad^-3 
--------------------------------------------------------------------------------

********************************************************************************
*  Output for configuration   1 : c00085.vasp                                  *
********************************************************************************


  Components of energy : 

--------------------------------------------------------------------------------
  Interatomic potentials     =         760.30861002 eV    
  Three-body potentials      =           0.01417925 eV    
  Monopole - monopole (real) =       -2676.00317478 eV    
  Monopole - monopole (recip)=       -1115.35404472 eV    
  Monopole - monopole (total)=       -3791.35721950 eV    
--------------------------------------------------------------------------------
  Total lattice energy       =       -3031.03443024 eV    
--------------------------------------------------------------------------------
  Total lattice energy       =         -292448.4889 kJ/(mole unit cells)
--------------------------------------------------------------------------------


  Number of variables =      363

  Maximum number of calculations  =          1000
  Maximum Hessian update interval =            10
  Maximum step size               =   0.100000000
  Maximum parameter tolerance     =   0.000010000
  Maximum function  tolerance     =   0.000010000
  Maximum gradient  tolerance     =   0.001000000
  Maximum gradient  component     =   0.010000000

  Symmetry not applied to optimisation

  Cell parameters to be optimised using strains

  Newton-Raphson optimiser to be used

  BFGS hessian update to be used

  Lower half triangular hessian to be used

  Minimiser to switch to RFO
  When gradient norm is less than     0.050000

  Dumpfile to be written after every cycle

  Start of bulk optimisation :

  Cycle:      0 Energy:     -3031.034430  Gnorm:      4.405114  CPU:    0.098
  ** Hessian calculated **
  Cycle:      1 Energy:     -3041.745099  Gnorm:      3.711717  CPU:    0.276
  ** Hessian calculated **
  Cycle:      2 Energy:     -3055.314593  Gnorm:      2.562254  CPU:    0.542
  ** Hessian calculated **
  Cycle:      3 Energy:     -3065.471303  Gnorm:      0.578715  CPU:    0.735
  ** Hessian calculated **
  Cycle:      4 Energy:     -3066.371976  Gnorm:      0.331204  CPU:    0.926
  Cycle:      5 Energy:     -3066.697107  Gnorm:      0.219891  CPU:    1.026
  Cycle:      6 Energy:     -3066.972474  Gnorm:      0.170703  CPU:    1.143
  Cycle:      7 Energy:     -3067.216098  Gnorm:      0.132283  CPU:    1.260
  Cycle:      8 Energy:     -3067.357109  Gnorm:      0.107547  CPU:    1.358
  Cycle:      9 Energy:     -3067.443482  Gnorm:      0.078901  CPU:    1.457
  Cycle:     10 Energy:     -3067.490619  Gnorm:      0.057976  CPU:    1.555
  Cycle:     11 Energy:     -3067.519311  Gnorm:      0.046757  CPU:    1.671
  ** Hessian has required structure
  Cycle:     12 Energy:     -3067.538143  Gnorm:      0.101117  CPU:    1.814
  ** Hessian has required structure
  Cycle:     13 Energy:     -3067.563175  Gnorm:      0.083750  CPU:    1.975
  ** Hessian has wrong structure
  ** Imaginary eigenvectors =   3
  ** Hessian has wrong structure
  ** Imaginary eigenvectors =   3
  Cycle:     14 Energy:     -3067.575624  Gnorm:      0.083423  CPU:    2.567
  ** Hessian has wrong structure
  ** Imaginary eigenvectors =   3
  ** Hessian has wrong structure
  ** Imaginary eigenvectors =   3
  Cycle:     15 Energy:     -3067.593548  Gnorm:      0.083503  CPU:    3.069
  ** Hessian has wrong structure
  ** Imaginary eigenvectors =   3
  ** Hessian has wrong structure
  ** Imaginary eigenvectors =   1
  Cycle:     16 Energy:     -3067.598744  Gnorm:      0.083889  CPU:    3.457
  ** Hessian has wrong structure
  ** Imaginary eigenvectors =   2
  ** Hessian has wrong structure
  ** Imaginary eigenvectors =   1
  Cycle:     17 Energy:     -3067.628224  Gnorm:      0.084275  CPU:    3.936
  ** Hessian has wrong structure
  ** Imaginary eigenvectors =   1
  ** Hessian has required structure
  Cycle:     18 Energy:     -3067.894459  Gnorm:      0.057538  CPU:    4.377
  ** Hessian has required structure
  Cycle:     19 Energy:     -3068.077618  Gnorm:      0.036195  CPU:    4.534
  ** Hessian has required structure
  Cycle:     20 Energy:     -3068.152131  Gnorm:      0.024157  CPU:    4.692
  ** Hessian has required structure
  Cycle:     21 Energy:     -3068.170326  Gnorm:      0.038308  CPU:    4.833
  ** Hessian has required structure
  Cycle:     22 Energy:     -3068.207085  Gnorm:      0.026099  CPU:    4.972
  ** Hessian has required structure
  Cycle:     23 Energy:     -3068.221652  Gnorm:      0.028617  CPU:    5.113
  ** Hessian has required structure
  Cycle:     24 Energy:     -3068.243750  Gnorm:      0.020869  CPU:    5.254
  ** Hessian has required structure
  Cycle:     25 Energy:     -3068.257982  Gnorm:      0.018982  CPU:    5.412
  ** Hessian has required structure
  Cycle:     26 Energy:     -3068.274207  Gnorm:      0.020251  CPU:    5.571
  ** Hessian has required structure
  Cycle:     27 Energy:     -3068.289680  Gnorm:      0.015404  CPU:    5.714
  ** Hessian has wrong structure
  ** Imaginary eigenvectors =   1
  ** Hessian has wrong structure
  ** Imaginary eigenvectors =   1
  Cycle:     28 Energy:     -3068.290718  Gnorm:      0.016975  CPU:    6.193
  ** Hessian has required structure
  Cycle:     29 Energy:     -3068.305258  Gnorm:      0.012005  CPU:    6.414
  ** Hessian has required structure
  Cycle:     30 Energy:     -3068.311270  Gnorm:      0.007533  CPU:    6.596
  ** Hessian has required structure
  Cycle:     31 Energy:     -3068.313178  Gnorm:      0.003501  CPU:    6.780
  ** Hessian has required structure
  Cycle:     32 Energy:     -3068.313756  Gnorm:      0.002820  CPU:    6.942
  ** Hessian has required structure
  Cycle:     33 Energy:     -3068.314015  Gnorm:      0.001195  CPU:    7.105
  ** Hessian has required structure
  Cycle:     34 Energy:     -3068.314079  Gnorm:      0.000685  CPU:    7.268
  ** Hessian has required structure
  Cycle:     35 Energy:     -3068.314100  Gnorm:      0.000461  CPU:    7.431
  ** Hessian has required structure
  Cycle:     36 Energy:     -3068.314108  Gnorm:      0.000215  CPU:    7.594
  ** Hessian has required structure
  Cycle:     37 Energy:     -3068.314110  Gnorm:      0.000163  CPU:    7.738
  ** Hessian has required structure
  Cycle:     38 Energy:     -3068.314112  Gnorm:      0.000106  CPU:    7.883
  ** Hessian has required structure


  **** Optimisation achieved ****


  Final energy =   -3068.31411202 eV      
  Final Gnorm  =       0.00007394

  Components of energy : 

--------------------------------------------------------------------------------
  Interatomic potentials     =         815.49751930 eV    
  Three-body potentials      =           0.21035846 eV    
  Monopole - monopole (real) =       -2207.10572945 eV    
  Monopole - monopole (recip)=       -1676.91626033 eV    
  Monopole - monopole (total)=       -3884.02198978 eV    
--------------------------------------------------------------------------------
  Total lattice energy       =       -3068.31411202 eV    
--------------------------------------------------------------------------------
  Total lattice energy       =         -296045.4083 kJ/(mole unit cells)
--------------------------------------------------------------------------------

  Final fractional coordinates of atoms :

--------------------------------------------------------------------------------
   No.  Atomic        x           y          z          Radius
        Label       (Frac)      (Frac)     (Frac)       (Angs) 
--------------------------------------------------------------------------------
     1  Ge    c     0.052090    0.000000    0.372270    0.000000
     2  Ge    c     0.354685    0.679161    0.290480    0.000000
     3  Ge    c     0.850146    0.332934    0.040363    0.000000
     4  Si    c     0.457093    0.988192    0.372478    0.000000
     5  Si    c     0.948936    0.014092    0.631251    0.000000
     6  Si    c     0.550390    0.007141    0.635764    0.000000
     7  Si    c     0.555738    0.009116    0.116938    0.000000
     8  Si    c     0.947336    0.014676    0.115670    0.000000
     9  Si    c     0.440016    0.005713    0.877929    0.000000
    10  Si    c     0.056709    0.016571    0.876443    0.000000
    11  Si    c     0.157610    0.308250    0.282502    0.000000
    12  Si    c     0.845290    0.317313    0.729014    0.000000
    13  Si    c     0.655760    0.700726    0.721057    0.000000
    14  Si    c     0.834023    0.722710    0.724672    0.000000
    15  Si    c     0.667068    0.296125    0.729019    0.000000
    16  Si    c     0.171501    0.715438    0.293509    0.000000
    17  Si    c     0.337561    0.269067    0.278296    0.000000
    18  Si    c     0.667854    0.300915    0.034355    0.000000
    19  Si    c     0.832099    0.735048    0.030126    0.000000
    20  Si    c     0.332205    0.293628    0.973948    0.000000
    21  Si    c     0.166579    0.726678    0.990462    0.000000
    22  Si    c     0.347274    0.693662    0.981239    0.000000
    23  Si    c     0.152126    0.324514    0.981658    0.000000
    24  Si    c     0.653153    0.697994    0.024351    0.000000
    25  O3    c     0.099936    0.199124    0.370285    0.000000
    26  O3    c     0.422927    0.793556    0.379748    0.000000
    27  O2    c     0.903902    0.198969    0.646166    0.000000
    28  O2    c     0.595648    0.820334    0.638014    0.000000
    29  O2    c     0.888644    0.853616    0.645847    0.000000
    30  O2    c     0.612411    0.163339    0.650971    0.000000
    31  O3    c     0.120746    0.834446    0.386520    0.000000
    32  O2    c     0.382561    0.117467    0.357757    0.000000
    33  O3    c     0.983029    0.002435    0.489352    0.000000
    34  O2    c     0.507207    0.033762    0.499136    0.000000
    35  O3    c     0.003355    0.954385    0.229296    0.000000
    36  O2    c     0.512544    0.017311    0.251364    0.000000
    37  O2    c     0.022057    0.998933    0.731493    0.000000
    38  O2    c     0.484696    0.015517    0.743927    0.000000
    39  O2    c     0.619417    0.162725    0.117718    0.000000
    40  O2    c     0.870285    0.892824    0.109877    0.000000
    41  O2    c     0.374494    0.158595    0.878928    0.000000
    42  O2    c     0.121298    0.865229    0.899172    0.000000
    43  O2    c     0.399852    0.814938    0.888867    0.000000
    44  O2    c     0.095133    0.209874    0.891012    0.000000
    45  O2    c     0.596125    0.818468    0.106732    0.000000
    46  O3    c     0.916302    0.212405    0.131737    0.000000
    47  O2    c     0.497897    0.043656    0.996898    0.000000
    48  O2    c     0.988216    0.990981    0.977190    0.000000
    49  O2    c     0.145062    0.513532    0.308308    0.000000
    50  O3    c     0.370389    0.457979    0.315873    0.000000
    51  O2    c     0.862313    0.523045    0.700826    0.000000
    52  O2    c     0.638278    0.495022    0.698235    0.000000
    53  O2    c     0.246809    0.255790    0.314643    0.000000
    54  O3    c     0.261210    0.732602    0.333350    0.000000
    55  O2    c     0.756398    0.273770    0.685739    0.000000
    56  O2    c     0.743948    0.744175    0.678703    0.000000
    57  O2    c     0.138597    0.264676    0.130852    0.000000
    58  O3    c     0.368205    0.735821    0.129226    0.000000
    59  O3    c     0.859263    0.274316    0.879469    0.000000
    60  O2    c     0.643534    0.747201    0.872160    0.000000
    61  O2    c     0.839630    0.768409    0.876149    0.000000
    62  O2    c     0.663974    0.251827    0.881966    0.000000
    63  O2    c     0.159255    0.776374    0.142241    0.000000
    64  O2    c     0.346601    0.238612    0.123863    0.000000
    65  O2    c     0.631026    0.495712    0.051455    0.000000
    66  O3    c     0.872261    0.550822    0.065387    0.000000
    67  O2    c     0.365153    0.489601    0.950202    0.000000
    68  O2    c     0.132332    0.531356    0.964601    0.000000
    69  O3    c     0.755466    0.296640    0.085844    0.000000
    70  O2    c     0.741859    0.729132    0.069147    0.000000
    71  O2    c     0.240563    0.288684    0.940889    0.000000
    72  O2    c     0.256581    0.733216    0.952111    0.000000
    73  O3    s     0.102094    0.194339    0.361252    0.000000
    74  O3    s     0.420750    0.803652    0.371755    0.000000
    75  O2    s     0.902324    0.192092    0.653622    0.000000
    76  O2    s     0.597467    0.826926    0.646885    0.000000
    77  O2    s     0.888928    0.856063    0.653274    0.000000
    78  O2    s     0.611836    0.161272    0.658272    0.000000
    79  O3    s     0.120351    0.835671    0.375888    0.000000
    80  O2    s     0.385396    0.120758    0.350353    0.000000
    81  O3    s     0.985534    0.003500    0.494224    0.000000
    82  O2    s     0.506415    0.025344    0.500387    0.000000
    83  O3    s     0.001192    0.964965    0.228654    0.000000
    84  O2    s     0.511329    0.012989    0.249105    0.000000
    85  O2    s     0.018177    0.002490    0.736900    0.000000
    86  O2    s     0.486935    0.013408    0.747364    0.000000
    87  O2    s     0.617888    0.161406    0.108128    0.000000
    88  O2    s     0.874005    0.887828    0.101469    0.000000
    89  O2    s     0.376761    0.157310    0.889354    0.000000
    90  O2    s     0.119380    0.866110    0.907015    0.000000
    91  O2    s     0.398441    0.822147    0.897736    0.000000
    92  O2    s     0.097353    0.202311    0.899426    0.000000
    93  O2    s     0.598197    0.825416    0.098474    0.000000
    94  O3    s     0.913969    0.203059    0.122862    0.000000
    95  O2    s     0.497919    0.035419    0.997059    0.000000
    96  O2    s     0.991618    0.996400    0.980642    0.000000
    97  O2    s     0.149298    0.512474    0.303824    0.000000
    98  O3    s     0.365766    0.457087    0.309991    0.000000
    99  O2    s     0.857496    0.522601    0.706298    0.000000
   100  O2    s     0.643208    0.496105    0.703931    0.000000
   101  O2    s     0.246934    0.262809    0.307300    0.000000
   102  O3    s     0.259878    0.726445    0.325805    0.000000
   103  O2    s     0.756127    0.280720    0.694814    0.000000
   104  O2    s     0.744113    0.737316    0.687942    0.000000
   105  O2    s     0.141888    0.275166    0.130701    0.000000
   106  O3    s     0.365020    0.727090    0.127174    0.000000
   107  O3    s     0.857109    0.283418    0.877245    0.000000
   108  O2    s     0.645845    0.737124    0.872311    0.000000
   109  O2    s     0.838154    0.759737    0.875963    0.000000
   110  O2    s     0.664722    0.261810    0.881573    0.000000
   111  O2    s     0.161226    0.765154    0.141481    0.000000
   112  O2    s     0.344083    0.247668    0.123983    0.000000
   113  O2    s     0.637214    0.497277    0.046734    0.000000
   114  O3    s     0.866476    0.551484    0.059864    0.000000
   115  O2    s     0.359761    0.490352    0.955991    0.000000
   116  O2    s     0.137957    0.529712    0.969098    0.000000
   117  O3    s     0.754224    0.300070    0.076800    0.000000
   118  O2    s     0.741914    0.726271    0.059961    0.000000
   119  O2    s     0.240874    0.293242    0.948990    0.000000
   120  O2    s     0.256444    0.728122    0.959511    0.000000
--------------------------------------------------------------------------------

  Final Cartesian lattice vectors (Angstroms) :

       17.181137    0.031537   -0.124660
        0.013713    7.604280    0.029103
       -0.078597    0.040624   10.275843


  Final cell parameters and derivatives :

--------------------------------------------------------------------------------
       a           17.181618 Angstrom     dE/de1(xx)     0.007209 eV/strain
       b            7.604348 Angstrom     dE/de2(yy)     0.008836 eV/strain
       c           10.276224 Angstrom     dE/de3(zz)     0.009501 eV/strain
       alpha       89.555017 Degrees      dE/de4(yz)     0.000096 eV/strain
       beta        90.853517 Degrees      dE/de5(xz)     0.000047 eV/strain
       gamma       89.793107 Degrees      dE/de6(xy)    -0.000108 eV/strain
--------------------------------------------------------------------------------

  Primitive cell volume =          1342.441340 Angs**3

  Density of cell =      1.949125 g/cm**3

  Non-primitive cell volume =          1342.441340 Angs**3


  Final internal derivatives :

--------------------------------------------------------------------------------
   No.  Atomic          a             b             c           Radius
        Label          (eV)          (eV)          (eV)        (eV/Angs)
--------------------------------------------------------------------------------
      1 Ge    c       0.000000      0.000000      0.000000      0.000000
      2 Ge    c       0.000764      0.000359      0.000032      0.000000
      3 Ge    c      -0.000540     -0.003691      0.000269      0.000000
      4 Si    c       0.000196      0.000276      0.000211      0.000000
      5 Si    c      -0.000108     -0.000135      0.000411      0.000000
      6 Si    c      -0.000222     -0.000045      0.000079      0.000000
      7 Si    c      -0.000090     -0.000088      0.000185      0.000000
      8 Si    c       0.000225     -0.000209     -0.000486      0.000000
      9 Si    c       0.000062      0.000035      0.000231      0.000000
     10 Si    c      -0.000064     -0.000063     -0.000022      0.000000
     11 Si    c      -0.000838     -0.000175     -0.000175      0.000000
     12 Si    c      -0.000849     -0.001569     -0.002208      0.000000
     13 Si    c       0.000255     -0.000282      0.000807      0.000000
     14 Si    c      -0.001556      0.001336     -0.003632      0.000000
     15 Si    c      -0.000827      0.000497      0.000261      0.000000
     16 Si    c      -0.001520      0.000281     -0.000741      0.000000
     17 Si    c       0.001301     -0.001192     -0.000339      0.000000
     18 Si    c      -0.001734      0.000336     -0.000861      0.000000
     19 Si    c      -0.003098      0.002235      0.002187      0.000000
     20 Si    c      -0.000169     -0.000082     -0.000103      0.000000
     21 Si    c      -0.000315      0.000061      0.000049      0.000000
     22 Si    c      -0.000424      0.000138     -0.000086      0.000000
     23 Si    c       0.000206      0.000079      0.000178      0.000000
     24 Si    c      -0.001145     -0.000242     -0.001352      0.000000
     25 O3    c       0.000145      0.000077      0.000001      0.000000
     26 O3    c      -0.000255     -0.000186      0.000009      0.000000
     27 O2    c       0.000332      0.000145      0.000004      0.000000
     28 O2    c       0.000128     -0.000014     -0.000001      0.000000
     29 O2    c       0.000694     -0.000140     -0.000245      0.000000
     30 O2    c      -0.000023     -0.000005     -0.000027      0.000000
     31 O3    c       0.000006     -0.000126      0.000567      0.000000
     32 O2    c      -0.000282      0.000112      0.000074      0.000000
     33 O3    c      -0.000603     -0.000005      0.000328      0.000000
     34 O2    c      -0.000540     -0.000154     -0.000271      0.000000
     35 O3    c       0.000594     -0.000058      0.000332      0.000000
     36 O2    c       0.000201     -0.000015     -0.000322      0.000000
     37 O2    c       0.000391     -0.000046      0.000165      0.000000
     38 O2    c       0.000857     -0.000015     -0.000441      0.000000
     39 O2    c      -0.000146     -0.000074      0.000134      0.000000
     40 O2    c       0.001947      0.000921      0.001231      0.000000
     41 O2    c      -0.000122      0.000066      0.000008      0.000000
     42 O2    c       0.000264     -0.000101      0.000047      0.000000
     43 O2    c       0.000018     -0.000097     -0.000027      0.000000
     44 O2    c      -0.000060      0.000012     -0.000065      0.000000
     45 O2    c      -0.000181      0.000093      0.000215      0.000000
     46 O3    c       0.000872     -0.000081      0.000327      0.000000
     47 O2    c      -0.000447     -0.000103     -0.000274      0.000000
     48 O2    c      -0.000675     -0.000133      0.000428      0.000000
     49 O2    c      -0.000893     -0.000589      0.000302      0.000000
     50 O3    c       0.002099      0.002022      0.001690      0.000000
     51 O2    c       0.003952     -0.000036     -0.003079      0.000000
     52 O2    c      -0.000297     -0.000116     -0.000279      0.000000
     53 O2    c      -0.003192     -0.000437      0.000541      0.000000
     54 O3    c       0.002562      0.000542      0.000773      0.000000
     55 O2    c      -0.000728     -0.000320     -0.000608      0.000000
     56 O2    c      -0.002171      0.000278     -0.000544      0.000000
     57 O2    c      -0.000223     -0.000121     -0.000102      0.000000
     58 O3    c       0.000613      0.000163     -0.000204      0.000000
     59 O3    c       0.003171     -0.001166      0.001945      0.000000
     60 O2    c       0.000391      0.000082      0.000020      0.000000
     61 O2    c       0.003969      0.000625     -0.001918      0.000000
     62 O2    c       0.000074      0.000006      0.000322      0.000000
     63 O2    c      -0.000122      0.000088      0.000340      0.000000
     64 O2    c       0.000554     -0.000068     -0.000801      0.000000
     65 O2    c      -0.001264     -0.000311      0.000395      0.000000
     66 O3    c       0.009647      0.001301      0.006881      0.000000
     67 O2    c       0.000365     -0.000053     -0.000190      0.000000
     68 O2    c       0.000013     -0.000264     -0.000015      0.000000
     69 O3    c      -0.000287     -0.000517      0.001386      0.000000
     70 O2    c      -0.002511      0.000173      0.001408      0.000000
     71 O2    c      -0.000161     -0.000075     -0.000098      0.000000
     72 O2    c       0.000974      0.000024     -0.000148      0.000000
     73 O3    s      -0.000190     -0.000060      0.000039      0.000000
     74 O3    s       0.000343      0.000040      0.000063      0.000000
     75 O2    s       0.000075     -0.000845     -0.000821      0.000000
     76 O2    s      -0.000684      0.000269     -0.000156      0.000000
     77 O2    s       0.000462      0.001470     -0.001354      0.000000
     78 O2    s      -0.000552     -0.000249     -0.000121      0.000000
     79 O3    s      -0.000753      0.000265     -0.000021      0.000000
     80 O2    s       0.000940     -0.000559      0.000148      0.000000
     81 O3    s      -0.000057      0.000033     -0.000362      0.000000
     82 O2    s       0.000338      0.000038      0.000113      0.000000
     83 O3    s      -0.000208      0.000077     -0.000026      0.000000
     84 O2    s       0.000170      0.000015      0.000067      0.000000
     85 O2    s       0.000115      0.000098     -0.000042      0.000000
     86 O2    s      -0.000109      0.000068      0.000139      0.000000
     87 O2    s      -0.000523     -0.000254      0.000072      0.000000
     88 O2    s      -0.000012      0.001982      0.001358      0.000000
     89 O2    s       0.000181     -0.000076     -0.000077      0.000000
     90 O2    s      -0.000229     -0.000033     -0.000240      0.000000
     91 O2    s       0.000097      0.000060     -0.000089      0.000000
     92 O2    s      -0.000063      0.000203     -0.000192      0.000000
     93 O2    s      -0.001029      0.000483      0.000223      0.000000
     94 O3    s       0.000263     -0.000635      0.000258      0.000000
     95 O2    s       0.000344      0.000170      0.000137      0.000000
     96 O2    s       0.000207      0.000241     -0.000058      0.000000
     97 O2    s      -0.000433     -0.000207      0.000406      0.000000
     98 O3    s       0.000465     -0.000216      0.000230      0.000000
     99 O2    s       0.003321     -0.000959     -0.002720      0.000000
    100 O2    s      -0.001870     -0.000124     -0.001126      0.000000
    101 O2    s      -0.000581     -0.000598      0.000651      0.000000
    102 O3    s      -0.000210      0.000264      0.000082      0.000000
    103 O2    s      -0.001255     -0.001570     -0.001480      0.000000
    104 O2    s      -0.002625      0.001694     -0.002562      0.000000
    105 O2    s      -0.000575     -0.000127     -0.000095      0.000000
    106 O3    s       0.000160      0.000110      0.000100      0.000000
    107 O3    s       0.001133     -0.000535     -0.000115      0.000000
    108 O2    s      -0.002696      0.001039     -0.000423      0.000000
    109 O2    s       0.003340      0.002449     -0.001144      0.000000
    110 O2    s      -0.001287     -0.001134     -0.000021      0.000000
    111 O2    s      -0.000626      0.000495     -0.000299      0.000000
    112 O2    s       0.001303     -0.000510     -0.000814      0.000000
    113 O2    s      -0.001959     -0.000414      0.001049      0.000000
    114 O3    s       0.001576     -0.002999      0.001476      0.000000
    115 O2    s       0.000673      0.000100     -0.000337      0.000000
    116 O2    s      -0.001087     -0.000051     -0.000427      0.000000
    117 O3    s      -0.001217     -0.000844      0.001096      0.000000
    118 O2    s      -0.004042      0.001887      0.003290      0.000000
    119 O2    s      -0.000073     -0.000133     -0.000413      0.000000
    120 O2    s       0.000096      0.000259     -0.000228      0.000000
--------------------------------------------------------------------------------
  Maximum abs         0.009647      0.003691      0.006881      0.000000
--------------------------------------------------------------------------------


  Born effective charge tensors : 

-------------------------------------------------------------------------------
  Atom             x           y             z
-------------------------------------------------------------------------------
    1 Ge    x       4.2435      0.1537     -0.1236
            y      -0.1192      3.8718     -0.0274
            z      -0.8759      0.1038      4.4942
-------------------------------------------------------------------------------
    2 Ge    x       3.9114      0.2539      0.1065
            y       0.3979      4.2063      0.2246
            z       0.1571      0.0681      3.4471
-------------------------------------------------------------------------------
    3 Ge    x       4.0379     -0.3347      0.1304
            y      -0.3349      4.1730     -0.2149
            z       0.2050     -0.0229      3.2773
-------------------------------------------------------------------------------
    4 Si    x       3.5225      0.3773      0.1663
            y      -0.0335      3.4663     -0.0639
            z       0.5064      0.1574      3.8688
-------------------------------------------------------------------------------
    5 Si    x       3.6117     -0.0719     -0.4778
            y       0.0976      3.2822      0.0378
            z      -0.4395      0.0676      4.2625
-------------------------------------------------------------------------------
    6 Si    x       3.4759     -0.1083      0.1939
            y       0.1007      3.2420      0.0398
            z       0.3683     -0.0996      3.7800
-------------------------------------------------------------------------------
    7 Si    x       3.4604     -0.1291     -0.1653
            y       0.1252      3.2472      0.0346
            z      -0.4732      0.0283      3.1072
-------------------------------------------------------------------------------
    8 Si    x       3.7926     -0.4383      0.2207
            y       0.0295      3.5375     -0.0213
            z       0.7437     -0.2699      3.3076
-------------------------------------------------------------------------------
    9 Si    x       3.5049      0.1202     -0.2371
            y      -0.1373      3.2421     -0.0034
            z      -0.4989      0.0208      3.1140
-------------------------------------------------------------------------------
   10 Si    x       3.5264      0.1415      0.3660
            y      -0.1279      3.2718     -0.0175
            z       0.4193      0.0674      3.0873
-------------------------------------------------------------------------------
   11 Si    x       3.4183      0.3262     -0.2583
            y       0.3978      3.5035     -0.3241
            z      -0.2648     -0.1794      3.0269
-------------------------------------------------------------------------------
   12 Si    x       3.2979     -0.2651      0.0093
            y      -0.3074      3.5254      0.0967
            z      -0.0711      0.0074      3.0916
-------------------------------------------------------------------------------
   13 Si    x       3.2056     -0.2410      0.0499
            y      -0.2884      3.4457     -0.1824
            z       0.1165     -0.0610      2.8006
-------------------------------------------------------------------------------
   14 Si    x       3.2390      0.2907     -0.0900
            y       0.2040      3.4380     -0.1357
            z      -0.1486     -0.0568      2.7599
-------------------------------------------------------------------------------
   15 Si    x       3.1929      0.3022      0.0734
            y       0.1983      3.4868      0.1494
            z       0.1523      0.0789      2.7863
-------------------------------------------------------------------------------
   16 Si    x       3.7220     -0.3818     -0.1888
            y      -0.2832      3.6326      0.3785
            z      -0.1539      0.1783      3.0743
-------------------------------------------------------------------------------
   17 Si    x       3.2604     -0.2385      0.1464
            y      -0.0138      3.7435     -0.0270
            z       0.1297     -0.0176      2.9012
-------------------------------------------------------------------------------
   18 Si    x       3.5677      0.3379     -0.0103
            y       0.1133      3.4994     -0.2017
            z      -0.0674     -0.0777      2.8053
-------------------------------------------------------------------------------
   19 Si    x       3.3185      0.2757      0.1553
            y      -0.0780      3.6867      0.0467
            z       0.1527      0.0124      2.7689
-------------------------------------------------------------------------------
   20 Si    x       3.2643     -0.3383     -0.1949
            y      -0.1198      3.4252      0.1783
            z      -0.1213      0.0570      2.7205
-------------------------------------------------------------------------------
   21 Si    x       3.2386     -0.3289      0.1642
            y      -0.1046      3.4835     -0.2003
            z       0.1192     -0.0678      2.7300
-------------------------------------------------------------------------------
   22 Si    x       3.3614      0.2926     -0.0937
            y       0.2767      3.5154     -0.1092
            z      -0.0712     -0.0108      3.0113
-------------------------------------------------------------------------------
   23 Si    x       3.2778      0.2496      0.1379
            y       0.2468      3.4368      0.2372
            z       0.1322      0.0481      2.6985
-------------------------------------------------------------------------------
   24 Si    x       3.2362     -0.2644     -0.1363
            y      -0.2258      3.3584      0.1780
            z      -0.1867      0.0497      2.7279
-------------------------------------------------------------------------------
   25 O3    x      -2.0344     -0.9428      0.5017
            y      -0.9034     -2.3244      0.5076
            z       0.5950      0.5099     -1.6401
-------------------------------------------------------------------------------
   26 O3    x      -1.9016     -0.8843     -0.3519
            y      -0.8472     -2.5495     -0.3216
            z      -0.4293     -0.3359     -1.5407
-------------------------------------------------------------------------------
   27 O2    x      -1.6839      0.7000      0.3170
            y       0.6739     -2.0133     -0.3268
            z       0.3376     -0.3269     -1.3436
-------------------------------------------------------------------------------
   28 O2    x      -1.6701      0.7105     -0.3094
            y       0.6886     -2.0017      0.3044
            z      -0.3577      0.3148     -1.3454
-------------------------------------------------------------------------------
   29 O2    x      -1.7671     -0.7358      0.3350
            y      -0.7586     -1.9652      0.3253
            z       0.3667      0.3311     -1.3328
-------------------------------------------------------------------------------
   30 O2    x      -1.7657     -0.7335     -0.3350
            y      -0.7795     -1.9731     -0.3610
            z      -0.3846     -0.3385     -1.3270
-------------------------------------------------------------------------------
   31 O3    x      -2.0834      0.9134      0.4460
            y       0.9671     -2.2540     -0.4800
            z       0.5135     -0.4519     -1.6578
-------------------------------------------------------------------------------
   32 O2    x      -1.8277      0.6470     -0.3347
            y       0.7112     -1.8412      0.3433
            z      -0.3651      0.2969     -1.3633
-------------------------------------------------------------------------------
   33 O3    x      -1.9926      0.0383      1.1132
            y       0.0047     -1.1999     -0.0248
            z       1.3979     -0.0965     -3.4752
-------------------------------------------------------------------------------
   34 O2    x      -1.5654     -0.0376     -0.7741
            y      -0.0168     -1.1007     -0.0357
            z      -0.9747     -0.0511     -2.7571
-------------------------------------------------------------------------------
   35 O3    x      -2.0401      0.1225     -0.9691
            y       0.0773     -1.2890      0.0934
            z      -0.9456      0.1149     -2.6627
-------------------------------------------------------------------------------
   36 O2    x      -1.6581     -0.0187      0.7155
            y      -0.0064     -1.1198      0.0217
            z       0.6932      0.0148     -2.2854
-------------------------------------------------------------------------------
   37 O2    x      -1.7961     -0.0162     -0.6971
            y       0.0133     -1.1151     -0.0149
            z      -0.6781     -0.0435     -2.1743
-------------------------------------------------------------------------------
   38 O2    x      -1.7911     -0.0055      0.7506
            y       0.0073     -1.1017      0.0044
            z       0.7716      0.0163     -2.1951
-------------------------------------------------------------------------------
   39 O2    x      -1.7423     -0.7161      0.2956
            y      -0.6826     -1.9362      0.3168
            z       0.3254      0.3066     -1.2334
-------------------------------------------------------------------------------
   40 O2    x      -1.8234     -0.6347     -0.2494
            y      -0.6325     -1.8322     -0.2909
            z      -0.3204     -0.2635     -1.2236
-------------------------------------------------------------------------------
   41 O2    x      -1.7502      0.7145      0.3455
            y       0.6784     -1.9129     -0.3682
            z       0.3362     -0.3384     -1.2786
-------------------------------------------------------------------------------
   42 O2    x      -1.7677      0.7297     -0.4275
            y       0.6926     -1.9570      0.4424
            z      -0.3644      0.3624     -1.2700
-------------------------------------------------------------------------------
   43 O2    x      -1.6583     -0.7014      0.3446
            y      -0.6052     -2.0307      0.3666
            z       0.3552      0.3489     -1.2512
-------------------------------------------------------------------------------
   44 O2    x      -1.6830     -0.7070     -0.3986
            y      -0.6063     -2.0243     -0.3970
            z      -0.3610     -0.3540     -1.2644
-------------------------------------------------------------------------------
   45 O2    x      -1.6665      0.7008      0.3377
            y       0.6116     -1.9974     -0.3576
            z       0.3712     -0.3445     -1.2341
-------------------------------------------------------------------------------
   46 O3    x      -1.9263      0.8571     -0.2907
            y       0.7539     -2.5514      0.2556
            z      -0.3725      0.2565     -1.3626
-------------------------------------------------------------------------------
   47 O2    x      -1.8246     -0.0014     -0.6259
            y       0.0045     -1.1727     -0.0117
            z      -0.3611     -0.0200     -1.7067
-------------------------------------------------------------------------------
   48 O2    x      -1.8306     -0.0258      0.5782
            y      -0.0298     -1.1775      0.0106
            z       0.3178      0.0193     -1.6908
-------------------------------------------------------------------------------
   49 O2    x      -1.1755     -0.0345      0.0619
            y      -0.0802     -2.4863     -0.0526
            z       0.0709     -0.0352     -1.0988
-------------------------------------------------------------------------------
   50 O3    x      -1.3391     -0.1699     -0.1058
            y      -0.2492     -3.1555     -0.1374
            z      -0.1242     -0.1306     -1.2214
-------------------------------------------------------------------------------
   51 O2    x      -1.1882      0.0506      0.0451
            y       0.0901     -2.5758     -0.0139
            z       0.0731     -0.0080     -1.0538
-------------------------------------------------------------------------------
   52 O2    x      -1.1623      0.0371     -0.0494
            y       0.0909     -2.5754      0.0361
            z      -0.0775      0.0003     -1.0615
-------------------------------------------------------------------------------
   53 O2    x      -2.3845      0.1642      0.0197
            y       0.1125     -1.2582      0.0604
            z       0.0215      0.0406     -1.0931
-------------------------------------------------------------------------------
   54 O3    x      -2.9927      0.0882     -0.0623
            y       0.0025     -1.3844     -0.0927
            z      -0.0783     -0.0512     -1.2301
-------------------------------------------------------------------------------
   55 O2    x      -2.3923     -0.0720      0.0356
            y      -0.0286     -1.2611     -0.0648
            z       0.0360     -0.0442     -1.0734
-------------------------------------------------------------------------------
   56 O2    x      -2.3943     -0.0705     -0.0042
            y      -0.0383     -1.2388      0.0678
            z      -0.0122      0.0417     -1.0856
-------------------------------------------------------------------------------
   57 O2    x      -1.2315     -0.1367     -0.0599
            y      -0.1317     -1.2960      0.0178
            z      -0.0641      0.0216     -2.0374
-------------------------------------------------------------------------------
   58 O3    x      -1.3605     -0.1606     -0.0894
            y      -0.1593     -1.4379     -0.0497
            z      -0.0668     -0.0076     -2.6005
-------------------------------------------------------------------------------
   59 O3    x      -1.3489      0.1554     -0.1086
            y       0.1431     -1.4365      0.0538
            z      -0.0924      0.0041     -2.6092
-------------------------------------------------------------------------------
   60 O2    x      -1.1882      0.1243      0.0439
            y       0.1149     -1.2743     -0.0062
            z       0.0525      0.0047     -2.0685
-------------------------------------------------------------------------------
   61 O2    x      -1.1955     -0.1237     -0.0120
            y      -0.0712     -1.2601     -0.0440
            z       0.0152     -0.0625     -2.0538
-------------------------------------------------------------------------------
   62 O2    x      -1.1671     -0.1121      0.0702
            y      -0.0668     -1.3027     -0.0225
            z       0.0406     -0.0090     -2.0701
-------------------------------------------------------------------------------
   63 O2    x      -1.1921      0.1296     -0.0090
            y       0.0850     -1.3339      0.0166
            z      -0.0248      0.0310     -2.0570
-------------------------------------------------------------------------------
   64 O2    x      -1.1983      0.1313     -0.0003
            y       0.0851     -1.2724      0.0686
            z       0.0094      0.0717     -2.0817
-------------------------------------------------------------------------------
   65 O2    x      -1.2272      0.0292      0.0748
            y       0.0860     -2.4869      0.0345
            z       0.1013      0.0200     -1.0251
-------------------------------------------------------------------------------
   66 O3    x      -1.4532      0.1961     -0.1260
            y       0.2648     -3.0553      0.1020
            z      -0.1591      0.1109     -1.1536
-------------------------------------------------------------------------------
   67 O2    x      -1.2411     -0.0657      0.0841
            y      -0.1216     -2.5245     -0.0103
            z       0.0913      0.0046     -1.0165
-------------------------------------------------------------------------------
   68 O2    x      -1.2404     -0.0513     -0.0781
            y      -0.1200     -2.5629     -0.0503
            z      -0.0879     -0.0185     -1.0028
-------------------------------------------------------------------------------
   69 O3    x      -3.0442     -0.1172     -0.1142
            y      -0.0594     -1.3729      0.0790
            z      -0.1032      0.0347     -1.2164
-------------------------------------------------------------------------------
   70 O2    x      -2.3989     -0.1475     -0.0054
            y      -0.0854     -1.2350     -0.0523
            z      -0.0036     -0.0263     -1.0648
-------------------------------------------------------------------------------
   71 O2    x      -2.4557      0.0968      0.0456
            y       0.0538     -1.2330     -0.0707
            z       0.0200     -0.0295     -1.0349
-------------------------------------------------------------------------------
   72 O2    x      -2.4660      0.1049      0.0826
            y       0.0529     -1.2604      0.0558
            z       0.0656      0.0275     -1.0236
-------------------------------------------------------------------------------




  Elastic Constant Matrix: (Units=GPa)

-------------------------------------------------------------------------------
  Indices      1         2         3         4         5         6    
-------------------------------------------------------------------------------
       1     51.8866   25.7578   21.8613    0.5820   -4.2470    1.3401
       2     25.7578   67.9984   20.2990    1.0394   -5.7947    1.4018
       3     21.8613   20.2990   33.0028   -0.2818   -1.7767   -0.2592
       4      0.5820    1.0394   -0.2818   10.6469    0.1938    0.3408
       5     -4.2470   -5.7947   -1.7767    0.1938   22.4788    2.3511
       6      1.3401    1.4018   -0.2592    0.3408    2.3511   24.1673
-------------------------------------------------------------------------------


  Elastic Compliance Matrix: (Units=1/GPa)

-------------------------------------------------------------------------------
  Indices      1         2         3         4         5         6    
-------------------------------------------------------------------------------
       1    0.029085 -0.006128 -0.015367 -0.001397  0.002889 -0.001684
       2   -0.006128  0.019738 -0.007921 -0.001826  0.003446 -0.001200
       3   -0.015367 -0.007921  0.045304  0.002780 -0.001588  0.001913
       4   -0.001397 -0.001826  0.002780  0.094307 -0.001224 -0.000998
       5    0.002889  0.003446 -0.001588 -0.001224  0.046314 -0.004866
       6   -0.001684 -0.001200  0.001913 -0.000998 -0.004866  0.042049
-------------------------------------------------------------------------------

  Mechanical properties :

-------------------------------------------------------------------------------
  Convention :                    Reuss         Voigt         Hill
-------------------------------------------------------------------------------
  Bulk  Modulus (GPa)     =      28.33088      32.08043      30.20566
  Shear Modulus (GPa)     =      14.39289      17.12325      15.75807
-------------------------------------------------------------------------------
  Velocity S-wave (km/s)  =       2.71740       2.96397       2.84336
  Velocity P-wave (km/s)  =       4.93770       5.30776       5.12607
-------------------------------------------------------------------------------
  Compressibility (1/GPa) =    0.03529717
-------------------------------------------------------------------------------
  Stress axis :                     x             y             z
-------------------------------------------------------------------------------
  Youngs Moduli (GPa)     =      34.38216      50.66315      22.07288
-------------------------------------------------------------------------------
  Poissons Ratio (x)      =                     0.31045       0.33919
  Poissons Ratio (y)      =       0.21069                     0.17483
  Poissons Ratio (z)      =       0.52834       0.40129
-------------------------------------------------------------------------------


  Piezoelectric Strain Matrix: (Units=C/m**2)

-------------------------------------------------------------------------------
  Indices      1         2         3         4         5         6    
-------------------------------------------------------------------------------
       x    -0.07216  -0.60791   0.75289   0.19298   0.08622   0.41730
       y     0.16242   0.37693   0.47888   0.05887  -0.10325  -0.11119
       z    -0.66936   0.04793  -2.78734  -0.13802   0.14737  -0.37073
-------------------------------------------------------------------------------


  Piezoelectric Stress Matrix: (Units=10**-11 C/N)

-------------------------------------------------------------------------------
  Indices      1         2         3         4         5         6    
-------------------------------------------------------------------------------
       x    -1.06662  -1.80761   4.12311   2.09812  -0.17723   1.92260
       y    -0.51380   0.23216   1.63293   0.62050  -0.33055  -0.40412
       z     2.43127   2.83300 -11.76998  -1.97281   1.14565  -2.04303
-------------------------------------------------------------------------------


  Static dielectric constant tensor : 

-------------------------------------------------------------------------------
              x         y         z
-------------------------------------------------------------------------------
       x     4.06986  -0.04491  -0.18453
       y    -0.04491   4.11876  -0.03503
       z    -0.18453  -0.03503   3.52451
--------------------------------------------------------------------------------

  High frequency dielectric constant tensor : 

-------------------------------------------------------------------------------
              x         y         z
-------------------------------------------------------------------------------
       x     1.67780   0.00011  -0.00090
       y     0.00011   1.68396   0.00053
       z    -0.00090   0.00053   1.61601
-------------------------------------------------------------------------------

  Static refractive indices : 

-------------------------------------------------------------------------------
    1 =    1.86135      2 =    2.02277      3 =    2.03885
-------------------------------------------------------------------------------

  High frequency refractive indices : 

-------------------------------------------------------------------------------
    1 =    1.27122      2 =    1.29530      3 =    1.29768
-------------------------------------------------------------------------------


  Time to end of optimisation =       8.3001 seconds


  Peak dynamic memory used =       5.01 MB 


  Timing analysis for GULP :

--------------------------------------------------------------------------------
  Task / Subroutine                                          Time (Seconds)
--------------------------------------------------------------------------------
  Calculation of reciprocal space energy and derivatives          0.5769
  Calculation of real space energy and derivatives                5.2639
  Calculation of three-body energy and derivatives                0.4683
  Calculation and manipulation of Hessian matrix                  2.5692
  Calculation of matrix inversion                                 0.0283
  Global summation overhead                                       0.0001
--------------------------------------------------------------------------------
  Total CPU time                                                  8.3001
--------------------------------------------------------------------------------


  Dump file written as c00085.vasp.grs
  CIF file written as c00085.vasp.cif


  Job Finished at 11:41.29  7th October    2025                               

