********************************************************************************
*                       GENERAL UTILITY LATTICE PROGRAM                        *
*                                 Julian Gale                                  *
*                       Curtin Institute for Computation                       *
*                    School of Molecular and Life Sciences                     *
*                    Curtin University, Western Australia                      *
********************************************************************************
* Version = 6.1.2 * Last modified =   3rd November 2022                        *
********************************************************************************
*  optimise     - perform optimisation run                                     *
*  conp         - constant pressure calculation                                *
*  property     - calculate properties for final geometry                      *
********************************************************************************

  Job Started  at 11:27.23  7th October    2025                               

  Number of CPUs =     1


  Total number of configurations input =      1

********************************************************************************
*  Input for Configuration =   1 : c00009.vasp                                 *
********************************************************************************

  Formula = Ge3Si21O48                                                  

  Number of irreducible atoms/shells =     120


  Total number atoms/shells =     120

  Dimensionality = 3               :  Bulk   



  Cartesian lattice vectors (Angstroms) :

       17.182800    0.000000    0.000000
        0.000000    7.513760    0.000000
        0.000000    0.000000   10.447700

  Cell parameters (Angstroms/Degrees):

  a =      17.1828    alpha =  90.0000
  b =       7.5138    beta  =  90.0000
  c =      10.4477    gamma =  90.0000

  Initial cell volume =        1348.875752 Angs**3

  Temperature of configuration =   0.00     K 

  Pressure of configuration =         0.000 GPa 

  Fractional coordinates of asymmetric unit :

--------------------------------------------------------------------------------
   No.  Atomic       x           y          z         Charge      Occupancy
        Label      (Frac)      (Frac)     (Frac)        (e)         (Frac)  
--------------------------------------------------------------------------------
      1 Ge    c    0.052090    0.000000    0.372270     4.00000    1.000000    
      2 Ge    c    0.947910 *  0.000000 *  0.627730 *   4.00000    1.000000    
      3 Ge    c    0.943270 *  0.000000 *  0.122130 *   4.00000    1.000000    
      4 Si    c    0.447910 *  0.000000 *  0.372270 *   4.00000    1.000000    
      5 Si    c    0.552090 *  0.000000 *  0.627730 *   4.00000    1.000000    
      6 Si    c    0.556730 *  0.000000 *  0.122130 *   4.00000    1.000000    
      7 Si    c    0.443270 *  0.000000 *  0.877870 *   4.00000    1.000000    
      8 Si    c    0.056730 *  0.000000 *  0.877870 *   4.00000    1.000000    
      9 Si    c    0.160190 *  0.293910 *  0.273440 *   4.00000    1.000000    
     10 Si    c    0.339810 *  0.706090 *  0.273440 *   4.00000    1.000000    
     11 Si    c    0.839810 *  0.293910 *  0.726560 *   4.00000    1.000000    
     12 Si    c    0.660190 *  0.706090 *  0.726560 *   4.00000    1.000000    
     13 Si    c    0.839810 *  0.706090 *  0.726560 *   4.00000    1.000000    
     14 Si    c    0.660190 *  0.293910 *  0.726560 *   4.00000    1.000000    
     15 Si    c    0.160190 *  0.706090 *  0.273440 *   4.00000    1.000000    
     16 Si    c    0.339810 *  0.293910 *  0.273440 *   4.00000    1.000000    
     17 Si    c    0.660660 *  0.294090 *  0.017440 *   4.00000    1.000000    
     18 Si    c    0.839340 *  0.705910 *  0.017440 *   4.00000    1.000000    
     19 Si    c    0.339340 *  0.294090 *  0.982560 *   4.00000    1.000000    
     20 Si    c    0.160660 *  0.705910 *  0.982560 *   4.00000    1.000000    
     21 Si    c    0.339340 *  0.705910 *  0.982560 *   4.00000    1.000000    
     22 Si    c    0.160660 *  0.294090 *  0.982560 *   4.00000    1.000000    
     23 Si    c    0.660660 *  0.705910 *  0.017440 *   4.00000    1.000000    
     24 Si    c    0.839340 *  0.294090 *  0.017440 *   4.00000    1.000000    
     25 O3    c    0.106570 *  0.174340 *  0.366200 *   1.33043    1.000000    
     26 O2    c    0.393430 *  0.825660 *  0.366200 *   0.87073    1.000000    
     27 O3    c    0.893430 *  0.174340 *  0.633800 *   1.33043    1.000000    
     28 O2    c    0.606570 *  0.825660 *  0.633800 *   0.87073    1.000000    
     29 O3    c    0.893430 *  0.825660 *  0.633800 *   1.33043    1.000000    
     30 O2    c    0.606570 *  0.174340 *  0.633800 *   0.87073    1.000000    
     31 O3    c    0.106570 *  0.825660 *  0.366200 *   1.33043    1.000000    
     32 O2    c    0.393430 *  0.174340 *  0.366200 *   0.87073    1.000000    
     33 O1    c    0.000000 *  0.000000 *  0.500000 *   1.73396    1.000000    
     34 O2    c    0.500000 *  0.000000 *  0.500000 *   0.87073    1.000000    
     35 O1    c    0.994520 *  0.000000 *  0.250840 *   1.73396    1.000000    
     36 O2    c    0.505480 *  0.000000 *  0.250840 *   0.87073    1.000000    
     37 O3    c    0.005480 *  0.000000 *  0.749160 *   1.33043    1.000000    
     38 O2    c    0.494520 *  0.000000 *  0.749160 *   0.87073    1.000000    
     39 O2    c    0.610230 *  0.175520 *  0.115390 *   0.87073    1.000000    
     40 O3    c    0.889770 *  0.824480 *  0.115390 *   1.33043    1.000000    
     41 O2    c    0.389770 *  0.175520 *  0.884610 *   0.87073    1.000000    
     42 O2    c    0.110230 *  0.824480 *  0.884610 *   0.87073    1.000000    
     43 O2    c    0.389770 *  0.824480 *  0.884610 *   0.87073    1.000000    
     44 O2    c    0.110230 *  0.175520 *  0.884610 *   0.87073    1.000000    
     45 O2    c    0.610230 *  0.824480 *  0.115390 *   0.87073    1.000000    
     46 O3    c    0.889770 *  0.175520 *  0.115390 *   1.33043    1.000000    
     47 O2    c    0.500000 *  0.000000 *  0.000000 *   0.87073    1.000000    
     48 O3    c    0.000000 *  0.000000 *  0.000000 *   1.33043    1.000000    
     49 O2    c    0.151750 *  0.500000 *  0.313330 *   0.87073    1.000000    
     50 O2    c    0.348250 *  0.500000 *  0.313330 *   0.87073    1.000000    
     51 O2    c    0.848250 *  0.500000 *  0.686670 *   0.87073    1.000000    
     52 O2    c    0.651750 *  0.500000 *  0.686670 *   0.87073    1.000000    
     53 O2    c    0.250000 *  0.234950 *  0.285720 *   0.87073    1.000000    
     54 O2    c    0.250000 *  0.765050 *  0.285720 *   0.87073    1.000000    
     55 O2    c    0.750000 *  0.234950 *  0.714280 *   0.87073    1.000000    
     56 O2    c    0.750000 *  0.765050 *  0.714280 *   0.87073    1.000000    
     57 O2    c    0.131410 *  0.268650 *  0.127790 *   0.87073    1.000000    
     58 O2    c    0.368590 *  0.731350 *  0.127790 *   0.87073    1.000000    
     59 O2    c    0.868590 *  0.268650 *  0.872210 *   0.87073    1.000000    
     60 O2    c    0.631410 *  0.731350 *  0.872210 *   0.87073    1.000000    
     61 O2    c    0.868590 *  0.731350 *  0.872210 *   0.87073    1.000000    
     62 O2    c    0.631410 *  0.268650 *  0.872210 *   0.87073    1.000000    
     63 O2    c    0.131410 *  0.731350 *  0.127790 *   0.87073    1.000000    
     64 O2    c    0.368590 *  0.268650 *  0.127790 *   0.87073    1.000000    
     65 O2    c    0.653920 *  0.500000 *  0.058200 *   0.87073    1.000000    
     66 O2    c    0.846080 *  0.500000 *  0.058200 *   0.87073    1.000000    
     67 O2    c    0.346080 *  0.500000 *  0.941800 *   0.87073    1.000000    
     68 O2    c    0.153920 *  0.500000 *  0.941800 *   0.87073    1.000000    
     69 O2    c    0.750000 *  0.231060 *  0.027050 *   0.87073    1.000000    
     70 O2    c    0.750000 *  0.768940 *  0.027050 *   0.87073    1.000000    
     71 O2    c    0.250000 *  0.231060 *  0.972950 *   0.87073    1.000000    
     72 O2    c    0.250000 *  0.768940 *  0.972950 *   0.87073    1.000000    
     73 O3    s    0.106570 *  0.174340 *  0.366200 *  -3.33043    1.000000    
     74 O2    s    0.393430 *  0.825660 *  0.366200 *  -2.87073    1.000000    
     75 O3    s    0.893430 *  0.174340 *  0.633800 *  -3.33043    1.000000    
     76 O2    s    0.606570 *  0.825660 *  0.633800 *  -2.87073    1.000000    
     77 O3    s    0.893430 *  0.825660 *  0.633800 *  -3.33043    1.000000    
     78 O2    s    0.606570 *  0.174340 *  0.633800 *  -2.87073    1.000000    
     79 O3    s    0.106570 *  0.825660 *  0.366200 *  -3.33043    1.000000    
     80 O2    s    0.393430 *  0.174340 *  0.366200 *  -2.87073    1.000000    
     81 O1    s    0.000000 *  0.000000 *  0.500000 *  -3.73396    1.000000    
     82 O2    s    0.500000 *  0.000000 *  0.500000 *  -2.87073    1.000000    
     83 O1    s    0.994520 *  0.000000 *  0.250840 *  -3.73396    1.000000    
     84 O2    s    0.505480 *  0.000000 *  0.250840 *  -2.87073    1.000000    
     85 O3    s    0.005480 *  0.000000 *  0.749160 *  -3.33043    1.000000    
     86 O2    s    0.494520 *  0.000000 *  0.749160 *  -2.87073    1.000000    
     87 O2    s    0.610230 *  0.175520 *  0.115390 *  -2.87073    1.000000    
     88 O3    s    0.889770 *  0.824480 *  0.115390 *  -3.33043    1.000000    
     89 O2    s    0.389770 *  0.175520 *  0.884610 *  -2.87073    1.000000    
     90 O2    s    0.110230 *  0.824480 *  0.884610 *  -2.87073    1.000000    
     91 O2    s    0.389770 *  0.824480 *  0.884610 *  -2.87073    1.000000    
     92 O2    s    0.110230 *  0.175520 *  0.884610 *  -2.87073    1.000000    
     93 O2    s    0.610230 *  0.824480 *  0.115390 *  -2.87073    1.000000    
     94 O3    s    0.889770 *  0.175520 *  0.115390 *  -3.33043    1.000000    
     95 O2    s    0.500000 *  0.000000 *  0.000000 *  -2.87073    1.000000    
     96 O3    s    0.000000 *  0.000000 *  0.000000 *  -3.33043    1.000000    
     97 O2    s    0.151750 *  0.500000 *  0.313330 *  -2.87073    1.000000    
     98 O2    s    0.348250 *  0.500000 *  0.313330 *  -2.87073    1.000000    
     99 O2    s    0.848250 *  0.500000 *  0.686670 *  -2.87073    1.000000    
    100 O2    s    0.651750 *  0.500000 *  0.686670 *  -2.87073    1.000000    
    101 O2    s    0.250000 *  0.234950 *  0.285720 *  -2.87073    1.000000    
    102 O2    s    0.250000 *  0.765050 *  0.285720 *  -2.87073    1.000000    
    103 O2    s    0.750000 *  0.234950 *  0.714280 *  -2.87073    1.000000    
    104 O2    s    0.750000 *  0.765050 *  0.714280 *  -2.87073    1.000000    
    105 O2    s    0.131410 *  0.268650 *  0.127790 *  -2.87073    1.000000    
    106 O2    s    0.368590 *  0.731350 *  0.127790 *  -2.87073    1.000000    
    107 O2    s    0.868590 *  0.268650 *  0.872210 *  -2.87073    1.000000    
    108 O2    s    0.631410 *  0.731350 *  0.872210 *  -2.87073    1.000000    
    109 O2    s    0.868590 *  0.731350 *  0.872210 *  -2.87073    1.000000    
    110 O2    s    0.631410 *  0.268650 *  0.872210 *  -2.87073    1.000000    
    111 O2    s    0.131410 *  0.731350 *  0.127790 *  -2.87073    1.000000    
    112 O2    s    0.368590 *  0.268650 *  0.127790 *  -2.87073    1.000000    
    113 O2    s    0.653920 *  0.500000 *  0.058200 *  -2.87073    1.000000    
    114 O2    s    0.846080 *  0.500000 *  0.058200 *  -2.87073    1.000000    
    115 O2    s    0.346080 *  0.500000 *  0.941800 *  -2.87073    1.000000    
    116 O2    s    0.153920 *  0.500000 *  0.941800 *  -2.87073    1.000000    
    117 O2    s    0.750000 *  0.231060 *  0.027050 *  -2.87073    1.000000    
    118 O2    s    0.750000 *  0.768940 *  0.027050 *  -2.87073    1.000000    
    119 O2    s    0.250000 *  0.231060 *  0.972950 *  -2.87073    1.000000    
    120 O2    s    0.250000 *  0.768940 *  0.972950 *  -2.87073    1.000000    
--------------------------------------------------------------------------------



********************************************************************************
*  General input information                                                   *
********************************************************************************

  Species output for all configurations : 

--------------------------------------------------------------------------------
  Species    Type    Atomic    Atomic    Charge       Radii (Angs)     Library
                     Number     Mass       (e)     Cova   Ionic  VDW   Symbol
--------------------------------------------------------------------------------
    Ge       Core       32      72.61   4.000000   1.170  0.000  1.750 Ge       
    Si       Core       14      28.09   4.000000   1.200  0.000  2.100 Si       
    O1       Core        8      16.00   1.733957   0.730  0.000  1.360 O1       
    O2       Core        8      16.00   0.870733   0.730  0.000  1.360 O2       
    O3       Core        8      16.00   1.330431   0.730  0.000  1.360 O3       
    O1       Shell       8       0.00  -3.733957   0.730  0.000  0.000 O1       
    O2       Shell       8       0.00  -2.870733   0.730  0.000  0.000 O2       
    O3       Shell       8       0.00  -3.330431   0.730  0.000  0.000 O3       
--------------------------------------------------------------------------------


  Lattice summation method               =    Ewald          (3-D)
                                         =    Parry          (2-D)
                                         =    Saunders et al (1-D)
  Accuracy factor for lattice sums       =   12.000


  Analytic derivatives to be used

  Time limit = Infinity

  Maximum range for interatomic potentials =    100000.000000 Angstroms

  General interatomic potentials :

--------------------------------------------------------------------------------
Atom  Types   Potential      Parameter       Value         Units   Cutoffs(Ang)
  1     2                                                            Min /  Max 
--------------------------------------------------------------------------------
Si   c O1   s Buckingham    Buckingham A     1315.2478    eV        0.000 16.000
                            Buckingham rho  0.31775900    Ang       
                            Buckingham C     10.141118    eV*Ang^6  
--------------------------------------------------------------------------------
Si   c O2   s Buckingham    Buckingham A     1315.2478    eV        0.000 16.000
                            Buckingham rho  0.31775900    Ang       
                            Buckingham C     10.141118    eV*Ang^6  
--------------------------------------------------------------------------------
Si   c O3   s Buckingham    Buckingham A     1315.2478    eV        0.000 16.000
                            Buckingham rho  0.31775900    Ang       
                            Buckingham C     10.141118    eV*Ang^6  
--------------------------------------------------------------------------------
Ge   c O1   s Buckingham    Buckingham A     1497.3996    eV        0.000 16.000
                            Buckingham rho  0.32564600    Ang       
                            Buckingham C     16.808599    eV*Ang^6  
--------------------------------------------------------------------------------
Ge   c O2   s Buckingham    Buckingham A     1497.3996    eV        0.000 16.000
                            Buckingham rho  0.32564600    Ang       
                            Buckingham C     16.808599    eV*Ang^6  
--------------------------------------------------------------------------------
Ge   c O3   s Buckingham    Buckingham A     1497.3996    eV        0.000 16.000
                            Buckingham rho  0.32564600    Ang       
                            Buckingham C     16.808599    eV*Ang^6  
--------------------------------------------------------------------------------
O1   s O1   s Buckingham    Buckingham A     22764.000    eV        0.000 16.000
                            Buckingham rho  0.14900000    Ang       
                            Buckingham C     10.937044    eV*Ang^6  
--------------------------------------------------------------------------------
O1   s O2   s Buckingham    Buckingham A     22764.000    eV        0.000 16.000
                            Buckingham rho  0.14900000    Ang       
                            Buckingham C     10.937044    eV*Ang^6  
--------------------------------------------------------------------------------
O1   s O3   s Buckingham    Buckingham A     22764.000    eV        0.000 16.000
                            Buckingham rho  0.14900000    Ang       
                            Buckingham C     10.937044    eV*Ang^6  
--------------------------------------------------------------------------------
O2   s O2   s Buckingham    Buckingham A     22764.000    eV        0.000 16.000
                            Buckingham rho  0.14900000    Ang       
                            Buckingham C     10.937044    eV*Ang^6  
--------------------------------------------------------------------------------
O2   s O3   s Buckingham    Buckingham A     22764.000    eV        0.000 16.000
                            Buckingham rho  0.14900000    Ang       
                            Buckingham C     10.937044    eV*Ang^6  
--------------------------------------------------------------------------------
O3   s O3   s Buckingham    Buckingham A     22764.000    eV        0.000 16.000
                            Buckingham rho  0.14900000    Ang       
                            Buckingham C     10.937044    eV*Ang^6  
--------------------------------------------------------------------------------
O1   c O1   s Spring (c-s)  Spring k 2       180.31577    eV*Ang^-2 0.000  0.800
                            Spring k 4       0.0000000    eV*Ang^-4 
--------------------------------------------------------------------------------
O2   c O2   s Spring (c-s)  Spring k 2       75.969800    eV*Ang^-2 0.000  0.800
                            Spring k 4       0.0000000    eV*Ang^-4 
--------------------------------------------------------------------------------
O3   c O3   s Spring (c-s)  Spring k 2       128.14270    eV*Ang^-2 0.000  0.800
                            Spring k 4       0.0000000    eV*Ang^-4 
--------------------------------------------------------------------------------

  General Three-body potentials :

--------------------------------------------------------------------------------
  Atoms       Potential      Parameter       Value         Units   Cutoffs(Ang)
  1 / 2 / 3                                                          Min /  Max 
--------------------------------------------------------------------------------
Si    core    Harmonic      Three-body cnst  1.2614000    eV*rad^-2 0.000  1.900
O1    shel                  Three-body angl  109.47000    degrees   0.000  1.900
O1    shel                  Three-body k4    0.0000000    eV*rad^-4 0.000  3.500
                            Three-body k3    0.0000000    eV*rad^-3 
--------------------------------------------------------------------------------
Si    core    Harmonic      Three-body cnst  1.2614000    eV*rad^-2 0.000  1.900
O1    shel                  Three-body angl  109.47000    degrees   0.000  1.900
õ(1   shel                  Three-body k4    0.0000000    eV*rad^-4 0.000  3.500
                            Three-body k3    0.0000000    eV*rad^-3 
--------------------------------------------------------------------------------
Si    core    Harmonic      Three-body cnst  1.2614000    eV*rad^-2 0.000  1.900
õ(1   shel                  Three-body angl  109.47000    degrees   0.000  1.900
õ(1   shel                  Three-body k4    0.0000000    eV*rad^-4 0.000  3.500
                            Three-body k3    0.0000000    eV*rad^-3 
--------------------------------------------------------------------------------
Si    core    Harmonic      Three-body cnst  1.2614000    eV*rad^-2 0.000  1.900
O1    shel                  Three-body angl  109.47000    degrees   0.000  1.900
O2    shel                  Three-body k4    0.0000000    eV*rad^-4 0.000  3.500
                            Three-body k3    0.0000000    eV*rad^-3 
--------------------------------------------------------------------------------
Si    core    Harmonic      Three-body cnst  1.2614000    eV*rad^-2 0.000  1.900
O1    shel                  Three-body angl  109.47000    degrees   0.000  1.900
õ(2   shel                  Three-body k4    0.0000000    eV*rad^-4 0.000  3.500
                            Three-body k3    0.0000000    eV*rad^-3 
--------------------------------------------------------------------------------
Si    core    Harmonic      Three-body cnst  1.2614000    eV*rad^-2 0.000  1.900
O2    shel                  Three-body angl  109.47000    degrees   0.000  1.900
õ(1   shel                  Three-body k4    0.0000000    eV*rad^-4 0.000  3.500
                            Three-body k3    0.0000000    eV*rad^-3 
--------------------------------------------------------------------------------
Si    core    Harmonic      Three-body cnst  1.2614000    eV*rad^-2 0.000  1.900
õ(1   shel                  Three-body angl  109.47000    degrees   0.000  1.900
õ(2   shel                  Three-body k4    0.0000000    eV*rad^-4 0.000  3.500
                            Three-body k3    0.0000000    eV*rad^-3 
--------------------------------------------------------------------------------
Si    core    Harmonic      Three-body cnst  1.2614000    eV*rad^-2 0.000  1.900
O2    shel                  Three-body angl  109.47000    degrees   0.000  1.900
O2    shel                  Three-body k4    0.0000000    eV*rad^-4 0.000  3.500
                            Three-body k3    0.0000000    eV*rad^-3 
--------------------------------------------------------------------------------
Si    core    Harmonic      Three-body cnst  1.2614000    eV*rad^-2 0.000  1.900
O2    shel                  Three-body angl  109.47000    degrees   0.000  1.900
õ(2   shel                  Three-body k4    0.0000000    eV*rad^-4 0.000  3.500
                            Three-body k3    0.0000000    eV*rad^-3 
--------------------------------------------------------------------------------
Si    core    Harmonic      Three-body cnst  1.2614000    eV*rad^-2 0.000  1.900
õ(2   shel                  Three-body angl  109.47000    degrees   0.000  1.900
õ(2   shel                  Three-body k4    0.0000000    eV*rad^-4 0.000  3.500
                            Three-body k3    0.0000000    eV*rad^-3 
--------------------------------------------------------------------------------

********************************************************************************
*  Output for configuration   1 : c00009.vasp                                  *
********************************************************************************


  Components of energy : 

--------------------------------------------------------------------------------
  Interatomic potentials     =         760.35711597 eV    
  Three-body potentials      =           0.01355905 eV    
  Monopole - monopole (real) =       -2676.00317478 eV    
  Monopole - monopole (recip)=       -1115.35404472 eV    
  Monopole - monopole (total)=       -3791.35721950 eV    
--------------------------------------------------------------------------------
  Total lattice energy       =       -3030.98654449 eV    
--------------------------------------------------------------------------------
  Total lattice energy       =         -292443.8687 kJ/(mole unit cells)
--------------------------------------------------------------------------------


  Number of variables =      363

  Maximum number of calculations  =          1000
  Maximum Hessian update interval =            10
  Maximum step size               =   0.100000000
  Maximum parameter tolerance     =   0.000010000
  Maximum function  tolerance     =   0.000010000
  Maximum gradient  tolerance     =   0.001000000
  Maximum gradient  component     =   0.010000000

  Symmetry not applied to optimisation

  Cell parameters to be optimised using strains

  Newton-Raphson optimiser to be used

  BFGS hessian update to be used

  Lower half triangular hessian to be used

  Minimiser to switch to RFO
  When gradient norm is less than     0.050000

  Dumpfile to be written after every cycle

  Start of bulk optimisation :

  Cycle:      0 Energy:     -3030.986544  Gnorm:      4.263988  CPU:    0.124
  ** Hessian calculated **
  Cycle:      1 Energy:     -3055.097310  Gnorm:      2.393967  CPU:    0.330
  ** Hessian calculated **
  Cycle:      2 Energy:     -3066.765706  Gnorm:      0.468019  CPU:    0.634
  ** Hessian calculated **
  Cycle:      3 Energy:     -3067.516803  Gnorm:      0.241078  CPU:    0.877
  Cycle:      4 Energy:     -3067.781670  Gnorm:      0.115471  CPU:    1.014
  ** Hessian calculated **
  Cycle:      5 Energy:     -3067.866485  Gnorm:      0.060277  CPU:    1.256
  Cycle:      6 Energy:     -3067.897977  Gnorm:      0.031865  CPU:    1.391
  ** Hessian has wrong structure
  ** Imaginary eigenvectors =   2
  Cycle:      7 Energy:     -3067.899455  Gnorm:      0.057001  CPU:    1.636
  ** Hessian has wrong structure
  ** Imaginary eigenvectors =   2
  ** Hessian has wrong structure
  ** Imaginary eigenvectors =   2
  Cycle:      8 Energy:     -3067.926835  Gnorm:      0.068778  CPU:    2.239
  ** Hessian has wrong structure
  ** Imaginary eigenvectors =   1
  ** Hessian has required structure
  Cycle:      9 Energy:     -3068.093860  Gnorm:      0.055528  CPU:    2.846
  ** Hessian has required structure
  Cycle:     10 Energy:     -3068.177638  Gnorm:      0.025905  CPU:    3.056
  ** Hessian has required structure
  Cycle:     11 Energy:     -3068.202561  Gnorm:      0.022237  CPU:    3.244
  ** Hessian has required structure
  Cycle:     12 Energy:     -3068.220606  Gnorm:      0.013682  CPU:    3.431
  ** Hessian has required structure
  Cycle:     13 Energy:     -3068.229552  Gnorm:      0.015417  CPU:    3.620
  ** Hessian has required structure
  Cycle:     14 Energy:     -3068.235267  Gnorm:      0.009229  CPU:    3.828
  ** Hessian has required structure
  Cycle:     15 Energy:     -3068.238010  Gnorm:      0.010743  CPU:    4.015
  ** Hessian has required structure
  Cycle:     16 Energy:     -3068.240276  Gnorm:      0.006812  CPU:    4.202
  ** Hessian has required structure
  Cycle:     17 Energy:     -3068.241124  Gnorm:      0.005259  CPU:    4.385
  ** Hessian has required structure
  Cycle:     18 Energy:     -3068.241574  Gnorm:      0.003464  CPU:    4.567
  ** Hessian has required structure
  Cycle:     19 Energy:     -3068.241776  Gnorm:      0.002350  CPU:    4.864
  ** Hessian has required structure
  Cycle:     20 Energy:     -3068.241900  Gnorm:      0.001243  CPU:    5.064
  ** Hessian has required structure
  Cycle:     21 Energy:     -3068.241931  Gnorm:      0.000743  CPU:    5.236
  ** Hessian has required structure
  Cycle:     22 Energy:     -3068.241943  Gnorm:      0.000382  CPU:    5.427
  ** Hessian has required structure
  Cycle:     23 Energy:     -3068.241946  Gnorm:      0.000265  CPU:    5.580
  ** Hessian has required structure
  Cycle:     24 Energy:     -3068.241946  Gnorm:      0.000262  CPU:    5.737
  ** Hessian has required structure
  Cycle:     25 Energy:     -3068.241946  Gnorm:      0.000261  CPU:    5.895
  ** Hessian has required structure
  Cycle:     26 Energy:     -3068.241946  Gnorm:      0.000260  CPU:    6.055
  ** Hessian has required structure
  Cycle:     27 Energy:     -3068.241946  Gnorm:      0.000260  CPU:    6.213
  ** Hessian has required structure
  Cycle:     28 Energy:     -3068.241946  Gnorm:      0.000258  CPU:    6.372
  ** Hessian has required structure
  Cycle:     29 Energy:     -3068.241946  Gnorm:      0.000258  CPU:    6.685
  ** Hessian calculated **
  Cycle:     30 Energy:     -3068.241946  Gnorm:      0.000144  CPU:    6.879
  ** Hessian has required structure
  Cycle:     31 Energy:     -3068.241946  Gnorm:      0.000221  CPU:    7.036
  ** Hessian has required structure
  Cycle:     32 Energy:     -3068.241946  Gnorm:      0.000259  CPU:    7.194
  ** Hessian has required structure
  Cycle:     33 Energy:     -3068.241946  Gnorm:      0.000227  CPU:    7.351
  ** Hessian has required structure
  Cycle:     34 Energy:     -3068.241946  Gnorm:      0.000202  CPU:    7.508
  ** Hessian has required structure
  Cycle:     35 Energy:     -3068.241946  Gnorm:      0.000195  CPU:    7.666
  ** Hessian has required structure
  Cycle:     36 Energy:     -3068.241946  Gnorm:      0.000191  CPU:    7.822
  ** Hessian has required structure
  Cycle:     37 Energy:     -3068.241947  Gnorm:      0.000176  CPU:    7.975
  ** Hessian has required structure
  Cycle:     38 Energy:     -3068.241947  Gnorm:      0.000162  CPU:    8.133
  ** Hessian has required structure
  Cycle:     39 Energy:     -3068.241947  Gnorm:      0.000158  CPU:    8.286
  ** Hessian has required structure
  Cycle:     40 Energy:     -3068.241947  Gnorm:      0.000158  CPU:    8.575
  ** Hessian has required structure
  Cycle:     41 Energy:     -3068.241947  Gnorm:      0.000157  CPU:    8.729
  ** Hessian has required structure
  Cycle:     42 Energy:     -3068.241947  Gnorm:      0.000157  CPU:    8.884
  ** Hessian has required structure
  Cycle:     43 Energy:     -3068.241947  Gnorm:      0.000157  CPU:    9.040
  ** Hessian has required structure
  Cycle:     44 Energy:     -3068.241947  Gnorm:      0.000157  CPU:    9.194
  ** Hessian has required structure
  Cycle:     45 Energy:     -3068.241947  Gnorm:      0.000157  CPU:    9.357
  ** Hessian has required structure
  Cycle:     46 Energy:     -3068.241947  Gnorm:      0.000157  CPU:    9.524
  ** Hessian has required structure
  Cycle:     47 Energy:     -3068.241947  Gnorm:      0.000156  CPU:    9.687
  ** Hessian has required structure
  Cycle:     48 Energy:     -3068.241947  Gnorm:      0.000156  CPU:    9.853
  ** Hessian has required structure
  Cycle:     49 Energy:     -3068.241947  Gnorm:      0.000156  CPU:   10.000
  ** Hessian has required structure
  Cycle:     50 Energy:     -3068.241947  Gnorm:      0.000156  CPU:   10.305
  ** Hessian calculated **


  **** Optimisation achieved ****


  Final energy =   -3068.24194665 eV      
  Final Gnorm  =       0.00007250

  Components of energy : 

--------------------------------------------------------------------------------
  Interatomic potentials     =         816.08855756 eV    
  Three-body potentials      =           0.21480418 eV    
  Monopole - monopole (real) =       -2207.61894239 eV    
  Monopole - monopole (recip)=       -1676.92636601 eV    
  Monopole - monopole (total)=       -3884.54530839 eV    
--------------------------------------------------------------------------------
  Total lattice energy       =       -3068.24194665 eV    
--------------------------------------------------------------------------------
  Total lattice energy       =         -296038.4455 kJ/(mole unit cells)
--------------------------------------------------------------------------------

  Final fractional coordinates of atoms :

--------------------------------------------------------------------------------
   No.  Atomic        x           y          z          Radius
        Label       (Frac)      (Frac)     (Frac)       (Angs) 
--------------------------------------------------------------------------------
     1  Ge    c     0.052090    0.000000    0.372270    0.000000
     2  Ge    c     0.944852    0.004967    0.634018    0.000000
     3  Ge    c     0.942074    0.003315    0.109423    0.000000
     4  Si    c     0.449982    0.997998    0.392790    0.000000
     5  Si    c     0.546048    0.996042    0.656389    0.000000
     6  Si    c     0.552246    0.995212    0.145590    0.000000
     7  Si    c     0.438144    0.000718    0.905553    0.000000
     8  Si    c     0.055616    0.999839    0.874450    0.000000
     9  Si    c     0.162945    0.301299    0.304798    0.000000
    10  Si    c     0.343945    0.696234    0.295653    0.000000
    11  Si    c     0.835336    0.304189    0.739856    0.000000
    12  Si    c     0.651770    0.692839    0.733567    0.000000
    13  Si    c     0.829008    0.712150    0.740526    0.000000
    14  Si    c     0.657790    0.291235    0.733428    0.000000
    15  Si    c     0.166117    0.705527    0.304592    0.000000
    16  Si    c     0.340566    0.294848    0.294964    0.000000
    17  Si    c     0.657700    0.291654    0.042612    0.000000
    18  Si    c     0.827203    0.710074    0.046218    0.000000
    19  Si    c     0.333010    0.297404    0.985756    0.000000
    20  Si    c     0.159178    0.704717    0.996966    0.000000
    21  Si    c     0.337339    0.694807    0.986956    0.000000
    22  Si    c     0.155143    0.302515    0.997013    0.000000
    23  Si    c     0.649750    0.688425    0.042752    0.000000
    24  Si    c     0.835496    0.309028    0.045373    0.000000
    25  O3    c     0.108446    0.186490    0.393892    0.000000
    26  O2    c     0.400670    0.820779    0.377845    0.000000
    27  O3    c     0.893779    0.196458    0.653245    0.000000
    28  O2    c     0.594837    0.816805    0.650183    0.000000
    29  O3    c     0.884457    0.827906    0.653840    0.000000
    30  O2    c     0.604565    0.160121    0.648818    0.000000
    31  O3    c     0.113968    0.823515    0.394986    0.000000
    32  O2    c     0.395614    0.166321    0.376084    0.000000
    33  O1    c     0.975106    0.998217    0.473499    0.000000
    34  O2    c     0.485374    0.002852    0.538182    0.000000
    35  O1    c     0.017684    0.991278    0.213494    0.000000
    36  O2    c     0.520708    0.002097    0.292738    0.000000
    37  O3    c     0.031153    0.998905    0.721917    0.000000
    38  O2    c     0.498196    0.006185    0.789580    0.000000
    39  O2    c     0.611006    0.155575    0.129733    0.000000
    40  O3    c     0.877623    0.833694    0.137010    0.000000
    41  O2    c     0.380837    0.166121    0.894924    0.000000
    42  O2    c     0.108030    0.831707    0.907432    0.000000
    43  O2    c     0.388746    0.821782    0.897841    0.000000
    44  O2    c     0.099477    0.180238    0.910804    0.000000
    45  O2    c     0.594690    0.810640    0.127121    0.000000
    46  O3    c     0.891595    0.195939    0.134356    0.000000
    47  O2    c     0.481796    0.013919    0.044677    0.000000
    48  O3    c     0.975709    0.989204    0.950125    0.000000
    49  O2    c     0.145726    0.503965    0.331801    0.000000
    50  O2    c     0.363544    0.494756    0.328306    0.000000
    51  O2    c     0.851613    0.509740    0.721684    0.000000
    52  O2    c     0.633784    0.490453    0.700372    0.000000
    53  O2    c     0.252482    0.259717    0.335725    0.000000
    54  O2    c     0.256399    0.738787    0.334858    0.000000
    55  O2    c     0.747008    0.261277    0.697206    0.000000
    56  O2    c     0.739752    0.738322    0.697116    0.000000
    57  O2    c     0.144546    0.256211    0.150813    0.000000
    58  O2    c     0.355248    0.732678    0.140535    0.000000
    59  O2    c     0.847972    0.250795    0.893061    0.000000
    60  O2    c     0.638023    0.729541    0.888147    0.000000
    61  O2    c     0.838364    0.768289    0.893699    0.000000
    62  O2    c     0.645863    0.250237    0.887979    0.000000
    63  O2    c     0.148539    0.751963    0.150596    0.000000
    64  O2    c     0.349560    0.258326    0.139497    0.000000
    65  O2    c     0.627969    0.487342    0.072788    0.000000
    66  O2    c     0.855940    0.511924    0.065203    0.000000
    67  O2    c     0.358041    0.495236    0.951245    0.000000
    68  O2    c     0.132656    0.504661    0.970833    0.000000
    69  O2    c     0.746925    0.274353    0.083224    0.000000
    70  O2    c     0.737781    0.725180    0.084676    0.000000
    71  O2    c     0.242825    0.269813    0.954103    0.000000
    72  O2    c     0.247711    0.729971    0.956121    0.000000
    73  O3    s     0.109789    0.184132    0.382895    0.000000
    74  O2    s     0.399600    0.826005    0.370101    0.000000
    75  O3    s     0.891758    0.192229    0.660875    0.000000
    76  O2    s     0.595921    0.822211    0.660003    0.000000
    77  O3    s     0.883516    0.830175    0.661523    0.000000
    78  O2    s     0.604230    0.157150    0.658983    0.000000
    79  O3    s     0.114648    0.824720    0.383762    0.000000
    80  O2    s     0.395289    0.162484    0.368610    0.000000
    81  O1    s     0.979052    0.998895    0.477613    0.000000
    82  O2    s     0.488389    0.001475    0.535110    0.000000
    83  O1    s     0.013850    0.993013    0.217041    0.000000
    84  O2    s     0.516411    0.000848    0.287094    0.000000
    85  O3    s     0.026880    0.999470    0.730203    0.000000
    86  O2    s     0.496489    0.004359    0.788245    0.000000
    87  O2    s     0.609869    0.153432    0.121387    0.000000
    88  O3    s     0.877315    0.833791    0.125206    0.000000
    89  O2    s     0.381626    0.163085    0.906134    0.000000
    90  O2    s     0.108205    0.835440    0.914068    0.000000
    91  O2    s     0.388310    0.826740    0.908520    0.000000
    92  O2    s     0.101118    0.174877    0.916708    0.000000
    93  O2    s     0.596327    0.816909    0.119466    0.000000
    94  O3    s     0.889650    0.192834    0.123099    0.000000
    95  O2    s     0.484918    0.010291    0.040491    0.000000
    96  O3    s     0.980966    0.991407    0.955241    0.000000
    97  O2    s     0.149843    0.503703    0.325875    0.000000
    98  O2    s     0.358988    0.495016    0.321263    0.000000
    99  O2    s     0.847414    0.509224    0.725668    0.000000
   100  O2    s     0.638271    0.490937    0.707418    0.000000
   101  O2    s     0.252458    0.267909    0.328058    0.000000
   102  O2    s     0.256219    0.730639    0.327396    0.000000
   103  O2    s     0.746665    0.268923    0.705469    0.000000
   104  O2    s     0.739706    0.730735    0.705515    0.000000
   105  O2    s     0.147532    0.265656    0.150058    0.000000
   106  O2    s     0.352101    0.724731    0.140650    0.000000
   107  O2    s     0.845405    0.262089    0.892729    0.000000
   108  O2    s     0.640760    0.721229    0.888321    0.000000
   109  O2    s     0.836255    0.756608    0.893387    0.000000
   110  O2    s     0.648412    0.259033    0.888176    0.000000
   111  O2    s     0.151456    0.742272    0.149853    0.000000
   112  O2    s     0.346783    0.266467    0.139672    0.000000
   113  O2    s     0.633427    0.488057    0.066377    0.000000
   114  O2    s     0.850600    0.511070    0.060990    0.000000
   115  O2    s     0.353146    0.495533    0.958761    0.000000
   116  O2    s     0.137787    0.504389    0.976338    0.000000
   117  O2    s     0.746670    0.280024    0.074679    0.000000
   118  O2    s     0.737824    0.719499    0.075939    0.000000
   119  O2    s     0.243095    0.276422    0.962227    0.000000
   120  O2    s     0.247844    0.723324    0.963961    0.000000
--------------------------------------------------------------------------------

  Final Cartesian lattice vectors (Angstroms) :

       17.356479   -0.023326   -0.094481
       -0.010251    7.651813   -0.000630
       -0.058282   -0.000905   10.124373


  Final cell parameters and derivatives :

--------------------------------------------------------------------------------
       a           17.356752 Angstrom     dE/de1(xx)     0.004849 eV/strain
       b            7.651820 Angstrom     dE/de2(yy)     0.005760 eV/strain
       c           10.124541 Angstrom     dE/de3(zz)     0.003527 eV/strain
       alpha       90.009396 Degrees      dE/de4(yz)     0.000124 eV/strain
       beta        90.641707 Degrees      dE/de5(xz)    -0.001277 eV/strain
       gamma       90.153733 Degrees      dE/de6(xy)    -0.000312 eV/strain
--------------------------------------------------------------------------------

  Primitive cell volume =          1344.558645 Angs**3

  Density of cell =      1.946056 g/cm**3

  Non-primitive cell volume =          1344.558645 Angs**3


  Final internal derivatives :

--------------------------------------------------------------------------------
   No.  Atomic          a             b             c           Radius
        Label          (eV)          (eV)          (eV)        (eV/Angs)
--------------------------------------------------------------------------------
      1 Ge    c       0.000000      0.000000      0.000000      0.000000
      2 Ge    c      -0.000221     -0.000279     -0.000223      0.000000
      3 Ge    c       0.004370      0.000367     -0.002002      0.000000
      4 Si    c       0.002503     -0.000129     -0.001490      0.000000
      5 Si    c       0.005914     -0.000191     -0.000170      0.000000
      6 Si    c      -0.002338     -0.000081      0.001758      0.000000
      7 Si    c      -0.001328     -0.000091      0.002580      0.000000
      8 Si    c      -0.000560      0.000225      0.000106      0.000000
      9 Si    c      -0.000029     -0.000065     -0.001110      0.000000
     10 Si    c       0.000532      0.000426      0.000625      0.000000
     11 Si    c       0.000087      0.000288     -0.000137      0.000000
     12 Si    c       0.000241      0.001810     -0.001276      0.000000
     13 Si    c       0.001021      0.000354      0.001215      0.000000
     14 Si    c      -0.000135     -0.001786     -0.000495      0.000000
     15 Si    c      -0.000105      0.000057     -0.000809      0.000000
     16 Si    c       0.000316     -0.000321      0.000223      0.000000
     17 Si    c      -0.000296     -0.001102     -0.000939      0.000000
     18 Si    c       0.001164      0.000665     -0.001971      0.000000
     19 Si    c       0.000271     -0.000997     -0.000187      0.000000
     20 Si    c      -0.000171     -0.000190      0.001060      0.000000
     21 Si    c       0.000612      0.001075     -0.000595      0.000000
     22 Si    c      -0.000596     -0.000115      0.001097      0.000000
     23 Si    c       0.000494      0.001198      0.000075      0.000000
     24 Si    c       0.000866     -0.000349     -0.000106      0.000000
     25 O3    c       0.000343      0.000545      0.000339      0.000000
     26 O2    c      -0.000296     -0.000206     -0.000406      0.000000
     27 O3    c       0.003465      0.000015      0.000369      0.000000
     28 O2    c      -0.000962     -0.000624     -0.000128      0.000000
     29 O3    c       0.004205      0.000121      0.000517      0.000000
     30 O2    c      -0.001169      0.001235     -0.000296      0.000000
     31 O3    c       0.001084     -0.000971      0.000092      0.000000
     32 O2    c      -0.000175      0.000453     -0.000060      0.000000
     33 O1    c      -0.002537      0.000010      0.002577      0.000000
     34 O2    c      -0.002519      0.000039     -0.002283      0.000000
     35 O1    c       0.009171      0.000627      0.005081      0.000000
     36 O2    c      -0.000028     -0.000043      0.001089      0.000000
     37 O3    c       0.001022      0.000159      0.001780      0.000000
     38 O2    c      -0.002200     -0.000092     -0.002017      0.000000
     39 O2    c       0.001292      0.000860      0.000908      0.000000
     40 O3    c       0.000596      0.000498      0.001904      0.000000
     41 O2    c       0.000596      0.000885     -0.000372      0.000000
     42 O2    c      -0.000505      0.000057     -0.000185      0.000000
     43 O2    c       0.000378     -0.001153     -0.000174      0.000000
     44 O2    c      -0.001219     -0.000444      0.000229      0.000000
     45 O2    c       0.001400     -0.001376     -0.000294      0.000000
     46 O3    c       0.000613      0.000554      0.001027      0.000000
     47 O2    c      -0.000275      0.000527     -0.000182      0.000000
     48 O3    c      -0.004092     -0.001482      0.003177      0.000000
     49 O2    c      -0.000714     -0.000295      0.000296      0.000000
     50 O2    c      -0.000294     -0.000016     -0.000367      0.000000
     51 O2    c       0.001290     -0.000318     -0.000070      0.000000
     52 O2    c       0.000247      0.000630      0.001359      0.000000
     53 O2    c       0.000316      0.000254      0.000465      0.000000
     54 O2    c       0.000223     -0.000288      0.000416      0.000000
     55 O2    c      -0.001788      0.000672      0.000246      0.000000
     56 O2    c      -0.002072     -0.000803     -0.000042      0.000000
     57 O2    c      -0.001126      0.000324     -0.000025      0.000000
     58 O2    c      -0.000802     -0.000483     -0.000017      0.000000
     59 O2    c       0.000747      0.000200      0.001002      0.000000
     60 O2    c       0.000577     -0.000372      0.000641      0.000000
     61 O2    c       0.000186     -0.000167      0.000752      0.000000
     62 O2    c       0.000593      0.000533      0.000567      0.000000
     63 O2    c      -0.001010     -0.000394     -0.000088      0.000000
     64 O2    c      -0.000419      0.000374      0.000045      0.000000
     65 O2    c       0.000478      0.000615     -0.000813      0.000000
     66 O2    c       0.001518     -0.000196      0.000884      0.000000
     67 O2    c      -0.000379     -0.000298      0.001248      0.000000
     68 O2    c      -0.001771     -0.000131     -0.000208      0.000000
     69 O2    c       0.001649      0.000468      0.000425      0.000000
     70 O2    c      -0.000476     -0.000359      0.000990      0.000000
     71 O2    c       0.000000      0.000286     -0.000152      0.000000
     72 O2    c       0.000247     -0.000509     -0.000121      0.000000
     73 O3    s      -0.001551      0.000388      0.000791      0.000000
     74 O2    s       0.000998      0.000278     -0.000841      0.000000
     75 O3    s      -0.001908      0.000449     -0.000846      0.000000
     76 O2    s       0.001426      0.001110      0.000308      0.000000
     77 O3    s      -0.002555     -0.000484     -0.001129      0.000000
     78 O2    s       0.001440     -0.001575      0.000956      0.000000
     79 O3    s      -0.002105     -0.000085      0.000841      0.000000
     80 O2    s       0.000789     -0.000443     -0.000561      0.000000
     81 O1    s       0.000981     -0.000067     -0.003473      0.000000
     82 O2    s       0.000855     -0.000250     -0.001609      0.000000
     83 O1    s      -0.005579     -0.000176     -0.006793      0.000000
     84 O2    s      -0.001046      0.000122     -0.000129      0.000000
     85 O3    s       0.001312      0.000218     -0.001750      0.000000
     86 O2    s      -0.000328      0.000228     -0.000724      0.000000
     87 O2    s       0.000028      0.000164      0.000444      0.000000
     88 O3    s       0.001308     -0.000902     -0.000373      0.000000
     89 O2    s      -0.000693     -0.000882      0.000686      0.000000
     90 O2    s      -0.001449     -0.000269      0.000323      0.000000
     91 O2    s      -0.000454      0.000939      0.001129      0.000000
     92 O2    s      -0.001969      0.001586      0.001054      0.000000
     93 O2    s       0.000312     -0.001111      0.000032      0.000000
     94 O3    s       0.000474      0.001051     -0.000618      0.000000
     95 O2    s      -0.001483      0.000265      0.000146      0.000000
     96 O3    s       0.001726     -0.000403     -0.002019      0.000000
     97 O2    s      -0.002470      0.000144     -0.000396      0.000000
     98 O2    s       0.000802     -0.000018     -0.000023      0.000000
     99 O2    s       0.003213     -0.000018      0.000746      0.000000
    100 O2    s      -0.000399     -0.000307     -0.000374      0.000000
    101 O2    s      -0.000248     -0.000463      0.000376      0.000000
    102 O2    s      -0.000344      0.000592      0.000491      0.000000
    103 O2    s      -0.001283     -0.000563     -0.000313      0.000000
    104 O2    s      -0.002170      0.000589     -0.000691      0.000000
    105 O2    s      -0.000250      0.000257      0.000519      0.000000
    106 O2    s      -0.000219      0.000473      0.000132      0.000000
    107 O2    s       0.001981     -0.000274      0.001213      0.000000
    108 O2    s       0.000323      0.000858      0.000450      0.000000
    109 O2    s       0.001535      0.000194      0.001384      0.000000
    110 O2    s       0.000243     -0.001285      0.000434      0.000000
    111 O2    s      -0.000611     -0.000069      0.000334      0.000000
    112 O2    s      -0.000502     -0.000364      0.000080      0.000000
    113 O2    s      -0.000844     -0.000289     -0.000453      0.000000
    114 O2    s       0.003261     -0.000028     -0.001103      0.000000
    115 O2    s       0.000125      0.000040      0.000193      0.000000
    116 O2    s      -0.003104      0.000171      0.000972      0.000000
    117 O2    s       0.001342     -0.000418     -0.000190      0.000000
    118 O2    s      -0.001776      0.000428      0.000199      0.000000
    119 O2    s       0.001082     -0.000577     -0.000198      0.000000
    120 O2    s       0.001480      0.000358     -0.000153      0.000000
--------------------------------------------------------------------------------
  Maximum abs         0.009171      0.001810      0.006793      0.000000
--------------------------------------------------------------------------------


  Born effective charge tensors : 

-------------------------------------------------------------------------------
  Atom             x           y             z
-------------------------------------------------------------------------------
    1 Ge    x       4.4194      0.0346      0.0394
            y      -0.0300      3.9048      0.0006
            z      -0.9874      0.0134      4.4761
-------------------------------------------------------------------------------
    2 Ge    x       4.3555     -0.0572     -0.5024
            y       0.0462      3.9441      0.0117
            z      -0.3163      0.0376      4.6323
-------------------------------------------------------------------------------
    3 Ge    x       4.5789     -0.1033     -0.0185
            y       0.0577      3.9274     -0.0282
            z       0.8356     -0.0423      3.5226
-------------------------------------------------------------------------------
    4 Si    x       3.3870      0.0229      0.3223
            y      -0.0364      3.2787     -0.0021
            z       0.2964      0.0184      3.8335
-------------------------------------------------------------------------------
    5 Si    x       3.4351     -0.0600      0.0250
            y       0.0483      3.2633     -0.0042
            z       0.6143     -0.0139      3.7321
-------------------------------------------------------------------------------
    6 Si    x       3.4718     -0.0774     -0.3138
            y       0.0835      3.2879      0.0061
            z      -0.3797      0.0182      3.1369
-------------------------------------------------------------------------------
    7 Si    x       3.4898      0.0477     -0.0700
            y      -0.0472      3.2736     -0.0081
            z      -0.6227     -0.0060      3.0220
-------------------------------------------------------------------------------
    8 Si    x       3.9813      0.0426      0.4224
            y      -0.0389      3.3947     -0.0023
            z       0.3330      0.0007      3.6247
-------------------------------------------------------------------------------
    9 Si    x       3.3924      0.3671     -0.2491
            y       0.3885      3.5304     -0.3164
            z      -0.2373     -0.1751      2.9965
-------------------------------------------------------------------------------
   10 Si    x       3.1514      0.2351      0.0917
            y       0.2770      3.4443      0.1459
            z       0.1087      0.0947      2.8316
-------------------------------------------------------------------------------
   11 Si    x       3.4751     -0.3591     -0.2410
            y      -0.4207      3.5451      0.3391
            z      -0.2662      0.1552      2.9430
-------------------------------------------------------------------------------
   12 Si    x       3.1681     -0.2473      0.0878
            y      -0.2891      3.4510     -0.1530
            z       0.1068     -0.0791      2.8097
-------------------------------------------------------------------------------
   13 Si    x       3.4551      0.4012     -0.2461
            y       0.3795      3.5795     -0.3355
            z      -0.2673     -0.1653      2.9439
-------------------------------------------------------------------------------
   14 Si    x       3.1748      0.2828      0.1107
            y       0.2388      3.4608      0.1445
            z       0.1088      0.0698      2.8061
-------------------------------------------------------------------------------
   15 Si    x       3.3808     -0.3878     -0.2612
            y      -0.3673      3.5503      0.3217
            z      -0.2271      0.1732      2.9947
-------------------------------------------------------------------------------
   16 Si    x       3.1549     -0.2586      0.0995
            y      -0.2559      3.4605     -0.1396
            z       0.1186     -0.0971      2.8343
-------------------------------------------------------------------------------
   17 Si    x       3.1811      0.3009     -0.1611
            y       0.1684      3.4373     -0.1688
            z      -0.1387     -0.0928      2.7510
-------------------------------------------------------------------------------
   18 Si    x       3.4397      0.4525      0.2690
            y       0.3105      3.5443      0.3447
            z       0.2255      0.1354      2.8124
-------------------------------------------------------------------------------
   19 Si    x       3.2273     -0.2919     -0.1611
            y      -0.1939      3.4307      0.1596
            z      -0.1086      0.0764      2.7263
-------------------------------------------------------------------------------
   20 Si    x       3.2395     -0.2552      0.1622
            y      -0.1773      3.4410     -0.1949
            z       0.1451     -0.0779      2.7377
-------------------------------------------------------------------------------
   21 Si    x       3.2334      0.2707     -0.1508
            y       0.2347      3.4171     -0.1562
            z      -0.1125     -0.0777      2.7227
-------------------------------------------------------------------------------
   22 Si    x       3.2555      0.2426      0.1440
            y       0.2231      3.4271      0.1865
            z       0.1589      0.0691      2.7256
-------------------------------------------------------------------------------
   23 Si    x       3.2048     -0.2520     -0.1495
            y      -0.2519      3.4099      0.1651
            z      -0.1675      0.0762      2.7413
-------------------------------------------------------------------------------
   24 Si    x       3.4879     -0.4123      0.2769
            y      -0.3783      3.5008     -0.3305
            z       0.2497     -0.1165      2.8044
-------------------------------------------------------------------------------
   25 O3    x      -2.0379     -0.9301      0.4073
            y      -0.9486     -2.3224      0.4251
            z       0.5398      0.4351     -1.5922
-------------------------------------------------------------------------------
   26 O2    x      -1.6665     -0.7219     -0.3507
            y      -0.7176     -2.0095     -0.3606
            z      -0.3552     -0.3581     -1.3593
-------------------------------------------------------------------------------
   27 O3    x      -2.1172      0.9645      0.5724
            y       0.9628     -2.3355     -0.5533
            z       0.5610     -0.5121     -1.6077
-------------------------------------------------------------------------------
   28 O2    x      -1.6680      0.7287     -0.2641
            y       0.7194     -2.0134      0.2912
            z      -0.3566      0.2998     -1.3351
-------------------------------------------------------------------------------
   29 O3    x      -2.1482     -0.9751      0.5703
            y      -1.0111     -2.3287      0.5663
            z       0.5715      0.5251     -1.6072
-------------------------------------------------------------------------------
   30 O2    x      -1.7132     -0.7309     -0.2585
            y      -0.7558     -1.9795     -0.2928
            z      -0.3497     -0.2964     -1.3362
-------------------------------------------------------------------------------
   31 O3    x      -2.0556      0.9314      0.3980
            y       0.9734     -2.3087     -0.4331
            z       0.5238     -0.4309     -1.5945
-------------------------------------------------------------------------------
   32 O2    x      -1.6983      0.7353     -0.3589
            y       0.7498     -2.0032      0.3677
            z      -0.3658      0.3612     -1.3564
-------------------------------------------------------------------------------
   33 O1    x      -2.2884      0.0149      1.1262
            y      -0.0055     -1.2905     -0.0080
            z       1.3919     -0.0308     -3.4181
-------------------------------------------------------------------------------
   34 O2    x      -1.6212      0.0111     -0.7909
            y       0.0039     -1.0905      0.0054
            z      -1.0156      0.0090     -2.7310
-------------------------------------------------------------------------------
   35 O1    x      -2.3553      0.0368     -1.0353
            y       0.0219     -1.3428      0.0164
            z      -0.9688      0.0178     -2.7158
-------------------------------------------------------------------------------
   36 O2    x      -1.7051      0.0145      0.6696
            y      -0.0070     -1.1090     -0.0083
            z       0.6614     -0.0192     -2.2121
-------------------------------------------------------------------------------
   37 O3    x      -2.0892      0.0146     -0.8207
            y       0.0196     -1.2245      0.0114
            z      -0.8214      0.0081     -2.7136
-------------------------------------------------------------------------------
   38 O2    x      -1.7679      0.0063      0.7367
            y       0.0010     -1.1205     -0.0061
            z       0.7628     -0.0093     -2.1834
-------------------------------------------------------------------------------
   39 O2    x      -1.7064     -0.7261      0.3816
            y      -0.6936     -1.9777      0.3933
            z       0.3608      0.3696     -1.2641
-------------------------------------------------------------------------------
   40 O3    x      -2.1242     -0.9667     -0.3584
            y      -0.9496     -2.2975     -0.4025
            z      -0.4547     -0.3846     -1.4450
-------------------------------------------------------------------------------
   41 O2    x      -1.7063      0.7225      0.2679
            y       0.6969     -1.9684     -0.3071
            z       0.3283     -0.2983     -1.2380
-------------------------------------------------------------------------------
   42 O2    x      -1.7133      0.7137     -0.4455
            y       0.6546     -2.0041      0.4552
            z      -0.3772      0.3986     -1.3114
-------------------------------------------------------------------------------
   43 O2    x      -1.6721     -0.7169      0.2804
            y      -0.6680     -2.0010      0.3132
            z       0.3412      0.3076     -1.2326
-------------------------------------------------------------------------------
   44 O2    x      -1.7002     -0.6998     -0.4331
            y      -0.6250     -2.0270     -0.4538
            z      -0.3756     -0.4008     -1.3045
-------------------------------------------------------------------------------
   45 O2    x      -1.6637      0.7104      0.3783
            y       0.6481     -2.0222     -0.3891
            z       0.3683     -0.3667     -1.2547
-------------------------------------------------------------------------------
   46 O3    x      -2.1004      0.9659     -0.3962
            y       0.9054     -2.3296      0.3891
            z      -0.4827      0.3751     -1.4362
-------------------------------------------------------------------------------
   47 O2    x      -1.8204      0.0250     -0.5867
            y       0.0153     -1.1608      0.0096
            z      -0.3301      0.0029     -1.7123
-------------------------------------------------------------------------------
   48 O3    x      -2.4551     -0.0154      0.7827
            y      -0.0263     -1.2968     -0.0005
            z       0.4124     -0.0098     -1.9037
-------------------------------------------------------------------------------
   49 O2    x      -1.1772     -0.0146      0.0717
            y      -0.0226     -2.4557      0.0017
            z       0.0833      0.0004     -1.0944
-------------------------------------------------------------------------------
   50 O2    x      -1.1415     -0.0140     -0.0608
            y      -0.0265     -2.5598     -0.0036
            z      -0.0751      0.0014     -1.0795
-------------------------------------------------------------------------------
   51 O2    x      -1.1978      0.0294      0.0543
            y       0.0511     -2.5248     -0.0043
            z       0.0736      0.0044     -1.0647
-------------------------------------------------------------------------------
   52 O2    x      -1.1415      0.0260     -0.0641
            y       0.0526     -2.5572      0.0002
            z      -0.0785     -0.0035     -1.0784
-------------------------------------------------------------------------------
   53 O2    x      -2.3483      0.0403      0.0304
            y       0.0363     -1.2514      0.0684
            z       0.0313      0.0530     -1.0844
-------------------------------------------------------------------------------
   54 O2    x      -2.3478      0.0115      0.0264
            y      -0.0111     -1.2487     -0.0692
            z       0.0236     -0.0529     -1.0801
-------------------------------------------------------------------------------
   55 O2    x      -2.3752     -0.0542     -0.0354
            y      -0.0373     -1.2517     -0.0775
            z      -0.0080     -0.0508     -1.0850
-------------------------------------------------------------------------------
   56 O2    x      -2.3660     -0.0415     -0.0393
            y      -0.0125     -1.2487      0.0745
            z      -0.0180      0.0511     -1.0860
-------------------------------------------------------------------------------
   57 O2    x      -1.2154     -0.1311     -0.0664
            y      -0.1181     -1.2870     -0.0020
            z      -0.0721     -0.0031     -2.0506
-------------------------------------------------------------------------------
   58 O2    x      -1.1833     -0.1252     -0.0133
            y      -0.1185     -1.2651      0.0066
            z      -0.0075      0.0066     -2.0738
-------------------------------------------------------------------------------
   59 O2    x      -1.2391      0.1559     -0.0238
            y       0.1335     -1.3218      0.0076
            z      -0.0245      0.0023     -1.9739
-------------------------------------------------------------------------------
   60 O2    x      -1.1762      0.1200      0.0377
            y       0.1180     -1.2673      0.0125
            z       0.0404      0.0145     -2.0772
-------------------------------------------------------------------------------
   61 O2    x      -1.2288     -0.1547     -0.0193
            y      -0.1157     -1.3299     -0.0051
            z      -0.0091     -0.0089     -1.9723
-------------------------------------------------------------------------------
   62 O2    x      -1.1695     -0.1263      0.0303
            y      -0.1022     -1.2755     -0.0117
            z       0.0226     -0.0002     -2.0751
-------------------------------------------------------------------------------
   63 O2    x      -1.2074      0.1333     -0.0606
            y       0.1100     -1.2931     -0.0017
            z      -0.0636      0.0072     -2.0485
-------------------------------------------------------------------------------
   64 O2    x      -1.1742      0.1252     -0.0162
            y       0.1074     -1.2705      0.0002
            z      -0.0152     -0.0048     -2.0791
-------------------------------------------------------------------------------
   65 O2    x      -1.2030      0.0331      0.0859
            y       0.0660     -2.5048      0.0007
            z       0.1034     -0.0014     -1.0312
-------------------------------------------------------------------------------
   66 O2    x      -1.2497      0.0332     -0.0783
            y       0.0635     -2.4135     -0.0046
            z      -0.0934     -0.0009     -1.0185
-------------------------------------------------------------------------------
   67 O2    x      -1.1921     -0.0152      0.0891
            y      -0.0363     -2.5048     -0.0053
            z       0.0907     -0.0007     -1.0395
-------------------------------------------------------------------------------
   68 O2    x      -1.2239     -0.0162     -0.0795
            y      -0.0342     -2.5665      0.0012
            z      -0.0929      0.0006     -1.0168
-------------------------------------------------------------------------------
   69 O2    x      -2.3819     -0.0698      0.0133
            y      -0.0545     -1.2391      0.0696
            z       0.0064      0.0383     -1.0543
-------------------------------------------------------------------------------
   70 O2    x      -2.3695     -0.0429      0.0175
            y      -0.0123     -1.2333     -0.0697
            z       0.0070     -0.0390     -1.0564
-------------------------------------------------------------------------------
   71 O2    x      -2.4167      0.0164      0.0527
            y       0.0109     -1.2347     -0.0675
            z       0.0170     -0.0423     -1.0401
-------------------------------------------------------------------------------
   72 O2    x      -2.4206      0.0301      0.0487
            y       0.0192     -1.2358      0.0642
            z       0.0189      0.0416     -1.0368
-------------------------------------------------------------------------------




  Elastic Constant Matrix: (Units=GPa)

-------------------------------------------------------------------------------
  Indices      1         2         3         4         5         6    
-------------------------------------------------------------------------------
       1     59.9294   32.9465   24.8909   -0.9174    0.4236   -6.6190
       2     32.9465   79.2662   25.4273   -1.1498    1.4211   -7.5065
       3     24.8909   25.4273   21.3793   -0.1195    0.1331   -0.5763
       4     -0.9174   -1.1498   -0.1195   11.6661   -0.2524    0.7894
       5      0.4236    1.4211    0.1331   -0.2524   25.2529    0.7383
       6     -6.6190   -7.5065   -0.5763    0.7894    0.7383   19.7421
-------------------------------------------------------------------------------


  Elastic Compliance Matrix: (Units=1/GPa)

-------------------------------------------------------------------------------
  Indices      1         2         3         4         5         6    
-------------------------------------------------------------------------------
       1    0.034376 -0.000904 -0.038665  0.001528 -0.000600  0.010014
       2   -0.000904  0.021515 -0.024329  0.001288 -0.001264  0.007163
       3   -0.038665 -0.024329  0.120195 -0.002904  0.001901 -0.018660
       4    0.001528  0.001288 -0.002904  0.086127  0.000853 -0.002559
       5   -0.000600 -0.001264  0.001901  0.000853  0.039742 -0.002146
       6    0.010014  0.007163 -0.018660 -0.002559 -0.002146  0.056372
-------------------------------------------------------------------------------

  Mechanical properties :

-------------------------------------------------------------------------------
  Convention :                    Reuss         Voigt         Hill
-------------------------------------------------------------------------------
  Bulk  Modulus (GPa)     =      20.70808      36.34493      28.52651
  Shear Modulus (GPa)     =       9.95581      16.48625      13.22103
-------------------------------------------------------------------------------
  Velocity S-wave (km/s)  =       2.26183       2.91061       2.60648
  Velocity P-wave (km/s)  =       4.17878       5.47464       4.87001
-------------------------------------------------------------------------------
  Compressibility (1/GPa) =    0.04829033
-------------------------------------------------------------------------------
  Stress axis :                     x             y             z
-------------------------------------------------------------------------------
  Youngs Moduli (GPa)     =      29.09025      46.47841       8.31984
-------------------------------------------------------------------------------
  Poissons Ratio (x)      =                     0.04200       0.32169
  Poissons Ratio (y)      =       0.02629                     0.20241
  Poissons Ratio (z)      =       1.12478       1.13077
-------------------------------------------------------------------------------


  Piezoelectric Strain Matrix: (Units=C/m**2)

-------------------------------------------------------------------------------
  Indices      1         2         3         4         5         6    
-------------------------------------------------------------------------------
       x     0.39930   0.34080   0.43367  -0.04111   0.16521   0.03406
       y    -0.15520  -0.17928   0.03000   0.11912  -0.05023  -0.17451
       z     0.62772   0.17898   0.59428   0.01683  -0.21381  -0.07361
-------------------------------------------------------------------------------


  Piezoelectric Stress Matrix: (Units=10**-11 C/N)

-------------------------------------------------------------------------------
  Indices      1         2         3         4         5         6    
-------------------------------------------------------------------------------
       x    -0.31705  -0.35969   2.81926  -0.36971   0.66119   0.00182
       y    -0.78686  -0.54799   1.67832   1.01078  -0.11433  -1.34327
       z    -0.21445  -1.14099   4.37219   0.09197  -0.77979  -0.72547
-------------------------------------------------------------------------------


  Static dielectric constant tensor : 

-------------------------------------------------------------------------------
              x         y         z
-------------------------------------------------------------------------------
       x     3.84124  -0.00102  -0.07376
       y    -0.00102   3.95836  -0.02823
       z    -0.07376  -0.02823   3.46019
--------------------------------------------------------------------------------

  High frequency dielectric constant tensor : 

-------------------------------------------------------------------------------
              x         y         z
-------------------------------------------------------------------------------
       x     1.67550  -0.00035  -0.00043
       y    -0.00035   1.68508  -0.00013
       z    -0.00043  -0.00013   1.61135
-------------------------------------------------------------------------------

  Static refractive indices : 

-------------------------------------------------------------------------------
    1 =    1.85604      2 =    1.96338      3 =    1.98999
-------------------------------------------------------------------------------

  High frequency refractive indices : 

-------------------------------------------------------------------------------
    1 =    1.26939      2 =    1.29441      3 =    1.29811
-------------------------------------------------------------------------------


  Time to end of optimisation =      10.7289 seconds


  Peak dynamic memory used =       5.01 MB 


  Timing analysis for GULP :

--------------------------------------------------------------------------------
  Task / Subroutine                                          Time (Seconds)
--------------------------------------------------------------------------------
  Calculation of reciprocal space energy and derivatives          0.6774
  Calculation of real space energy and derivatives                6.2399
  Calculation of three-body energy and derivatives                0.6166
  Calculation and manipulation of Hessian matrix                  3.4483
  Calculation of matrix inversion                                 0.0496
  Global summation overhead                                       0.0001
--------------------------------------------------------------------------------
  Total CPU time                                                 10.7289
--------------------------------------------------------------------------------


  Dump file written as c00009.vasp.grs
  CIF file written as c00009.vasp.cif


  Job Finished at 11:27.34  7th October    2025                               

