********************************************************************************
*                       GENERAL UTILITY LATTICE PROGRAM                        *
*                                 Julian Gale                                  *
*                       Curtin Institute for Computation                       *
*                    School of Molecular and Life Sciences                     *
*                    Curtin University, Western Australia                      *
********************************************************************************
* Version = 6.1.2 * Last modified =   3rd November 2022                        *
********************************************************************************
*  optimise     - perform optimisation run                                     *
*  conp         - constant pressure calculation                                *
*  property     - calculate properties for final geometry                      *
********************************************************************************

  Job Started  at 11:34.34  7th October    2025                               

  Number of CPUs =     1


  Total number of configurations input =      1

********************************************************************************
*  Input for Configuration =   1 : c00048.vasp                                 *
********************************************************************************

  Formula = Ge3Si21O48                                                  

  Number of irreducible atoms/shells =     120


  Total number atoms/shells =     120

  Dimensionality = 3               :  Bulk   



  Cartesian lattice vectors (Angstroms) :

       17.182800    0.000000    0.000000
        0.000000    7.513760    0.000000
        0.000000    0.000000   10.447700

  Cell parameters (Angstroms/Degrees):

  a =      17.1828    alpha =  90.0000
  b =       7.5138    beta  =  90.0000
  c =      10.4477    gamma =  90.0000

  Initial cell volume =        1348.875752 Angs**3

  Temperature of configuration =   0.00     K 

  Pressure of configuration =         0.000 GPa 

  Fractional coordinates of asymmetric unit :

--------------------------------------------------------------------------------
   No.  Atomic       x           y          z         Charge      Occupancy
        Label      (Frac)      (Frac)     (Frac)        (e)         (Frac)  
--------------------------------------------------------------------------------
      1 Ge    c    0.052090    0.000000    0.372270     4.00000    1.000000    
      2 Ge    c    0.443270 *  0.000000 *  0.877870 *   4.00000    1.000000    
      3 Ge    c    0.339340 *  0.294090 *  0.982560 *   4.00000    1.000000    
      4 Si    c    0.447910 *  0.000000 *  0.372270 *   4.00000    1.000000    
      5 Si    c    0.947910 *  0.000000 *  0.627730 *   4.00000    1.000000    
      6 Si    c    0.552090 *  0.000000 *  0.627730 *   4.00000    1.000000    
      7 Si    c    0.556730 *  0.000000 *  0.122130 *   4.00000    1.000000    
      8 Si    c    0.943270 *  0.000000 *  0.122130 *   4.00000    1.000000    
      9 Si    c    0.056730 *  0.000000 *  0.877870 *   4.00000    1.000000    
     10 Si    c    0.160190 *  0.293910 *  0.273440 *   4.00000    1.000000    
     11 Si    c    0.339810 *  0.706090 *  0.273440 *   4.00000    1.000000    
     12 Si    c    0.839810 *  0.293910 *  0.726560 *   4.00000    1.000000    
     13 Si    c    0.660190 *  0.706090 *  0.726560 *   4.00000    1.000000    
     14 Si    c    0.839810 *  0.706090 *  0.726560 *   4.00000    1.000000    
     15 Si    c    0.660190 *  0.293910 *  0.726560 *   4.00000    1.000000    
     16 Si    c    0.160190 *  0.706090 *  0.273440 *   4.00000    1.000000    
     17 Si    c    0.339810 *  0.293910 *  0.273440 *   4.00000    1.000000    
     18 Si    c    0.660660 *  0.294090 *  0.017440 *   4.00000    1.000000    
     19 Si    c    0.839340 *  0.705910 *  0.017440 *   4.00000    1.000000    
     20 Si    c    0.160660 *  0.705910 *  0.982560 *   4.00000    1.000000    
     21 Si    c    0.339340 *  0.705910 *  0.982560 *   4.00000    1.000000    
     22 Si    c    0.160660 *  0.294090 *  0.982560 *   4.00000    1.000000    
     23 Si    c    0.660660 *  0.705910 *  0.017440 *   4.00000    1.000000    
     24 Si    c    0.839340 *  0.294090 *  0.017440 *   4.00000    1.000000    
     25 O3    c    0.106570 *  0.174340 *  0.366200 *   1.33043    1.000000    
     26 O2    c    0.393430 *  0.825660 *  0.366200 *   0.87073    1.000000    
     27 O2    c    0.893430 *  0.174340 *  0.633800 *   0.87073    1.000000    
     28 O2    c    0.606570 *  0.825660 *  0.633800 *   0.87073    1.000000    
     29 O2    c    0.893430 *  0.825660 *  0.633800 *   0.87073    1.000000    
     30 O2    c    0.606570 *  0.174340 *  0.633800 *   0.87073    1.000000    
     31 O3    c    0.106570 *  0.825660 *  0.366200 *   1.33043    1.000000    
     32 O2    c    0.393430 *  0.174340 *  0.366200 *   0.87073    1.000000    
     33 O3    c    0.000000 *  0.000000 *  0.500000 *   1.33043    1.000000    
     34 O2    c    0.500000 *  0.000000 *  0.500000 *   0.87073    1.000000    
     35 O3    c    0.994520 *  0.000000 *  0.250840 *   1.33043    1.000000    
     36 O2    c    0.505480 *  0.000000 *  0.250840 *   0.87073    1.000000    
     37 O2    c    0.005480 *  0.000000 *  0.749160 *   0.87073    1.000000    
     38 O3    c    0.494520 *  0.000000 *  0.749160 *   1.33043    1.000000    
     39 O2    c    0.610230 *  0.175520 *  0.115390 *   0.87073    1.000000    
     40 O2    c    0.889770 *  0.824480 *  0.115390 *   0.87073    1.000000    
     41 O1    c    0.389770 *  0.175520 *  0.884610 *   1.73396    1.000000    
     42 O2    c    0.110230 *  0.824480 *  0.884610 *   0.87073    1.000000    
     43 O3    c    0.389770 *  0.824480 *  0.884610 *   1.33043    1.000000    
     44 O2    c    0.110230 *  0.175520 *  0.884610 *   0.87073    1.000000    
     45 O2    c    0.610230 *  0.824480 *  0.115390 *   0.87073    1.000000    
     46 O2    c    0.889770 *  0.175520 *  0.115390 *   0.87073    1.000000    
     47 O3    c    0.500000 *  0.000000 *  0.000000 *   1.33043    1.000000    
     48 O2    c    0.000000 *  0.000000 *  0.000000 *   0.87073    1.000000    
     49 O2    c    0.151750 *  0.500000 *  0.313330 *   0.87073    1.000000    
     50 O2    c    0.348250 *  0.500000 *  0.313330 *   0.87073    1.000000    
     51 O2    c    0.848250 *  0.500000 *  0.686670 *   0.87073    1.000000    
     52 O2    c    0.651750 *  0.500000 *  0.686670 *   0.87073    1.000000    
     53 O2    c    0.250000 *  0.234950 *  0.285720 *   0.87073    1.000000    
     54 O2    c    0.250000 *  0.765050 *  0.285720 *   0.87073    1.000000    
     55 O2    c    0.750000 *  0.234950 *  0.714280 *   0.87073    1.000000    
     56 O2    c    0.750000 *  0.765050 *  0.714280 *   0.87073    1.000000    
     57 O2    c    0.131410 *  0.268650 *  0.127790 *   0.87073    1.000000    
     58 O2    c    0.368590 *  0.731350 *  0.127790 *   0.87073    1.000000    
     59 O2    c    0.868590 *  0.268650 *  0.872210 *   0.87073    1.000000    
     60 O2    c    0.631410 *  0.731350 *  0.872210 *   0.87073    1.000000    
     61 O2    c    0.868590 *  0.731350 *  0.872210 *   0.87073    1.000000    
     62 O2    c    0.631410 *  0.268650 *  0.872210 *   0.87073    1.000000    
     63 O2    c    0.131410 *  0.731350 *  0.127790 *   0.87073    1.000000    
     64 O3    c    0.368590 *  0.268650 *  0.127790 *   1.33043    1.000000    
     65 O2    c    0.653920 *  0.500000 *  0.058200 *   0.87073    1.000000    
     66 O2    c    0.846080 *  0.500000 *  0.058200 *   0.87073    1.000000    
     67 O3    c    0.346080 *  0.500000 *  0.941800 *   1.33043    1.000000    
     68 O2    c    0.153920 *  0.500000 *  0.941800 *   0.87073    1.000000    
     69 O2    c    0.750000 *  0.231060 *  0.027050 *   0.87073    1.000000    
     70 O2    c    0.750000 *  0.768940 *  0.027050 *   0.87073    1.000000    
     71 O3    c    0.250000 *  0.231060 *  0.972950 *   1.33043    1.000000    
     72 O2    c    0.250000 *  0.768940 *  0.972950 *   0.87073    1.000000    
     73 O3    s    0.106570 *  0.174340 *  0.366200 *  -3.33043    1.000000    
     74 O2    s    0.393430 *  0.825660 *  0.366200 *  -2.87073    1.000000    
     75 O2    s    0.893430 *  0.174340 *  0.633800 *  -2.87073    1.000000    
     76 O2    s    0.606570 *  0.825660 *  0.633800 *  -2.87073    1.000000    
     77 O2    s    0.893430 *  0.825660 *  0.633800 *  -2.87073    1.000000    
     78 O2    s    0.606570 *  0.174340 *  0.633800 *  -2.87073    1.000000    
     79 O3    s    0.106570 *  0.825660 *  0.366200 *  -3.33043    1.000000    
     80 O2    s    0.393430 *  0.174340 *  0.366200 *  -2.87073    1.000000    
     81 O3    s    0.000000 *  0.000000 *  0.500000 *  -3.33043    1.000000    
     82 O2    s    0.500000 *  0.000000 *  0.500000 *  -2.87073    1.000000    
     83 O3    s    0.994520 *  0.000000 *  0.250840 *  -3.33043    1.000000    
     84 O2    s    0.505480 *  0.000000 *  0.250840 *  -2.87073    1.000000    
     85 O2    s    0.005480 *  0.000000 *  0.749160 *  -2.87073    1.000000    
     86 O3    s    0.494520 *  0.000000 *  0.749160 *  -3.33043    1.000000    
     87 O2    s    0.610230 *  0.175520 *  0.115390 *  -2.87073    1.000000    
     88 O2    s    0.889770 *  0.824480 *  0.115390 *  -2.87073    1.000000    
     89 O1    s    0.389770 *  0.175520 *  0.884610 *  -3.73396    1.000000    
     90 O2    s    0.110230 *  0.824480 *  0.884610 *  -2.87073    1.000000    
     91 O3    s    0.389770 *  0.824480 *  0.884610 *  -3.33043    1.000000    
     92 O2    s    0.110230 *  0.175520 *  0.884610 *  -2.87073    1.000000    
     93 O2    s    0.610230 *  0.824480 *  0.115390 *  -2.87073    1.000000    
     94 O2    s    0.889770 *  0.175520 *  0.115390 *  -2.87073    1.000000    
     95 O3    s    0.500000 *  0.000000 *  0.000000 *  -3.33043    1.000000    
     96 O2    s    0.000000 *  0.000000 *  0.000000 *  -2.87073    1.000000    
     97 O2    s    0.151750 *  0.500000 *  0.313330 *  -2.87073    1.000000    
     98 O2    s    0.348250 *  0.500000 *  0.313330 *  -2.87073    1.000000    
     99 O2    s    0.848250 *  0.500000 *  0.686670 *  -2.87073    1.000000    
    100 O2    s    0.651750 *  0.500000 *  0.686670 *  -2.87073    1.000000    
    101 O2    s    0.250000 *  0.234950 *  0.285720 *  -2.87073    1.000000    
    102 O2    s    0.250000 *  0.765050 *  0.285720 *  -2.87073    1.000000    
    103 O2    s    0.750000 *  0.234950 *  0.714280 *  -2.87073    1.000000    
    104 O2    s    0.750000 *  0.765050 *  0.714280 *  -2.87073    1.000000    
    105 O2    s    0.131410 *  0.268650 *  0.127790 *  -2.87073    1.000000    
    106 O2    s    0.368590 *  0.731350 *  0.127790 *  -2.87073    1.000000    
    107 O2    s    0.868590 *  0.268650 *  0.872210 *  -2.87073    1.000000    
    108 O2    s    0.631410 *  0.731350 *  0.872210 *  -2.87073    1.000000    
    109 O2    s    0.868590 *  0.731350 *  0.872210 *  -2.87073    1.000000    
    110 O2    s    0.631410 *  0.268650 *  0.872210 *  -2.87073    1.000000    
    111 O2    s    0.131410 *  0.731350 *  0.127790 *  -2.87073    1.000000    
    112 O3    s    0.368590 *  0.268650 *  0.127790 *  -3.33043    1.000000    
    113 O2    s    0.653920 *  0.500000 *  0.058200 *  -2.87073    1.000000    
    114 O2    s    0.846080 *  0.500000 *  0.058200 *  -2.87073    1.000000    
    115 O3    s    0.346080 *  0.500000 *  0.941800 *  -3.33043    1.000000    
    116 O2    s    0.153920 *  0.500000 *  0.941800 *  -2.87073    1.000000    
    117 O2    s    0.750000 *  0.231060 *  0.027050 *  -2.87073    1.000000    
    118 O2    s    0.750000 *  0.768940 *  0.027050 *  -2.87073    1.000000    
    119 O3    s    0.250000 *  0.231060 *  0.972950 *  -3.33043    1.000000    
    120 O2    s    0.250000 *  0.768940 *  0.972950 *  -2.87073    1.000000    
--------------------------------------------------------------------------------



********************************************************************************
*  General input information                                                   *
********************************************************************************

  Species output for all configurations : 

--------------------------------------------------------------------------------
  Species    Type    Atomic    Atomic    Charge       Radii (Angs)     Library
                     Number     Mass       (e)     Cova   Ionic  VDW   Symbol
--------------------------------------------------------------------------------
    Ge       Core       32      72.61   4.000000   1.170  0.000  1.750 Ge       
    Si       Core       14      28.09   4.000000   1.200  0.000  2.100 Si       
    O1       Core        8      16.00   1.733957   0.730  0.000  1.360 O1       
    O2       Core        8      16.00   0.870733   0.730  0.000  1.360 O2       
    O3       Core        8      16.00   1.330431   0.730  0.000  1.360 O3       
    O1       Shell       8       0.00  -3.733957   0.730  0.000  0.000 O1       
    O2       Shell       8       0.00  -2.870733   0.730  0.000  0.000 O2       
    O3       Shell       8       0.00  -3.330431   0.730  0.000  0.000 O3       
--------------------------------------------------------------------------------


  Lattice summation method               =    Ewald          (3-D)
                                         =    Parry          (2-D)
                                         =    Saunders et al (1-D)
  Accuracy factor for lattice sums       =   12.000


  Analytic derivatives to be used

  Time limit = Infinity

  Maximum range for interatomic potentials =    100000.000000 Angstroms

  General interatomic potentials :

--------------------------------------------------------------------------------
Atom  Types   Potential      Parameter       Value         Units   Cutoffs(Ang)
  1     2                                                            Min /  Max 
--------------------------------------------------------------------------------
Si   c O1   s Buckingham    Buckingham A     1315.2478    eV        0.000 16.000
                            Buckingham rho  0.31775900    Ang       
                            Buckingham C     10.141118    eV*Ang^6  
--------------------------------------------------------------------------------
Si   c O2   s Buckingham    Buckingham A     1315.2478    eV        0.000 16.000
                            Buckingham rho  0.31775900    Ang       
                            Buckingham C     10.141118    eV*Ang^6  
--------------------------------------------------------------------------------
Si   c O3   s Buckingham    Buckingham A     1315.2478    eV        0.000 16.000
                            Buckingham rho  0.31775900    Ang       
                            Buckingham C     10.141118    eV*Ang^6  
--------------------------------------------------------------------------------
Ge   c O1   s Buckingham    Buckingham A     1497.3996    eV        0.000 16.000
                            Buckingham rho  0.32564600    Ang       
                            Buckingham C     16.808599    eV*Ang^6  
--------------------------------------------------------------------------------
Ge   c O2   s Buckingham    Buckingham A     1497.3996    eV        0.000 16.000
                            Buckingham rho  0.32564600    Ang       
                            Buckingham C     16.808599    eV*Ang^6  
--------------------------------------------------------------------------------
Ge   c O3   s Buckingham    Buckingham A     1497.3996    eV        0.000 16.000
                            Buckingham rho  0.32564600    Ang       
                            Buckingham C     16.808599    eV*Ang^6  
--------------------------------------------------------------------------------
O1   s O1   s Buckingham    Buckingham A     22764.000    eV        0.000 16.000
                            Buckingham rho  0.14900000    Ang       
                            Buckingham C     10.937044    eV*Ang^6  
--------------------------------------------------------------------------------
O1   s O2   s Buckingham    Buckingham A     22764.000    eV        0.000 16.000
                            Buckingham rho  0.14900000    Ang       
                            Buckingham C     10.937044    eV*Ang^6  
--------------------------------------------------------------------------------
O1   s O3   s Buckingham    Buckingham A     22764.000    eV        0.000 16.000
                            Buckingham rho  0.14900000    Ang       
                            Buckingham C     10.937044    eV*Ang^6  
--------------------------------------------------------------------------------
O2   s O2   s Buckingham    Buckingham A     22764.000    eV        0.000 16.000
                            Buckingham rho  0.14900000    Ang       
                            Buckingham C     10.937044    eV*Ang^6  
--------------------------------------------------------------------------------
O2   s O3   s Buckingham    Buckingham A     22764.000    eV        0.000 16.000
                            Buckingham rho  0.14900000    Ang       
                            Buckingham C     10.937044    eV*Ang^6  
--------------------------------------------------------------------------------
O3   s O3   s Buckingham    Buckingham A     22764.000    eV        0.000 16.000
                            Buckingham rho  0.14900000    Ang       
                            Buckingham C     10.937044    eV*Ang^6  
--------------------------------------------------------------------------------
O1   c O1   s Spring (c-s)  Spring k 2       180.31577    eV*Ang^-2 0.000  0.800
                            Spring k 4       0.0000000    eV*Ang^-4 
--------------------------------------------------------------------------------
O2   c O2   s Spring (c-s)  Spring k 2       75.969800    eV*Ang^-2 0.000  0.800
                            Spring k 4       0.0000000    eV*Ang^-4 
--------------------------------------------------------------------------------
O3   c O3   s Spring (c-s)  Spring k 2       128.14270    eV*Ang^-2 0.000  0.800
                            Spring k 4       0.0000000    eV*Ang^-4 
--------------------------------------------------------------------------------

  General Three-body potentials :

--------------------------------------------------------------------------------
  Atoms       Potential      Parameter       Value         Units   Cutoffs(Ang)
  1 / 2 / 3                                                          Min /  Max 
--------------------------------------------------------------------------------
Si    core    Harmonic      Three-body cnst  1.2614000    eV*rad^-2 0.000  1.900
O1    shel                  Three-body angl  109.47000    degrees   0.000  1.900
O1    shel                  Three-body k4    0.0000000    eV*rad^-4 0.000  3.500
                            Three-body k3    0.0000000    eV*rad^-3 
--------------------------------------------------------------------------------
Si    core    Harmonic      Three-body cnst  1.2614000    eV*rad^-2 0.000  1.900
O1    shel                  Three-body angl  109.47000    degrees   0.000  1.900
õ(1   shel                  Three-body k4    0.0000000    eV*rad^-4 0.000  3.500
                            Three-body k3    0.0000000    eV*rad^-3 
--------------------------------------------------------------------------------
Si    core    Harmonic      Three-body cnst  1.2614000    eV*rad^-2 0.000  1.900
õ(1   shel                  Three-body angl  109.47000    degrees   0.000  1.900
õ(1   shel                  Three-body k4    0.0000000    eV*rad^-4 0.000  3.500
                            Three-body k3    0.0000000    eV*rad^-3 
--------------------------------------------------------------------------------
Si    core    Harmonic      Three-body cnst  1.2614000    eV*rad^-2 0.000  1.900
O1    shel                  Three-body angl  109.47000    degrees   0.000  1.900
O2    shel                  Three-body k4    0.0000000    eV*rad^-4 0.000  3.500
                            Three-body k3    0.0000000    eV*rad^-3 
--------------------------------------------------------------------------------
Si    core    Harmonic      Three-body cnst  1.2614000    eV*rad^-2 0.000  1.900
O1    shel                  Three-body angl  109.47000    degrees   0.000  1.900
õ(2   shel                  Three-body k4    0.0000000    eV*rad^-4 0.000  3.500
                            Three-body k3    0.0000000    eV*rad^-3 
--------------------------------------------------------------------------------
Si    core    Harmonic      Three-body cnst  1.2614000    eV*rad^-2 0.000  1.900
O2    shel                  Three-body angl  109.47000    degrees   0.000  1.900
õ(1   shel                  Three-body k4    0.0000000    eV*rad^-4 0.000  3.500
                            Three-body k3    0.0000000    eV*rad^-3 
--------------------------------------------------------------------------------
Si    core    Harmonic      Three-body cnst  1.2614000    eV*rad^-2 0.000  1.900
õ(1   shel                  Three-body angl  109.47000    degrees   0.000  1.900
õ(2   shel                  Three-body k4    0.0000000    eV*rad^-4 0.000  3.500
                            Three-body k3    0.0000000    eV*rad^-3 
--------------------------------------------------------------------------------
Si    core    Harmonic      Three-body cnst  1.2614000    eV*rad^-2 0.000  1.900
O2    shel                  Three-body angl  109.47000    degrees   0.000  1.900
O2    shel                  Three-body k4    0.0000000    eV*rad^-4 0.000  3.500
                            Three-body k3    0.0000000    eV*rad^-3 
--------------------------------------------------------------------------------
Si    core    Harmonic      Three-body cnst  1.2614000    eV*rad^-2 0.000  1.900
O2    shel                  Three-body angl  109.47000    degrees   0.000  1.900
õ(2   shel                  Three-body k4    0.0000000    eV*rad^-4 0.000  3.500
                            Three-body k3    0.0000000    eV*rad^-3 
--------------------------------------------------------------------------------
Si    core    Harmonic      Three-body cnst  1.2614000    eV*rad^-2 0.000  1.900
õ(2   shel                  Three-body angl  109.47000    degrees   0.000  1.900
õ(2   shel                  Three-body k4    0.0000000    eV*rad^-4 0.000  3.500
                            Three-body k3    0.0000000    eV*rad^-3 
--------------------------------------------------------------------------------

********************************************************************************
*  Output for configuration   1 : c00048.vasp                                  *
********************************************************************************


  Components of energy : 

--------------------------------------------------------------------------------
  Interatomic potentials     =         760.36645445 eV    
  Three-body potentials      =           0.01299137 eV    
  Monopole - monopole (real) =       -2676.00317478 eV    
  Monopole - monopole (recip)=       -1115.35404472 eV    
  Monopole - monopole (total)=       -3791.35721950 eV    
--------------------------------------------------------------------------------
  Total lattice energy       =       -3030.97777368 eV    
--------------------------------------------------------------------------------
  Total lattice energy       =         -292443.0224 kJ/(mole unit cells)
--------------------------------------------------------------------------------


  Number of variables =      363

  Maximum number of calculations  =          1000
  Maximum Hessian update interval =            10
  Maximum step size               =   0.100000000
  Maximum parameter tolerance     =   0.000010000
  Maximum function  tolerance     =   0.000010000
  Maximum gradient  tolerance     =   0.001000000
  Maximum gradient  component     =   0.010000000

  Symmetry not applied to optimisation

  Cell parameters to be optimised using strains

  Newton-Raphson optimiser to be used

  BFGS hessian update to be used

  Lower half triangular hessian to be used

  Minimiser to switch to RFO
  When gradient norm is less than     0.050000

  Dumpfile to be written after every cycle

  Start of bulk optimisation :

  Cycle:      0 Energy:     -3030.977774  Gnorm:      4.342530  CPU:    0.107
  ** Hessian calculated **
  Cycle:      1 Energy:     -3061.746512  Gnorm:      0.962082  CPU:    0.236
  ** Hessian calculated **
  Cycle:      2 Energy:     -3064.194527  Gnorm:      0.529343  CPU:    0.432
  Cycle:      3 Energy:     -3064.949933  Gnorm:      0.340812  CPU:    0.535
  Cycle:      4 Energy:     -3065.578565  Gnorm:      0.271270  CPU:    0.658
  Cycle:      5 Energy:     -3066.191915  Gnorm:      0.212783  CPU:    0.780
  Cycle:      6 Energy:     -3066.667576  Gnorm:      0.181199  CPU:    0.902
  Cycle:      7 Energy:     -3066.880565  Gnorm:      0.128865  CPU:    1.005
  Cycle:      8 Energy:     -3067.003202  Gnorm:      0.099346  CPU:    1.108
  Cycle:      9 Energy:     -3067.074850  Gnorm:      0.073702  CPU:    1.232
  Cycle:     10 Energy:     -3067.120994  Gnorm:      0.065587  CPU:    1.354
  Cycle:     11 Energy:     -3067.167625  Gnorm:      0.071638  CPU:    1.476
  ** Hessian calculated **
  Cycle:     12 Energy:     -3067.192701  Gnorm:      0.069969  CPU:    1.690
  Cycle:     13 Energy:     -3067.233910  Gnorm:      0.067136  CPU:    1.831
  Cycle:     14 Energy:     -3067.284369  Gnorm:      0.063474  CPU:    1.951
  Cycle:     15 Energy:     -3067.361764  Gnorm:      0.057384  CPU:    2.093
  Cycle:     16 Energy:     -3067.436665  Gnorm:      0.051051  CPU:    2.215
  Cycle:     17 Energy:     -3067.473727  Gnorm:      0.053234  CPU:    2.337
  ** Hessian calculated **
  Cycle:     18 Energy:     -3067.673892  Gnorm:      0.036115  CPU:    2.550
  ** Hessian has wrong structure
  ** Imaginary eigenvectors =   3
  Cycle:     19 Energy:     -3067.682083  Gnorm:      0.059120  CPU:    2.843
  ** Hessian has wrong structure
  ** Imaginary eigenvectors =   3
  ** Hessian has wrong structure
  ** Imaginary eigenvectors =   2
  Cycle:     20 Energy:     -3067.700510  Gnorm:      0.063454  CPU:    3.327
  ** Hessian has wrong structure
  ** Imaginary eigenvectors =   2
  ** Hessian has wrong structure
  ** Imaginary eigenvectors =   1
  Cycle:     21 Energy:     -3067.750240  Gnorm:      0.072825  CPU:    3.808
  ** Hessian has wrong structure
  ** Imaginary eigenvectors =   1
  Cycle:     22 Energy:     -3067.878053  Gnorm:      0.051200  CPU:    4.046
  ** Hessian has wrong structure
  ** Imaginary eigenvectors =   1
  ** Hessian has wrong structure
  ** Imaginary eigenvectors =   1
  Cycle:     23 Energy:     -3067.887854  Gnorm:      0.052635  CPU:    4.583
  ** Hessian has required structure
  Cycle:     24 Energy:     -3067.958493  Gnorm:      0.037151  CPU:    4.828
  ** Hessian has required structure
  Cycle:     25 Energy:     -3067.991186  Gnorm:      0.029974  CPU:    4.994
  ** Hessian has required structure
  Cycle:     26 Energy:     -3068.003318  Gnorm:      0.024274  CPU:    5.160
  ** Hessian has required structure
  Cycle:     27 Energy:     -3068.023645  Gnorm:      0.017679  CPU:    5.324
  ** Hessian has required structure
  Cycle:     28 Energy:     -3068.027982  Gnorm:      0.019022  CPU:    5.489
  ** Hessian has required structure
  Cycle:     29 Energy:     -3068.033368  Gnorm:      0.017419  CPU:    5.650
  ** Hessian has required structure
  Cycle:     30 Energy:     -3068.040011  Gnorm:      0.017972  CPU:    5.813
  ** Hessian has required structure
  Cycle:     31 Energy:     -3068.043692  Gnorm:      0.013683  CPU:    5.994
  ** Hessian has required structure
  Cycle:     32 Energy:     -3068.047452  Gnorm:      0.008661  CPU:    6.176
  ** Hessian has required structure
  Cycle:     33 Energy:     -3068.049351  Gnorm:      0.006496  CPU:    6.338
  ** Hessian has required structure
  Cycle:     34 Energy:     -3068.050729  Gnorm:      0.003179  CPU:    6.603
  ** Hessian has required structure
  Cycle:     35 Energy:     -3068.051096  Gnorm:      0.001562  CPU:    6.785
  ** Hessian has required structure
  Cycle:     36 Energy:     -3068.051198  Gnorm:      0.000781  CPU:    6.968
  ** Hessian has required structure
  Cycle:     37 Energy:     -3068.051222  Gnorm:      0.000551  CPU:    7.131
  ** Hessian has required structure
  Cycle:     38 Energy:     -3068.051231  Gnorm:      0.000304  CPU:    7.293
  ** Hessian has required structure
  Cycle:     39 Energy:     -3068.051233  Gnorm:      0.000274  CPU:    7.436
  ** Hessian has required structure
  Cycle:     40 Energy:     -3068.051233  Gnorm:      0.000275  CPU:    7.694
  ** Hessian has required structure
  Cycle:     41 Energy:     -3068.051233  Gnorm:      0.000272  CPU:    7.896
  ** Hessian has required structure
  Cycle:     42 Energy:     -3068.051233  Gnorm:      0.000272  CPU:    8.039
  ** Hessian has required structure
  Cycle:     43 Energy:     -3068.051233  Gnorm:      0.000272  CPU:    8.240
  ** Hessian has required structure
  Cycle:     44 Energy:     -3068.051233  Gnorm:      0.000272  CPU:    8.524
  ** Hessian calculated **
  Cycle:     45 Energy:     -3068.051233  Gnorm:      0.000178  CPU:    8.700
  ** Hessian has required structure
  Cycle:     46 Energy:     -3068.051233  Gnorm:      0.000329  CPU:    8.842
  ** Hessian has required structure
  Cycle:     47 Energy:     -3068.051233  Gnorm:      0.000336  CPU:    8.985
  ** Hessian has required structure
  Cycle:     48 Energy:     -3068.051233  Gnorm:      0.000279  CPU:    9.128
  ** Hessian has required structure
  Cycle:     49 Energy:     -3068.051233  Gnorm:      0.000247  CPU:    9.269
  ** Hessian has required structure
  Cycle:     50 Energy:     -3068.051233  Gnorm:      0.000202  CPU:    9.411
  ** Hessian has required structure
  Cycle:     51 Energy:     -3068.051233  Gnorm:      0.000184  CPU:    9.552
  ** Hessian has required structure
  Cycle:     52 Energy:     -3068.051234  Gnorm:      0.000184  CPU:    9.693
  ** Hessian has required structure
  Cycle:     53 Energy:     -3068.051234  Gnorm:      0.000192  CPU:    9.833
  ** Hessian has required structure
  Cycle:     54 Energy:     -3068.051234  Gnorm:      0.000191  CPU:    9.974
  ** Hessian has required structure
  Cycle:     55 Energy:     -3068.051234  Gnorm:      0.000191  CPU:   10.258
  ** Hessian calculated **


  **** Optimisation achieved ****


  Final energy =   -3068.05123368 eV      
  Final Gnorm  =       0.00008256

  Components of energy : 

--------------------------------------------------------------------------------
  Interatomic potentials     =         816.82643348 eV    
  Three-body potentials      =           0.23382121 eV    
  Monopole - monopole (real) =       -2204.14563400 eV    
  Monopole - monopole (recip)=       -1680.96585437 eV    
  Monopole - monopole (total)=       -3885.11148836 eV    
--------------------------------------------------------------------------------
  Total lattice energy       =       -3068.05123368 eV    
--------------------------------------------------------------------------------
  Total lattice energy       =         -296020.0446 kJ/(mole unit cells)
--------------------------------------------------------------------------------

  Final fractional coordinates of atoms :

--------------------------------------------------------------------------------
   No.  Atomic        x           y          z          Radius
        Label       (Frac)      (Frac)     (Frac)       (Angs) 
--------------------------------------------------------------------------------
     1  Ge    c     0.052090    0.000000    0.372270    0.000000
     2  Ge    c     0.439819    0.979105    0.882178    0.000000
     3  Ge    c     0.322635    0.267324    0.969482    0.000000
     4  Si    c     0.452117    0.980274    0.378102    0.000000
     5  Si    c     0.948200    0.990008    0.631071    0.000000
     6  Si    c     0.554210    0.984810    0.634933    0.000000
     7  Si    c     0.551120    0.994484    0.128201    0.000000
     8  Si    c     0.939465    0.984124    0.115968    0.000000
     9  Si    c     0.049702    0.000005    0.882033    0.000000
    10  Si    c     0.158511    0.308229    0.297503    0.000000
    11  Si    c     0.349475    0.677088    0.278680    0.000000
    12  Si    c     0.842506    0.292760    0.728432    0.000000
    13  Si    c     0.659469    0.681793    0.713077    0.000000
    14  Si    c     0.837438    0.694634    0.729068    0.000000
    15  Si    c     0.663128    0.279976    0.716716    0.000000
    16  Si    c     0.171052    0.710962    0.296503    0.000000
    17  Si    c     0.335687    0.269854    0.281561    0.000000
    18  Si    c     0.659811    0.282929    0.024458    0.000000
    19  Si    c     0.829447    0.694609    0.038175    0.000000
    20  Si    c     0.160610    0.710434    0.990668    0.000000
    21  Si    c     0.341167    0.670310    0.974296    0.000000
    22  Si    c     0.142764    0.312723    0.988753    0.000000
    23  Si    c     0.651207    0.683331    0.021704    0.000000
    24  Si    c     0.839381    0.296195    0.035940    0.000000
    25  O3    c     0.099681    0.197954    0.382627    0.000000
    26  O2    c     0.409470    0.793291    0.363061    0.000000
    27  O2    c     0.898893    0.168997    0.645978    0.000000
    28  O2    c     0.604597    0.805632    0.623555    0.000000
    29  O2    c     0.893498    0.822929    0.652368    0.000000
    30  O2    c     0.611626    0.151357    0.626619    0.000000
    31  O3    c     0.123234    0.839316    0.388000    0.000000
    32  O2    c     0.391110    0.140607    0.365869    0.000000
    33  O3    c     0.980626    0.981895    0.486179    0.000000
    34  O2    c     0.487967    0.990803    0.523993    0.000000
    35  O3    c     0.005447    0.971523    0.223481    0.000000
    36  O2    c     0.523196    0.994882    0.278368    0.000000
    37  O2    c     0.022109    0.989264    0.730567    0.000000
    38  O3    c     0.513087    0.990817    0.773867    0.000000
    39  O2    c     0.612548    0.150503    0.113003    0.000000
    40  O2    c     0.877115    0.828190    0.129502    0.000000
    41  O1    c     0.367489    0.131606    0.862389    0.000000
    42  O2    c     0.117918    0.856479    0.902244    0.000000
    43  O3    c     0.394292    0.779007    0.878702    0.000000
    44  O2    c     0.078798    0.196405    0.913374    0.000000
    45  O2    c     0.590539    0.806393    0.095987    0.000000
    46  O2    c     0.893991    0.170834    0.124783    0.000000
    47  O3    c     0.477977    0.029586    0.036009    0.000000
    48  O2    c     0.977644    0.956782    0.973380    0.000000
    49  O2    c     0.142862    0.513393    0.322031    0.000000
    50  O2    c     0.366351    0.469678    0.296332    0.000000
    51  O2    c     0.862155    0.494561    0.697249    0.000000
    52  O2    c     0.639898    0.479890    0.681520    0.000000
    53  O2    c     0.247734    0.260447    0.335537    0.000000
    54  O2    c     0.262914    0.722853    0.326968    0.000000
    55  O2    c     0.753875    0.249882    0.687855    0.000000
    56  O2    c     0.748637    0.724025    0.680752    0.000000
    57  O2    c     0.143785    0.262553    0.143335    0.000000
    58  O2    c     0.358616    0.728896    0.125774    0.000000
    59  O2    c     0.855889    0.256186    0.883101    0.000000
    60  O2    c     0.643110    0.721454    0.866263    0.000000
    61  O2    c     0.842661    0.732771    0.884449    0.000000
    62  O2    c     0.647247    0.239738    0.870067    0.000000
    63  O2    c     0.155317    0.764860    0.143818    0.000000
    64  O3    c     0.334732    0.205554    0.132304    0.000000
    65  O2    c     0.630728    0.481411    0.051830    0.000000
    66  O2    c     0.857997    0.497368    0.071969    0.000000
    67  O3    c     0.362881    0.471054    0.952038    0.000000
    68  O2    c     0.122075    0.519292    0.969534    0.000000
    69  O2    c     0.749664    0.259536    0.064870    0.000000
    70  O2    c     0.738822    0.720547    0.070549    0.000000
    71  O3    c     0.225430    0.271789    0.928278    0.000000
    72  O2    c     0.249540    0.702276    0.945518    0.000000
    73  O3    s     0.101867    0.193291    0.373089    0.000000
    74  O2    s     0.407379    0.800288    0.355371    0.000000
    75  O2    s     0.897792    0.163742    0.653788    0.000000
    76  O2    s     0.605326    0.810878    0.634539    0.000000
    77  O2    s     0.893030    0.826446    0.658875    0.000000
    78  O2    s     0.611276    0.148046    0.637351    0.000000
    79  O3    s     0.122551    0.838687    0.377193    0.000000
    80  O2    s     0.391618    0.137417    0.357919    0.000000
    81  O3    s     0.983406    0.984370    0.491847    0.000000
    82  O2    s     0.491523    0.988904    0.520301    0.000000
    83  O3    s     0.002026    0.975410    0.224205    0.000000
    84  O2    s     0.518488    0.993217    0.272806    0.000000
    85  O2    s     0.017312    0.990539    0.736560    0.000000
    86  O3    s     0.510660    0.989075    0.769136    0.000000
    87  O2    s     0.611329    0.148755    0.104417    0.000000
    88  O2    s     0.878396    0.829759    0.117983    0.000000
    89  O1    s     0.369479    0.130817    0.872566    0.000000
    90  O2    s     0.115339    0.855705    0.910010    0.000000
    91  O3    s     0.392499    0.784078    0.888877    0.000000
    92  O2    s     0.082684    0.188276    0.918328    0.000000
    93  O2    s     0.593235    0.812339    0.090896    0.000000
    94  O2    s     0.892730    0.165314    0.114206    0.000000
    95  O3    s     0.482608    0.021979    0.033417    0.000000
    96  O2    s     0.981592    0.964487    0.978381    0.000000
    97  O2    s     0.147596    0.512223    0.316629    0.000000
    98  O2    s     0.361385    0.471016    0.292937    0.000000
    99  O2    s     0.857409    0.494214    0.703970    0.000000
   100  O2    s     0.644507    0.480256    0.688703    0.000000
   101  O2    s     0.247527    0.266422    0.326051    0.000000
   102  O2    s     0.262329    0.716670    0.318579    0.000000
   103  O2    s     0.753551    0.257778    0.695344    0.000000
   104  O2    s     0.748526    0.716324    0.689380    0.000000
   105  O2    s     0.145187    0.272467    0.143095    0.000000
   106  O2    s     0.355897    0.717670    0.126526    0.000000
   107  O2    s     0.852667    0.264376    0.882820    0.000000
   108  O2    s     0.645721    0.713154    0.866676    0.000000
   109  O2    s     0.840618    0.724452    0.884122    0.000000
   110  O2    s     0.650254    0.248534    0.870278    0.000000
   111  O2    s     0.157481    0.753665    0.143255    0.000000
   112  O3    s     0.333857    0.216968    0.134362    0.000000
   113  O2    s     0.635973    0.481898    0.045715    0.000000
   114  O2    s     0.852968    0.496679    0.064520    0.000000
   115  O3    s     0.357249    0.475259    0.955849    0.000000
   116  O2    s     0.128161    0.517934    0.973720    0.000000
   117  O2    s     0.749650    0.266215    0.057206    0.000000
   118  O2    s     0.739098    0.713691    0.061777    0.000000
   119  O3    s     0.224894    0.275646    0.937913    0.000000
   120  O2    s     0.249483    0.699793    0.953476    0.000000
--------------------------------------------------------------------------------

  Final Cartesian lattice vectors (Angstroms) :

       17.229561    0.077147   -0.120982
        0.033540    7.629657   -0.005183
       -0.075346   -0.007385   10.147262


  Final cell parameters and derivatives :

--------------------------------------------------------------------------------
       a           17.230158 Angstrom     dE/de1(xx)     0.008501 eV/strain
       b            7.629733 Angstrom     dE/de2(yy)     0.007796 eV/strain
       c           10.147545 Angstrom     dE/de3(zz)     0.003962 eV/strain
       alpha       90.082488 Degrees      dE/de4(yz)    -0.000384 eV/strain
       beta        90.827915 Degrees      dE/de5(xz)    -0.000812 eV/strain
       gamma       89.491327 Degrees      dE/de6(xy)     0.000838 eV/strain
--------------------------------------------------------------------------------

  Primitive cell volume =          1333.818530 Angs**3

  Density of cell =      1.961726 g/cm**3

  Non-primitive cell volume =          1333.818530 Angs**3


  Final internal derivatives :

--------------------------------------------------------------------------------
   No.  Atomic          a             b             c           Radius
        Label          (eV)          (eV)          (eV)        (eV/Angs)
--------------------------------------------------------------------------------
      1 Ge    c       0.000000      0.000000      0.000000      0.000000
      2 Ge    c      -0.000154      0.001485      0.001117      0.000000
      3 Ge    c       0.001766     -0.002775      0.002856      0.000000
      4 Si    c       0.001899      0.001051      0.001382      0.000000
      5 Si    c      -0.000173      0.000750     -0.000572      0.000000
      6 Si    c       0.001727     -0.000312      0.000728      0.000000
      7 Si    c       0.000105     -0.000583     -0.002314      0.000000
      8 Si    c      -0.002307      0.000485     -0.000500      0.000000
      9 Si    c      -0.001898     -0.001482     -0.001834      0.000000
     10 Si    c      -0.000337     -0.000277      0.001808      0.000000
     11 Si    c      -0.001218      0.000258      0.000290      0.000000
     12 Si    c       0.000853      0.000350      0.000345      0.000000
     13 Si    c      -0.000119      0.000085     -0.000501      0.000000
     14 Si    c      -0.000296     -0.000621      0.000182      0.000000
     15 Si    c       0.000266      0.000007     -0.000808      0.000000
     16 Si    c      -0.000762      0.000700     -0.001838      0.000000
     17 Si    c       0.000856     -0.001317     -0.002535      0.000000
     18 Si    c       0.000349      0.000278      0.000880      0.000000
     19 Si    c      -0.000404      0.000115      0.000547      0.000000
     20 Si    c      -0.001801      0.001328      0.001984      0.000000
     21 Si    c      -0.001822      0.002873     -0.001495      0.000000
     22 Si    c       0.000906     -0.000207     -0.001178      0.000000
     23 Si    c      -0.001380      0.000417      0.000894      0.000000
     24 Si    c       0.000780     -0.000204      0.000505      0.000000
     25 O3    c      -0.000392      0.000812      0.000012      0.000000
     26 O2    c      -0.000031     -0.000698     -0.000089      0.000000
     27 O2    c       0.000039     -0.000519      0.000375      0.000000
     28 O2    c      -0.000999      0.000141     -0.001252      0.000000
     29 O2    c       0.000265     -0.000058      0.000739      0.000000
     30 O2    c      -0.001069      0.000380     -0.001257      0.000000
     31 O3    c      -0.001364      0.000052      0.002755      0.000000
     32 O2    c      -0.000544      0.000448      0.000787      0.000000
     33 O3    c      -0.004826      0.000150      0.002402      0.000000
     34 O2    c       0.000770     -0.000077      0.000745      0.000000
     35 O3    c       0.004673     -0.000204     -0.000904      0.000000
     36 O2    c       0.001582     -0.000488      0.000673      0.000000
     37 O2    c      -0.000700      0.000228     -0.000733      0.000000
     38 O3    c       0.006422     -0.001443      0.002983      0.000000
     39 O2    c      -0.001110     -0.000167      0.000928      0.000000
     40 O2    c       0.000984     -0.000165      0.000159      0.000000
     41 O1    c       0.003669      0.001179     -0.007845      0.000000
     42 O2    c       0.000142      0.000243     -0.000174      0.000000
     43 O3    c      -0.001739     -0.001561     -0.000999      0.000000
     44 O2    c       0.000016      0.001710      0.001603      0.000000
     45 O2    c      -0.000651      0.000088     -0.000474      0.000000
     46 O2    c       0.000035      0.000180      0.000518      0.000000
     47 O3    c      -0.006809     -0.000491     -0.000072      0.000000
     48 O2    c      -0.002722     -0.000029     -0.001106      0.000000
     49 O2    c       0.000111     -0.000639     -0.000677      0.000000
     50 O2    c      -0.000258      0.001310      0.000974      0.000000
     51 O2    c       0.000963      0.000640      0.000835      0.000000
     52 O2    c      -0.001319     -0.000443      0.000895      0.000000
     53 O2    c      -0.000444     -0.000093      0.000478      0.000000
     54 O2    c       0.001396      0.000113      0.000318      0.000000
     55 O2    c      -0.001074     -0.000020     -0.000139      0.000000
     56 O2    c       0.001486     -0.000361     -0.000609      0.000000
     57 O2    c      -0.000076      0.000147     -0.000877      0.000000
     58 O2    c       0.000746     -0.000470      0.000071      0.000000
     59 O2    c      -0.000549      0.000042      0.000022      0.000000
     60 O2    c       0.000740     -0.000416     -0.000043      0.000000
     61 O2    c      -0.000311      0.000056      0.000099      0.000000
     62 O2    c      -0.000849      0.000125     -0.000739      0.000000
     63 O2    c      -0.000451     -0.000219     -0.000745      0.000000
     64 O3    c      -0.000875     -0.000102     -0.004379      0.000000
     65 O2    c      -0.001455     -0.000814     -0.000618      0.000000
     66 O2    c       0.000873      0.000645     -0.001091      0.000000
     67 O3    c      -0.000978      0.001877     -0.003200      0.000000
     68 O2    c      -0.001052     -0.002358      0.000603      0.000000
     69 O2    c      -0.000069      0.000463      0.000099      0.000000
     70 O2    c       0.002169     -0.000180      0.000388      0.000000
     71 O3    c      -0.002631     -0.001209      0.000448      0.000000
     72 O2    c       0.005532     -0.000808      0.000708      0.000000
     73 O3    s      -0.000355     -0.000175      0.000723      0.000000
     74 O2    s       0.000528      0.000640      0.001721      0.000000
     75 O2    s       0.002677      0.000053      0.000268      0.000000
     76 O2    s      -0.000173      0.000330     -0.001046      0.000000
     77 O2    s       0.001260      0.000310      0.000022      0.000000
     78 O2    s       0.000856     -0.000313     -0.001813      0.000000
     79 O3    s      -0.000694     -0.000079     -0.000071      0.000000
     80 O2    s       0.002180     -0.000985      0.000365      0.000000
     81 O3    s       0.003555      0.000662     -0.004476      0.000000
     82 O2    s       0.001425      0.000426      0.000708      0.000000
     83 O3    s      -0.002867     -0.000341     -0.002056      0.000000
     84 O2    s       0.000707     -0.000224      0.000634      0.000000
     85 O2    s      -0.000661     -0.000311     -0.000482      0.000000
     86 O3    s      -0.002685     -0.000535      0.001700      0.000000
     87 O2    s      -0.000315     -0.000304      0.000290      0.000000
     88 O2    s      -0.000736      0.000705      0.001247      0.000000
     89 O1    s      -0.000105     -0.000896      0.003994      0.000000
     90 O2    s      -0.001271      0.000394      0.000288      0.000000
     91 O3    s       0.002509      0.001091     -0.000638      0.000000
     92 O2    s       0.000644      0.001654      0.000320      0.000000
     93 O2    s      -0.001263      0.000081     -0.001382      0.000000
     94 O2    s       0.000741     -0.000222      0.000399      0.000000
     95 O3    s       0.005728      0.000236     -0.000522      0.000000
     96 O2    s      -0.001266     -0.000755     -0.000767      0.000000
     97 O2    s      -0.001718     -0.000203      0.000943      0.000000
     98 O2    s       0.002760     -0.000155      0.000530      0.000000
     99 O2    s       0.001797      0.000068      0.000232      0.000000
    100 O2    s      -0.000572      0.000080      0.000118      0.000000
    101 O2    s      -0.000482     -0.001175      0.000553      0.000000
    102 O2    s       0.000911      0.000767      0.000380      0.000000
    103 O2    s      -0.001263     -0.000162     -0.000845      0.000000
    104 O2    s      -0.001263     -0.000346     -0.001461      0.000000
    105 O2    s      -0.001659     -0.000016     -0.000443      0.000000
    106 O2    s       0.000437      0.000920     -0.000864      0.000000
    107 O2    s       0.001741     -0.000441      0.000143      0.000000
    108 O2    s      -0.000329      0.000460     -0.000456      0.000000
    109 O2    s       0.000627     -0.000173     -0.000094      0.000000
    110 O2    s      -0.000385      0.000212     -0.000240      0.000000
    111 O2    s      -0.001039      0.000565      0.000245      0.000000
    112 O3    s       0.002199     -0.000805      0.001680      0.000000
    113 O2    s      -0.001429      0.000270      0.000201      0.000000
    114 O2    s       0.001376      0.000130      0.000154      0.000000
    115 O3    s       0.002715     -0.001282      0.001376      0.000000
    116 O2    s      -0.002018     -0.000025     -0.000866      0.000000
    117 O2    s       0.000669      0.000153      0.000959      0.000000
    118 O2    s      -0.001734      0.000688      0.001944      0.000000
    119 O3    s      -0.003795     -0.001727      0.000181      0.000000
    120 O2    s      -0.000342      0.002508     -0.000153      0.000000
--------------------------------------------------------------------------------
  Maximum abs         0.006809      0.002873      0.007845      0.000000
--------------------------------------------------------------------------------


  Born effective charge tensors : 

-------------------------------------------------------------------------------
  Atom             x           y             z
-------------------------------------------------------------------------------
    1 Ge    x       4.3059      0.1897     -0.0050
            y      -0.0976      3.8966     -0.0128
            z      -0.8654     -0.0322      4.4679
-------------------------------------------------------------------------------
    2 Ge    x       4.4478      0.1481     -0.0388
            y      -0.1721      3.8872     -0.0556
            z      -0.7983     -0.0431      3.6561
-------------------------------------------------------------------------------
    3 Ge    x       4.0385     -0.4567     -0.2203
            y      -0.1489      4.1377      0.3528
            z      -0.2345      0.1223      3.4376
-------------------------------------------------------------------------------
    4 Si    x       3.4639      0.1099      0.3398
            y      -0.0774      3.2618      0.0189
            z       0.2832      0.0514      3.7537
-------------------------------------------------------------------------------
    5 Si    x       3.5312     -0.0164     -0.5129
            y       0.0518      3.3173     -0.0095
            z      -0.4396      0.0564      4.2740
-------------------------------------------------------------------------------
    6 Si    x       3.5499     -0.0281     -0.0996
            y       0.0608      3.2916     -0.0101
            z       0.5765     -0.0091      3.9694
-------------------------------------------------------------------------------
    7 Si    x       3.7987     -0.1268     -0.2560
            y       0.0992      3.3468      0.0034
            z      -0.2721     -0.0375      3.3173
-------------------------------------------------------------------------------
    8 Si    x       3.7958     -0.1174      0.2166
            y       0.0814      3.2994     -0.0453
            z       0.8600     -0.0439      3.2157
-------------------------------------------------------------------------------
    9 Si    x       3.4623      0.1344      0.3888
            y      -0.2001      3.2588      0.0379
            z       0.3535      0.0212      3.0932
-------------------------------------------------------------------------------
   10 Si    x       3.4318      0.3819     -0.1899
            y       0.4306      3.5467     -0.3264
            z      -0.2640     -0.1726      2.9833
-------------------------------------------------------------------------------
   11 Si    x       3.2219      0.2442      0.0670
            y       0.2986      3.4508      0.2104
            z       0.1196      0.0466      2.7798
-------------------------------------------------------------------------------
   12 Si    x       3.1863     -0.2229     -0.0613
            y      -0.2487      3.4233      0.1525
            z      -0.0754      0.0858      2.8025
-------------------------------------------------------------------------------
   13 Si    x       3.1538     -0.2365      0.1011
            y      -0.2363      3.4164     -0.1638
            z       0.1208     -0.0854      2.8232
-------------------------------------------------------------------------------
   14 Si    x       3.1954      0.2729     -0.0644
            y       0.2462      3.4568     -0.1319
            z      -0.1186     -0.0813      2.8061
-------------------------------------------------------------------------------
   15 Si    x       3.1683      0.2791      0.1435
            y       0.2246      3.4435      0.1588
            z       0.1177      0.0768      2.8221
-------------------------------------------------------------------------------
   16 Si    x       3.3888     -0.4534     -0.2487
            y      -0.3030      3.5933      0.3340
            z      -0.2129      0.1781      2.9939
-------------------------------------------------------------------------------
   17 Si    x       3.3056     -0.3346      0.0907
            y      -0.2159      3.5945     -0.0975
            z       0.1689      0.0481      3.0720
-------------------------------------------------------------------------------
   18 Si    x       3.2001      0.2658     -0.1750
            y       0.1457      3.4409     -0.1754
            z      -0.1352     -0.0930      2.7817
-------------------------------------------------------------------------------
   19 Si    x       3.2315      0.2889      0.1421
            y       0.1641      3.4257      0.1522
            z       0.1053      0.0671      2.7087
-------------------------------------------------------------------------------
   20 Si    x       3.2166     -0.3617      0.1702
            y      -0.0889      3.4414     -0.2025
            z       0.1316     -0.0709      2.7299
-------------------------------------------------------------------------------
   21 Si    x       3.5766      0.3323     -0.3400
            y       0.2499      3.8109     -0.2982
            z      -0.3189     -0.1023      2.9804
-------------------------------------------------------------------------------
   22 Si    x       3.5551      0.2070     -0.0204
            y       0.2469      3.5210      0.2291
            z       0.1182      0.0770      2.8008
-------------------------------------------------------------------------------
   23 Si    x       3.2606     -0.2497     -0.1165
            y      -0.2754      3.4124      0.1311
            z      -0.1993      0.0726      2.7587
-------------------------------------------------------------------------------
   24 Si    x       3.2420     -0.2644      0.1285
            y      -0.2558      3.4001     -0.1454
            z       0.1036     -0.0632      2.6951
-------------------------------------------------------------------------------
   25 O3    x      -2.0468     -0.9613      0.4299
            y      -0.9408     -2.3700      0.4446
            z       0.5676      0.4563     -1.5934
-------------------------------------------------------------------------------
   26 O2    x      -1.6931     -0.7408     -0.3684
            y      -0.6820     -2.0160     -0.3687
            z      -0.3522     -0.3415     -1.3516
-------------------------------------------------------------------------------
   27 O2    x      -1.6657      0.6991      0.3337
            y       0.6876     -1.9964     -0.3399
            z       0.3290     -0.3350     -1.3535
-------------------------------------------------------------------------------
   28 O2    x      -1.6319      0.6907     -0.2831
            y       0.6641     -1.9759      0.3136
            z      -0.3717      0.3106     -1.3597
-------------------------------------------------------------------------------
   29 O2    x      -1.7216     -0.7337      0.3471
            y      -0.7519     -2.0079      0.3575
            z       0.3579      0.3443     -1.3385
-------------------------------------------------------------------------------
   30 O2    x      -1.6776     -0.7127     -0.2940
            y      -0.7195     -1.9816     -0.3328
            z      -0.3705     -0.3133     -1.3584
-------------------------------------------------------------------------------
   31 O3    x      -2.0961      0.9387      0.4036
            y       0.9922     -2.2993     -0.4787
            z       0.5183     -0.4695     -1.6241
-------------------------------------------------------------------------------
   32 O2    x      -1.7909      0.7535     -0.3438
            y       0.7626     -1.9769      0.3306
            z      -0.3649      0.3273     -1.3295
-------------------------------------------------------------------------------
   33 O3    x      -1.9874     -0.0447      1.0779
            y      -0.0165     -1.2081      0.0181
            z       1.3782      0.0398     -3.4339
-------------------------------------------------------------------------------
   34 O2    x      -1.7187     -0.0216     -0.7987
            y       0.0093     -1.0948     -0.0034
            z      -1.0154     -0.0274     -2.6009
-------------------------------------------------------------------------------
   35 O3    x      -2.2193     -0.0071     -1.0363
            y       0.0138     -1.2494     -0.0086
            z      -1.0796     -0.0331     -2.6618
-------------------------------------------------------------------------------
   36 O2    x      -1.7377     -0.0329      0.6828
            y      -0.0377     -1.1140      0.0263
            z       0.6535      0.0299     -2.2000
-------------------------------------------------------------------------------
   37 O2    x      -1.7282     -0.0426     -0.6472
            y       0.0146     -1.1159     -0.0230
            z      -0.5950     -0.0435     -2.1801
-------------------------------------------------------------------------------
   38 O3    x      -2.1173     -0.0457      0.9360
            y      -0.0334     -1.2445      0.0394
            z       0.9564      0.0409     -2.6702
-------------------------------------------------------------------------------
   39 O2    x      -1.7302     -0.7195      0.4264
            y      -0.6827     -1.9600      0.4088
            z       0.3764      0.3765     -1.2903
-------------------------------------------------------------------------------
   40 O2    x      -1.7251     -0.7023     -0.2220
            y      -0.6927     -1.9378     -0.2674
            z      -0.3034     -0.2626     -1.2337
-------------------------------------------------------------------------------
   41 O1    x      -2.2797      0.9695      0.3561
            y       0.9806     -2.3825     -0.4537
            z       0.4342     -0.3948     -1.6157
-------------------------------------------------------------------------------
   42 O2    x      -1.7690      0.7373     -0.4093
            y       0.6872     -1.9452      0.4102
            z      -0.3574      0.3736     -1.2623
-------------------------------------------------------------------------------
   43 O3    x      -2.0307     -0.9121      0.5059
            y      -0.8333     -2.2642      0.5135
            z       0.5627      0.4801     -1.5581
-------------------------------------------------------------------------------
   44 O2    x      -1.6606     -0.6925     -0.3834
            y      -0.5652     -2.0611     -0.4169
            z      -0.3432     -0.3608     -1.2337
-------------------------------------------------------------------------------
   45 O2    x      -1.7050      0.7012      0.4015
            y       0.6345     -2.0383     -0.4242
            z       0.3966     -0.3987     -1.2758
-------------------------------------------------------------------------------
   46 O2    x      -1.6544      0.6894     -0.2556
            y       0.6277     -2.0152      0.2843
            z      -0.3281      0.2833     -1.2293
-------------------------------------------------------------------------------
   47 O3    x      -2.2593      0.0444     -0.7854
            y       0.0503     -1.3270     -0.0147
            z      -0.4600     -0.0400     -2.0530
-------------------------------------------------------------------------------
   48 O2    x      -1.8409     -0.0656      0.5467
            y      -0.0422     -1.1906      0.0304
            z       0.3002      0.0097     -1.6514
-------------------------------------------------------------------------------
   49 O2    x      -1.1930     -0.0600      0.0610
            y      -0.1015     -2.4584      0.0093
            z       0.0855      0.0036     -1.0925
-------------------------------------------------------------------------------
   50 O2    x      -1.1986     -0.0570     -0.0345
            y      -0.1189     -2.6143      0.0399
            z      -0.0598      0.0484     -1.0424
-------------------------------------------------------------------------------
   51 O2    x      -1.1609      0.0250      0.0535
            y       0.0325     -2.5521     -0.0057
            z       0.0707      0.0075     -1.0684
-------------------------------------------------------------------------------
   52 O2    x      -1.1470      0.0181     -0.0731
            y       0.0220     -2.5338      0.0191
            z      -0.0841      0.0051     -1.0788
-------------------------------------------------------------------------------
   53 O2    x      -2.3763      0.1209      0.0273
            y       0.0865     -1.2664      0.0737
            z       0.0262      0.0410     -1.1017
-------------------------------------------------------------------------------
   54 O2    x      -2.3870      0.0807      0.0629
            y       0.0245     -1.2428     -0.0781
            z       0.0321     -0.0436     -1.0844
-------------------------------------------------------------------------------
   55 O2    x      -2.3840     -0.0499     -0.0472
            y      -0.0150     -1.2457     -0.0644
            z      -0.0385     -0.0495     -1.0615
-------------------------------------------------------------------------------
   56 O2    x      -2.3590     -0.0504     -0.0619
            y      -0.0228     -1.2419      0.0643
            z      -0.0592      0.0497     -1.0799
-------------------------------------------------------------------------------
   57 O2    x      -1.2151     -0.1184     -0.1503
            y      -0.1126     -1.3059     -0.0010
            z      -0.1516      0.0114     -2.0658
-------------------------------------------------------------------------------
   58 O2    x      -1.2436     -0.1442     -0.0322
            y      -0.1236     -1.2893      0.0124
            z      -0.0246      0.0102     -2.0358
-------------------------------------------------------------------------------
   59 O2    x      -1.1998      0.1299     -0.0004
            y       0.1199     -1.2612      0.0088
            z      -0.0055      0.0007     -2.0485
-------------------------------------------------------------------------------
   60 O2    x      -1.1837      0.1158      0.0667
            y       0.1131     -1.2652     -0.0039
            z       0.0714      0.0112     -2.0976
-------------------------------------------------------------------------------
   61 O2    x      -1.1771     -0.1225      0.0174
            y      -0.0959     -1.2711      0.0045
            z       0.0314     -0.0125     -2.0664
-------------------------------------------------------------------------------
   62 O2    x      -1.1710     -0.1226      0.0468
            y      -0.0997     -1.2780     -0.0254
            z       0.0376     -0.0120     -2.0899
-------------------------------------------------------------------------------
   63 O2    x      -1.2057      0.1458     -0.1050
            y       0.0880     -1.3052     -0.0031
            z      -0.0842      0.0107     -2.0380
-------------------------------------------------------------------------------
   64 O3    x      -1.3379      0.1469     -0.0610
            y       0.0841     -1.4852     -0.0827
            z      -0.0723     -0.0931     -2.5707
-------------------------------------------------------------------------------
   65 O2    x      -1.2132      0.0301      0.0831
            y       0.0742     -2.5321      0.0165
            z       0.1050      0.0035     -1.0351
-------------------------------------------------------------------------------
   66 O2    x      -1.2003      0.0296     -0.0845
            y       0.0826     -2.4984     -0.0107
            z      -0.0888      0.0020     -1.0335
-------------------------------------------------------------------------------
   67 O3    x      -1.4149     -0.0086      0.0922
            y      -0.0790     -3.0426     -0.0728
            z       0.1197     -0.0599     -1.1501
-------------------------------------------------------------------------------
   68 O2    x      -1.2512     -0.1048     -0.0739
            y      -0.1791     -2.5193      0.0089
            z      -0.0999     -0.0070     -1.0147
-------------------------------------------------------------------------------
   69 O2    x      -2.4107     -0.0418     -0.0365
            y      -0.0374     -1.2378      0.0595
            z      -0.0128      0.0411     -1.0380
-------------------------------------------------------------------------------
   70 O2    x      -2.3943     -0.0296     -0.0534
            y      -0.0225     -1.2345     -0.0651
            z      -0.0165     -0.0455     -1.0544
-------------------------------------------------------------------------------
   71 O3    x      -2.9586      0.1789      0.1814
            y       0.1057     -1.3835     -0.1124
            z       0.1558     -0.0626     -1.2415
-------------------------------------------------------------------------------
   72 O2    x      -2.4585      0.1134      0.0618
            y       0.0686     -1.2377      0.0565
            z       0.0481      0.0182     -1.0745
-------------------------------------------------------------------------------




  Elastic Constant Matrix: (Units=GPa)

-------------------------------------------------------------------------------
  Indices      1         2         3         4         5         6    
-------------------------------------------------------------------------------
       1     57.4326   31.4324   25.3620   -1.9371    0.8551    7.0554
       2     31.4324   80.7821   25.6860   -2.7087    0.5579    7.0034
       3     25.3620   25.6860   18.7774   -0.5423   -0.6967    1.7334
       4     -1.9371   -2.7087   -0.5423   11.5864    1.1491    1.0481
       5      0.8551    0.5579   -0.6967    1.1491   25.4918    0.2338
       6      7.0554    7.0034    1.7334    1.0481    0.2338   25.4638
-------------------------------------------------------------------------------


  Elastic Compliance Matrix: (Units=1/GPa)

-------------------------------------------------------------------------------
  Indices      1         2         3         4         5         6    
-------------------------------------------------------------------------------
       1    0.046452  0.004734 -0.068252  0.006935 -0.003750 -0.009777
       2    0.004734  0.023066 -0.037378  0.005099 -0.001866 -0.005304
       3   -0.068252 -0.037378  0.195003 -0.013386  0.008890  0.016386
       4    0.006935  0.005099 -0.013386  0.089042 -0.004668 -0.006035
       5   -0.003750 -0.001866  0.008890 -0.004668  0.039841  0.000773
       6   -0.009777 -0.005304  0.016386 -0.006035  0.000773  0.042565
-------------------------------------------------------------------------------

  Mechanical properties :

-------------------------------------------------------------------------------
  Convention :                    Reuss         Voigt         Hill
-------------------------------------------------------------------------------
  Bulk  Modulus (GPa)     =      15.94220      35.77252      25.85736
  Shear Modulus (GPa)     =       7.59104      17.47584      12.53344
-------------------------------------------------------------------------------
  Velocity S-wave (km/s)  =       1.96712       2.98469       2.52764
  Velocity P-wave (km/s)  =       3.64500       5.48754       4.65828
-------------------------------------------------------------------------------
  Compressibility (1/GPa) =    0.06272660
-------------------------------------------------------------------------------
  Stress axis :                     x             y             z
-------------------------------------------------------------------------------
  Youngs Moduli (GPa)     =      21.52767      43.35435       5.12814
-------------------------------------------------------------------------------
  Poissons Ratio (x)      =                    -0.20522       0.35001
  Poissons Ratio (y)      =      -0.10190                     0.19168
  Poissons Ratio (z)      =       1.46931       1.62050
-------------------------------------------------------------------------------


  Piezoelectric Strain Matrix: (Units=C/m**2)

-------------------------------------------------------------------------------
  Indices      1         2         3         4         5         6    
-------------------------------------------------------------------------------
       x     0.37295   0.71567   0.62004  -0.13950   0.22195   0.05943
       y     0.35043   0.75056  -0.10000   0.24243  -0.27180   0.14414
       z    -0.18149  -0.23257  -0.07917  -0.13586  -0.45720   0.04487
-------------------------------------------------------------------------------


  Piezoelectric Stress Matrix: (Units=10**-11 C/N)

-------------------------------------------------------------------------------
  Indices      1         2         3         4         5         6    
-------------------------------------------------------------------------------
       x    -2.39880  -0.63436   7.35185  -1.58803   1.23176   0.62608
       y     2.79476   2.36879  -7.47726   2.95813  -1.54529  -0.45838
       z    -0.37943  -0.33417   0.41314  -1.16181  -1.71356   0.40870
-------------------------------------------------------------------------------


  Static dielectric constant tensor : 

-------------------------------------------------------------------------------
              x         y         z
-------------------------------------------------------------------------------
       x     3.97250  -0.00234  -0.14404
       y    -0.00234   4.14582  -0.06326
       z    -0.14404  -0.06326   3.31009
--------------------------------------------------------------------------------

  High frequency dielectric constant tensor : 

-------------------------------------------------------------------------------
              x         y         z
-------------------------------------------------------------------------------
       x     1.68149   0.00154   0.00134
       y     0.00154   1.68962  -0.00039
       z     0.00134  -0.00039   1.61948
-------------------------------------------------------------------------------

  Static refractive indices : 

-------------------------------------------------------------------------------
    1 =    1.80987      2 =    2.00043      3 =    2.03741
-------------------------------------------------------------------------------

  High frequency refractive indices : 

-------------------------------------------------------------------------------
    1 =    1.27258      2 =    1.29663      3 =    1.29996
-------------------------------------------------------------------------------


  Time to end of optimisation =      10.6114 seconds


  Peak dynamic memory used =       5.01 MB 


  Timing analysis for GULP :

--------------------------------------------------------------------------------
  Task / Subroutine                                          Time (Seconds)
--------------------------------------------------------------------------------
  Calculation of reciprocal space energy and derivatives          0.6892
  Calculation of real space energy and derivatives                6.9180
  Calculation of three-body energy and derivatives                0.6489
  Calculation and manipulation of Hessian matrix                  2.7956
  Calculation of matrix inversion                                 0.0423
  Global summation overhead                                       0.0001
--------------------------------------------------------------------------------
  Total CPU time                                                 10.6114
--------------------------------------------------------------------------------


  Dump file written as c00048.vasp.grs
  CIF file written as c00048.vasp.cif


  Job Finished at 11:34.44  7th October    2025                               

