********************************************************************************
*                       GENERAL UTILITY LATTICE PROGRAM                        *
*                                 Julian Gale                                  *
*                       Curtin Institute for Computation                       *
*                    School of Molecular and Life Sciences                     *
*                    Curtin University, Western Australia                      *
********************************************************************************
* Version = 6.1.2 * Last modified =   3rd November 2022                        *
********************************************************************************
*  optimise     - perform optimisation run                                     *
*  conp         - constant pressure calculation                                *
*  property     - calculate properties for final geometry                      *
********************************************************************************

  Job Started  at 11:33.17  7th October    2025                               

  Number of CPUs =     1


  Total number of configurations input =      1

********************************************************************************
*  Input for Configuration =   1 : c00041.vasp                                 *
********************************************************************************

  Formula = Ge3Si21O48                                                  

  Number of irreducible atoms/shells =     120


  Total number atoms/shells =     120

  Dimensionality = 3               :  Bulk   



  Cartesian lattice vectors (Angstroms) :

       17.182800    0.000000    0.000000
        0.000000    7.513760    0.000000
        0.000000    0.000000   10.447700

  Cell parameters (Angstroms/Degrees):

  a =      17.1828    alpha =  90.0000
  b =       7.5138    beta  =  90.0000
  c =      10.4477    gamma =  90.0000

  Initial cell volume =        1348.875752 Angs**3

  Temperature of configuration =   0.00     K 

  Pressure of configuration =         0.000 GPa 

  Fractional coordinates of asymmetric unit :

--------------------------------------------------------------------------------
   No.  Atomic       x           y          z         Charge      Occupancy
        Label      (Frac)      (Frac)     (Frac)        (e)         (Frac)  
--------------------------------------------------------------------------------
      1 Ge    c    0.052090    0.000000    0.372270     4.00000    1.000000    
      2 Ge    c    0.443270 *  0.000000 *  0.877870 *   4.00000    1.000000    
      3 Ge    c    0.056730 *  0.000000 *  0.877870 *   4.00000    1.000000    
      4 Si    c    0.447910 *  0.000000 *  0.372270 *   4.00000    1.000000    
      5 Si    c    0.947910 *  0.000000 *  0.627730 *   4.00000    1.000000    
      6 Si    c    0.552090 *  0.000000 *  0.627730 *   4.00000    1.000000    
      7 Si    c    0.556730 *  0.000000 *  0.122130 *   4.00000    1.000000    
      8 Si    c    0.943270 *  0.000000 *  0.122130 *   4.00000    1.000000    
      9 Si    c    0.160190 *  0.293910 *  0.273440 *   4.00000    1.000000    
     10 Si    c    0.339810 *  0.706090 *  0.273440 *   4.00000    1.000000    
     11 Si    c    0.839810 *  0.293910 *  0.726560 *   4.00000    1.000000    
     12 Si    c    0.660190 *  0.706090 *  0.726560 *   4.00000    1.000000    
     13 Si    c    0.839810 *  0.706090 *  0.726560 *   4.00000    1.000000    
     14 Si    c    0.660190 *  0.293910 *  0.726560 *   4.00000    1.000000    
     15 Si    c    0.160190 *  0.706090 *  0.273440 *   4.00000    1.000000    
     16 Si    c    0.339810 *  0.293910 *  0.273440 *   4.00000    1.000000    
     17 Si    c    0.660660 *  0.294090 *  0.017440 *   4.00000    1.000000    
     18 Si    c    0.839340 *  0.705910 *  0.017440 *   4.00000    1.000000    
     19 Si    c    0.339340 *  0.294090 *  0.982560 *   4.00000    1.000000    
     20 Si    c    0.160660 *  0.705910 *  0.982560 *   4.00000    1.000000    
     21 Si    c    0.339340 *  0.705910 *  0.982560 *   4.00000    1.000000    
     22 Si    c    0.160660 *  0.294090 *  0.982560 *   4.00000    1.000000    
     23 Si    c    0.660660 *  0.705910 *  0.017440 *   4.00000    1.000000    
     24 Si    c    0.839340 *  0.294090 *  0.017440 *   4.00000    1.000000    
     25 O3    c    0.106570 *  0.174340 *  0.366200 *   1.33043    1.000000    
     26 O2    c    0.393430 *  0.825660 *  0.366200 *   0.87073    1.000000    
     27 O2    c    0.893430 *  0.174340 *  0.633800 *   0.87073    1.000000    
     28 O2    c    0.606570 *  0.825660 *  0.633800 *   0.87073    1.000000    
     29 O2    c    0.893430 *  0.825660 *  0.633800 *   0.87073    1.000000    
     30 O2    c    0.606570 *  0.174340 *  0.633800 *   0.87073    1.000000    
     31 O3    c    0.106570 *  0.825660 *  0.366200 *   1.33043    1.000000    
     32 O2    c    0.393430 *  0.174340 *  0.366200 *   0.87073    1.000000    
     33 O3    c    0.000000 *  0.000000 *  0.500000 *   1.33043    1.000000    
     34 O2    c    0.500000 *  0.000000 *  0.500000 *   0.87073    1.000000    
     35 O3    c    0.994520 *  0.000000 *  0.250840 *   1.33043    1.000000    
     36 O2    c    0.505480 *  0.000000 *  0.250840 *   0.87073    1.000000    
     37 O3    c    0.005480 *  0.000000 *  0.749160 *   1.33043    1.000000    
     38 O3    c    0.494520 *  0.000000 *  0.749160 *   1.33043    1.000000    
     39 O2    c    0.610230 *  0.175520 *  0.115390 *   0.87073    1.000000    
     40 O2    c    0.889770 *  0.824480 *  0.115390 *   0.87073    1.000000    
     41 O3    c    0.389770 *  0.175520 *  0.884610 *   1.33043    1.000000    
     42 O3    c    0.110230 *  0.824480 *  0.884610 *   1.33043    1.000000    
     43 O3    c    0.389770 *  0.824480 *  0.884610 *   1.33043    1.000000    
     44 O3    c    0.110230 *  0.175520 *  0.884610 *   1.33043    1.000000    
     45 O2    c    0.610230 *  0.824480 *  0.115390 *   0.87073    1.000000    
     46 O2    c    0.889770 *  0.175520 *  0.115390 *   0.87073    1.000000    
     47 O3    c    0.500000 *  0.000000 *  0.000000 *   1.33043    1.000000    
     48 O3    c    0.000000 *  0.000000 *  0.000000 *   1.33043    1.000000    
     49 O2    c    0.151750 *  0.500000 *  0.313330 *   0.87073    1.000000    
     50 O2    c    0.348250 *  0.500000 *  0.313330 *   0.87073    1.000000    
     51 O2    c    0.848250 *  0.500000 *  0.686670 *   0.87073    1.000000    
     52 O2    c    0.651750 *  0.500000 *  0.686670 *   0.87073    1.000000    
     53 O2    c    0.250000 *  0.234950 *  0.285720 *   0.87073    1.000000    
     54 O2    c    0.250000 *  0.765050 *  0.285720 *   0.87073    1.000000    
     55 O2    c    0.750000 *  0.234950 *  0.714280 *   0.87073    1.000000    
     56 O2    c    0.750000 *  0.765050 *  0.714280 *   0.87073    1.000000    
     57 O2    c    0.131410 *  0.268650 *  0.127790 *   0.87073    1.000000    
     58 O2    c    0.368590 *  0.731350 *  0.127790 *   0.87073    1.000000    
     59 O2    c    0.868590 *  0.268650 *  0.872210 *   0.87073    1.000000    
     60 O2    c    0.631410 *  0.731350 *  0.872210 *   0.87073    1.000000    
     61 O2    c    0.868590 *  0.731350 *  0.872210 *   0.87073    1.000000    
     62 O2    c    0.631410 *  0.268650 *  0.872210 *   0.87073    1.000000    
     63 O2    c    0.131410 *  0.731350 *  0.127790 *   0.87073    1.000000    
     64 O2    c    0.368590 *  0.268650 *  0.127790 *   0.87073    1.000000    
     65 O2    c    0.653920 *  0.500000 *  0.058200 *   0.87073    1.000000    
     66 O2    c    0.846080 *  0.500000 *  0.058200 *   0.87073    1.000000    
     67 O2    c    0.346080 *  0.500000 *  0.941800 *   0.87073    1.000000    
     68 O2    c    0.153920 *  0.500000 *  0.941800 *   0.87073    1.000000    
     69 O2    c    0.750000 *  0.231060 *  0.027050 *   0.87073    1.000000    
     70 O2    c    0.750000 *  0.768940 *  0.027050 *   0.87073    1.000000    
     71 O2    c    0.250000 *  0.231060 *  0.972950 *   0.87073    1.000000    
     72 O2    c    0.250000 *  0.768940 *  0.972950 *   0.87073    1.000000    
     73 O3    s    0.106570 *  0.174340 *  0.366200 *  -3.33043    1.000000    
     74 O2    s    0.393430 *  0.825660 *  0.366200 *  -2.87073    1.000000    
     75 O2    s    0.893430 *  0.174340 *  0.633800 *  -2.87073    1.000000    
     76 O2    s    0.606570 *  0.825660 *  0.633800 *  -2.87073    1.000000    
     77 O2    s    0.893430 *  0.825660 *  0.633800 *  -2.87073    1.000000    
     78 O2    s    0.606570 *  0.174340 *  0.633800 *  -2.87073    1.000000    
     79 O3    s    0.106570 *  0.825660 *  0.366200 *  -3.33043    1.000000    
     80 O2    s    0.393430 *  0.174340 *  0.366200 *  -2.87073    1.000000    
     81 O3    s    0.000000 *  0.000000 *  0.500000 *  -3.33043    1.000000    
     82 O2    s    0.500000 *  0.000000 *  0.500000 *  -2.87073    1.000000    
     83 O3    s    0.994520 *  0.000000 *  0.250840 *  -3.33043    1.000000    
     84 O2    s    0.505480 *  0.000000 *  0.250840 *  -2.87073    1.000000    
     85 O3    s    0.005480 *  0.000000 *  0.749160 *  -3.33043    1.000000    
     86 O3    s    0.494520 *  0.000000 *  0.749160 *  -3.33043    1.000000    
     87 O2    s    0.610230 *  0.175520 *  0.115390 *  -2.87073    1.000000    
     88 O2    s    0.889770 *  0.824480 *  0.115390 *  -2.87073    1.000000    
     89 O3    s    0.389770 *  0.175520 *  0.884610 *  -3.33043    1.000000    
     90 O3    s    0.110230 *  0.824480 *  0.884610 *  -3.33043    1.000000    
     91 O3    s    0.389770 *  0.824480 *  0.884610 *  -3.33043    1.000000    
     92 O3    s    0.110230 *  0.175520 *  0.884610 *  -3.33043    1.000000    
     93 O2    s    0.610230 *  0.824480 *  0.115390 *  -2.87073    1.000000    
     94 O2    s    0.889770 *  0.175520 *  0.115390 *  -2.87073    1.000000    
     95 O3    s    0.500000 *  0.000000 *  0.000000 *  -3.33043    1.000000    
     96 O3    s    0.000000 *  0.000000 *  0.000000 *  -3.33043    1.000000    
     97 O2    s    0.151750 *  0.500000 *  0.313330 *  -2.87073    1.000000    
     98 O2    s    0.348250 *  0.500000 *  0.313330 *  -2.87073    1.000000    
     99 O2    s    0.848250 *  0.500000 *  0.686670 *  -2.87073    1.000000    
    100 O2    s    0.651750 *  0.500000 *  0.686670 *  -2.87073    1.000000    
    101 O2    s    0.250000 *  0.234950 *  0.285720 *  -2.87073    1.000000    
    102 O2    s    0.250000 *  0.765050 *  0.285720 *  -2.87073    1.000000    
    103 O2    s    0.750000 *  0.234950 *  0.714280 *  -2.87073    1.000000    
    104 O2    s    0.750000 *  0.765050 *  0.714280 *  -2.87073    1.000000    
    105 O2    s    0.131410 *  0.268650 *  0.127790 *  -2.87073    1.000000    
    106 O2    s    0.368590 *  0.731350 *  0.127790 *  -2.87073    1.000000    
    107 O2    s    0.868590 *  0.268650 *  0.872210 *  -2.87073    1.000000    
    108 O2    s    0.631410 *  0.731350 *  0.872210 *  -2.87073    1.000000    
    109 O2    s    0.868590 *  0.731350 *  0.872210 *  -2.87073    1.000000    
    110 O2    s    0.631410 *  0.268650 *  0.872210 *  -2.87073    1.000000    
    111 O2    s    0.131410 *  0.731350 *  0.127790 *  -2.87073    1.000000    
    112 O2    s    0.368590 *  0.268650 *  0.127790 *  -2.87073    1.000000    
    113 O2    s    0.653920 *  0.500000 *  0.058200 *  -2.87073    1.000000    
    114 O2    s    0.846080 *  0.500000 *  0.058200 *  -2.87073    1.000000    
    115 O2    s    0.346080 *  0.500000 *  0.941800 *  -2.87073    1.000000    
    116 O2    s    0.153920 *  0.500000 *  0.941800 *  -2.87073    1.000000    
    117 O2    s    0.750000 *  0.231060 *  0.027050 *  -2.87073    1.000000    
    118 O2    s    0.750000 *  0.768940 *  0.027050 *  -2.87073    1.000000    
    119 O2    s    0.250000 *  0.231060 *  0.972950 *  -2.87073    1.000000    
    120 O2    s    0.250000 *  0.768940 *  0.972950 *  -2.87073    1.000000    
--------------------------------------------------------------------------------



********************************************************************************
*  General input information                                                   *
********************************************************************************

  Species output for all configurations : 

--------------------------------------------------------------------------------
  Species    Type    Atomic    Atomic    Charge       Radii (Angs)     Library
                     Number     Mass       (e)     Cova   Ionic  VDW   Symbol
--------------------------------------------------------------------------------
    Ge       Core       32      72.61   4.000000   1.170  0.000  1.750 Ge       
    Si       Core       14      28.09   4.000000   1.200  0.000  2.100 Si       
    O1       Core        8      16.00   1.733957   0.730  0.000  0.000 O1       
    O2       Core        8      16.00   0.870733   0.730  0.000  1.360 O2       
    O3       Core        8      16.00   1.330431   0.730  0.000  1.360 O3       
    O1       Shell       8       0.00  -3.733957   0.730  0.000  0.000 O1       
    O2       Shell       8       0.00  -2.870733   0.730  0.000  0.000 O2       
    O3       Shell       8       0.00  -3.330431   0.730  0.000  0.000 O3       
--------------------------------------------------------------------------------


  Lattice summation method               =    Ewald          (3-D)
                                         =    Parry          (2-D)
                                         =    Saunders et al (1-D)
  Accuracy factor for lattice sums       =   12.000


  Analytic derivatives to be used

  Time limit = Infinity

  Maximum range for interatomic potentials =    100000.000000 Angstroms

  General interatomic potentials :

--------------------------------------------------------------------------------
Atom  Types   Potential      Parameter       Value         Units   Cutoffs(Ang)
  1     2                                                            Min /  Max 
--------------------------------------------------------------------------------
Si   c O1   s Buckingham    Buckingham A     1315.2478    eV        0.000 16.000
                            Buckingham rho  0.31775900    Ang       
                            Buckingham C     10.141118    eV*Ang^6  
--------------------------------------------------------------------------------
Si   c O2   s Buckingham    Buckingham A     1315.2478    eV        0.000 16.000
                            Buckingham rho  0.31775900    Ang       
                            Buckingham C     10.141118    eV*Ang^6  
--------------------------------------------------------------------------------
Si   c O3   s Buckingham    Buckingham A     1315.2478    eV        0.000 16.000
                            Buckingham rho  0.31775900    Ang       
                            Buckingham C     10.141118    eV*Ang^6  
--------------------------------------------------------------------------------
Ge   c O1   s Buckingham    Buckingham A     1497.3996    eV        0.000 16.000
                            Buckingham rho  0.32564600    Ang       
                            Buckingham C     16.808599    eV*Ang^6  
--------------------------------------------------------------------------------
Ge   c O2   s Buckingham    Buckingham A     1497.3996    eV        0.000 16.000
                            Buckingham rho  0.32564600    Ang       
                            Buckingham C     16.808599    eV*Ang^6  
--------------------------------------------------------------------------------
Ge   c O3   s Buckingham    Buckingham A     1497.3996    eV        0.000 16.000
                            Buckingham rho  0.32564600    Ang       
                            Buckingham C     16.808599    eV*Ang^6  
--------------------------------------------------------------------------------
O1   s O1   s Buckingham    Buckingham A     22764.000    eV        0.000 16.000
                            Buckingham rho  0.14900000    Ang       
                            Buckingham C     10.937044    eV*Ang^6  
--------------------------------------------------------------------------------
O1   s O2   s Buckingham    Buckingham A     22764.000    eV        0.000 16.000
                            Buckingham rho  0.14900000    Ang       
                            Buckingham C     10.937044    eV*Ang^6  
--------------------------------------------------------------------------------
O1   s O3   s Buckingham    Buckingham A     22764.000    eV        0.000 16.000
                            Buckingham rho  0.14900000    Ang       
                            Buckingham C     10.937044    eV*Ang^6  
--------------------------------------------------------------------------------
O2   s O2   s Buckingham    Buckingham A     22764.000    eV        0.000 16.000
                            Buckingham rho  0.14900000    Ang       
                            Buckingham C     10.937044    eV*Ang^6  
--------------------------------------------------------------------------------
O2   s O3   s Buckingham    Buckingham A     22764.000    eV        0.000 16.000
                            Buckingham rho  0.14900000    Ang       
                            Buckingham C     10.937044    eV*Ang^6  
--------------------------------------------------------------------------------
O3   s O3   s Buckingham    Buckingham A     22764.000    eV        0.000 16.000
                            Buckingham rho  0.14900000    Ang       
                            Buckingham C     10.937044    eV*Ang^6  
--------------------------------------------------------------------------------
O1   c O1   s Spring (c-s)  Spring k 2       180.31577    eV*Ang^-2 0.000  0.800
                            Spring k 4       0.0000000    eV*Ang^-4 
--------------------------------------------------------------------------------
O2   c O2   s Spring (c-s)  Spring k 2       75.969800    eV*Ang^-2 0.000  0.800
                            Spring k 4       0.0000000    eV*Ang^-4 
--------------------------------------------------------------------------------
O3   c O3   s Spring (c-s)  Spring k 2       128.14270    eV*Ang^-2 0.000  0.800
                            Spring k 4       0.0000000    eV*Ang^-4 
--------------------------------------------------------------------------------

  General Three-body potentials :

--------------------------------------------------------------------------------
  Atoms       Potential      Parameter       Value         Units   Cutoffs(Ang)
  1 / 2 / 3                                                          Min /  Max 
--------------------------------------------------------------------------------
Si    core    Harmonic      Three-body cnst  1.2614000    eV*rad^-2 0.000  1.900
O1    shel                  Three-body angl  109.47000    degrees   0.000  1.900
O1    shel                  Three-body k4    0.0000000    eV*rad^-4 0.000  3.500
                            Three-body k3    0.0000000    eV*rad^-3 
--------------------------------------------------------------------------------
Si    core    Harmonic      Three-body cnst  1.2614000    eV*rad^-2 0.000  1.900
O1    shel                  Three-body angl  109.47000    degrees   0.000  1.900
õ(1   shel                  Three-body k4    0.0000000    eV*rad^-4 0.000  3.500
                            Three-body k3    0.0000000    eV*rad^-3 
--------------------------------------------------------------------------------
Si    core    Harmonic      Three-body cnst  1.2614000    eV*rad^-2 0.000  1.900
õ(1   shel                  Three-body angl  109.47000    degrees   0.000  1.900
õ(1   shel                  Three-body k4    0.0000000    eV*rad^-4 0.000  3.500
                            Three-body k3    0.0000000    eV*rad^-3 
--------------------------------------------------------------------------------
Si    core    Harmonic      Three-body cnst  1.2614000    eV*rad^-2 0.000  1.900
O1    shel                  Three-body angl  109.47000    degrees   0.000  1.900
O2    shel                  Three-body k4    0.0000000    eV*rad^-4 0.000  3.500
                            Three-body k3    0.0000000    eV*rad^-3 
--------------------------------------------------------------------------------
Si    core    Harmonic      Three-body cnst  1.2614000    eV*rad^-2 0.000  1.900
O1    shel                  Three-body angl  109.47000    degrees   0.000  1.900
õ(2   shel                  Three-body k4    0.0000000    eV*rad^-4 0.000  3.500
                            Three-body k3    0.0000000    eV*rad^-3 
--------------------------------------------------------------------------------
Si    core    Harmonic      Three-body cnst  1.2614000    eV*rad^-2 0.000  1.900
O2    shel                  Three-body angl  109.47000    degrees   0.000  1.900
õ(1   shel                  Three-body k4    0.0000000    eV*rad^-4 0.000  3.500
                            Three-body k3    0.0000000    eV*rad^-3 
--------------------------------------------------------------------------------
Si    core    Harmonic      Three-body cnst  1.2614000    eV*rad^-2 0.000  1.900
õ(1   shel                  Three-body angl  109.47000    degrees   0.000  1.900
õ(2   shel                  Three-body k4    0.0000000    eV*rad^-4 0.000  3.500
                            Three-body k3    0.0000000    eV*rad^-3 
--------------------------------------------------------------------------------
Si    core    Harmonic      Three-body cnst  1.2614000    eV*rad^-2 0.000  1.900
O2    shel                  Three-body angl  109.47000    degrees   0.000  1.900
O2    shel                  Three-body k4    0.0000000    eV*rad^-4 0.000  3.500
                            Three-body k3    0.0000000    eV*rad^-3 
--------------------------------------------------------------------------------
Si    core    Harmonic      Three-body cnst  1.2614000    eV*rad^-2 0.000  1.900
O2    shel                  Three-body angl  109.47000    degrees   0.000  1.900
õ(2   shel                  Three-body k4    0.0000000    eV*rad^-4 0.000  3.500
                            Three-body k3    0.0000000    eV*rad^-3 
--------------------------------------------------------------------------------
Si    core    Harmonic      Three-body cnst  1.2614000    eV*rad^-2 0.000  1.900
õ(2   shel                  Three-body angl  109.47000    degrees   0.000  1.900
õ(2   shel                  Three-body k4    0.0000000    eV*rad^-4 0.000  3.500
                            Three-body k3    0.0000000    eV*rad^-3 
--------------------------------------------------------------------------------

********************************************************************************
*  Output for configuration   1 : c00041.vasp                                  *
********************************************************************************


  Components of energy : 

--------------------------------------------------------------------------------
  Interatomic potentials     =         760.39759413 eV    
  Three-body potentials      =           0.00959988 eV    
  Monopole - monopole (real) =       -2676.00317478 eV    
  Monopole - monopole (recip)=       -1115.35404472 eV    
  Monopole - monopole (total)=       -3791.35721950 eV    
--------------------------------------------------------------------------------
  Total lattice energy       =       -3030.95002549 eV    
--------------------------------------------------------------------------------
  Total lattice energy       =         -292440.3451 kJ/(mole unit cells)
--------------------------------------------------------------------------------


  Number of variables =      363

  Maximum number of calculations  =          1000
  Maximum Hessian update interval =            10
  Maximum step size               =   0.100000000
  Maximum parameter tolerance     =   0.000010000
  Maximum function  tolerance     =   0.000010000
  Maximum gradient  tolerance     =   0.001000000
  Maximum gradient  component     =   0.010000000

  Symmetry not applied to optimisation

  Cell parameters to be optimised using strains

  Newton-Raphson optimiser to be used

  BFGS hessian update to be used

  Lower half triangular hessian to be used

  Minimiser to switch to RFO
  When gradient norm is less than     0.050000

  Dumpfile to be written after every cycle

  Start of bulk optimisation :

  Cycle:      0 Energy:     -3030.950025  Gnorm:      4.287913  CPU:    0.110
  ** Hessian calculated **
  Cycle:      1 Energy:     -3044.658208  Gnorm:      3.337763  CPU:    0.293
  ** Hessian calculated **
  Cycle:      2 Energy:     -3063.579502  Gnorm:      0.765884  CPU:    0.490
  ** Hessian calculated **
  Cycle:      3 Energy:     -3065.078900  Gnorm:      0.407373  CPU:    0.689
  Cycle:      4 Energy:     -3065.552024  Gnorm:      0.266320  CPU:    0.790
  Cycle:      5 Energy:     -3065.974043  Gnorm:      0.213922  CPU:    0.909
  Cycle:      6 Energy:     -3066.391175  Gnorm:      0.161294  CPU:    1.029
  Cycle:      7 Energy:     -3066.640304  Gnorm:      0.135327  CPU:    1.130
  Cycle:      8 Energy:     -3066.792062  Gnorm:      0.107088  CPU:    1.232
  Cycle:      9 Energy:     -3066.881414  Gnorm:      0.093383  CPU:    1.332
  Cycle:     10 Energy:     -3066.936766  Gnorm:      0.079438  CPU:    1.451
  Cycle:     11 Energy:     -3066.978684  Gnorm:      0.077093  CPU:    1.571
  Cycle:     12 Energy:     -3067.025071  Gnorm:      0.077236  CPU:    1.689
  ** Hessian calculated **
  Cycle:     13 Energy:     -3067.113633  Gnorm:      0.072996  CPU:    1.901
  Cycle:     14 Energy:     -3067.252184  Gnorm:      0.066004  CPU:    2.039
  Cycle:     15 Energy:     -3067.407741  Gnorm:      0.057377  CPU:    2.159
  Cycle:     16 Energy:     -3067.582887  Gnorm:      0.046299  CPU:    2.279
  ** Hessian has wrong structure
  ** Imaginary eigenvectors =   5
  Cycle:     17 Energy:     -3067.618027  Gnorm:      0.100977  CPU:    2.589
  ** Hessian has wrong structure
  ** Imaginary eigenvectors =   3
  ** Hessian has wrong structure
  ** Imaginary eigenvectors =   2
  Cycle:     18 Energy:     -3067.706853  Gnorm:      0.115125  CPU:    3.099
  ** Hessian has wrong structure
  ** Imaginary eigenvectors =   1
  ** Hessian has wrong structure
  ** Imaginary eigenvectors =   1
  Cycle:     19 Energy:     -3067.801766  Gnorm:      0.107945  CPU:    3.626
  ** Hessian has wrong structure
  ** Imaginary eigenvectors =   1
  Cycle:     20 Energy:     -3067.975611  Gnorm:      0.063480  CPU:    3.880
  ** Hessian has wrong structure
  ** Imaginary eigenvectors =   1
  ** Hessian has wrong structure
  ** Imaginary eigenvectors =   1
  Cycle:     21 Energy:     -3068.008066  Gnorm:      0.063351  CPU:    4.402
  ** Hessian has required structure
  Cycle:     22 Energy:     -3068.157938  Gnorm:      0.034294  CPU:    4.659
  ** Hessian has required structure
  Cycle:     23 Energy:     -3068.203386  Gnorm:      0.036951  CPU:    4.810
  ** Hessian has required structure
  Cycle:     24 Energy:     -3068.239027  Gnorm:      0.022223  CPU:    4.963
  ** Hessian has required structure
  Cycle:     25 Energy:     -3068.254741  Gnorm:      0.019907  CPU:    5.115
  ** Hessian has required structure
  Cycle:     26 Energy:     -3068.269136  Gnorm:      0.014812  CPU:    5.286
  ** Hessian has required structure
  Cycle:     27 Energy:     -3068.276336  Gnorm:      0.010882  CPU:    5.438
  ** Hessian has required structure
  Cycle:     28 Energy:     -3068.281621  Gnorm:      0.009870  CPU:    5.591
  ** Hessian has required structure
  Cycle:     29 Energy:     -3068.284234  Gnorm:      0.008151  CPU:    5.743
  ** Hessian has required structure
  Cycle:     30 Energy:     -3068.285783  Gnorm:      0.004760  CPU:    5.896
  ** Hessian has required structure
  Cycle:     31 Energy:     -3068.286396  Gnorm:      0.006286  CPU:    6.050
  ** Hessian has required structure
  Cycle:     32 Energy:     -3068.288306  Gnorm:      0.005742  CPU:    6.305
  ** Hessian has required structure
  Cycle:     33 Energy:     -3068.289174  Gnorm:      0.005413  CPU:    6.479
  ** Hessian has required structure
  Cycle:     34 Energy:     -3068.289889  Gnorm:      0.003226  CPU:    6.651
  ** Hessian has required structure
  Cycle:     35 Energy:     -3068.290263  Gnorm:      0.004264  CPU:    6.807
  ** Hessian has required structure
  Cycle:     36 Energy:     -3068.290675  Gnorm:      0.002508  CPU:    6.962
  ** Hessian has required structure
  Cycle:     37 Energy:     -3068.290882  Gnorm:      0.001930  CPU:    7.133
  ** Hessian has required structure
  Cycle:     38 Energy:     -3068.290990  Gnorm:      0.000986  CPU:    7.286
  ** Hessian has required structure
  Cycle:     39 Energy:     -3068.291048  Gnorm:      0.000997  CPU:    7.459
  ** Hessian has required structure
  Cycle:     40 Energy:     -3068.291080  Gnorm:      0.000360  CPU:    7.634
  ** Hessian has required structure
  Cycle:     41 Energy:     -3068.291083  Gnorm:      0.000323  CPU:    7.770
  ** Hessian has required structure
  Cycle:     42 Energy:     -3068.291086  Gnorm:      0.000254  CPU:    7.976
  ** Hessian has required structure
  Cycle:     43 Energy:     -3068.291090  Gnorm:      0.000172  CPU:    8.123
  ** Hessian has required structure
  Cycle:     44 Energy:     -3068.291092  Gnorm:      0.000122  CPU:    8.254
  ** Hessian has required structure
  Cycle:     45 Energy:     -3068.291092  Gnorm:      0.000086  CPU:    8.385
  ** Hessian has required structure


  **** Optimisation achieved ****


  Final energy =   -3068.29109353 eV      
  Final Gnorm  =       0.00006101

  Components of energy : 

--------------------------------------------------------------------------------
  Interatomic potentials     =         817.31725341 eV    
  Three-body potentials      =           0.23785838 eV    
  Monopole - monopole (real) =       -2208.55321649 eV    
  Monopole - monopole (recip)=       -1677.29298882 eV    
  Monopole - monopole (total)=       -3885.84620531 eV    
--------------------------------------------------------------------------------
  Total lattice energy       =       -3068.29109353 eV    
--------------------------------------------------------------------------------
  Total lattice energy       =         -296043.1874 kJ/(mole unit cells)
--------------------------------------------------------------------------------

  Final fractional coordinates of atoms :

--------------------------------------------------------------------------------
   No.  Atomic        x           y          z          Radius
        Label       (Frac)      (Frac)     (Frac)       (Angs) 
--------------------------------------------------------------------------------
     1  Ge    c     0.052090    0.000000    0.372270    0.000000
     2  Ge    c     0.441933    0.971556    0.882657    0.000000
     3  Ge    c     0.057592    0.000218    0.879365    0.000000
     4  Si    c     0.455777    0.971695    0.371409    0.000000
     5  Si    c     0.951293    0.991280    0.630095    0.000000
     6  Si    c     0.549474    0.982340    0.633256    0.000000
     7  Si    c     0.556895    0.985083    0.121498    0.000000
     8  Si    c     0.945615    0.978534    0.115652    0.000000
     9  Si    c     0.154023    0.313301    0.293066    0.000000
    10  Si    c     0.357746    0.660382    0.283429    0.000000
    11  Si    c     0.847817    0.296851    0.730092    0.000000
    12  Si    c     0.654124    0.674746    0.728700    0.000000
    13  Si    c     0.834667    0.703829    0.733025    0.000000
    14  Si    c     0.666170    0.266958    0.729079    0.000000
    15  Si    c     0.176564    0.719892    0.289933    0.000000
    16  Si    c     0.334885    0.256144    0.286240    0.000000
    17  Si    c     0.668252    0.265221    0.026784    0.000000
    18  Si    c     0.832013    0.698107    0.032537    0.000000
    19  Si    c     0.325836    0.251263    0.988404    0.000000
    20  Si    c     0.174010    0.719481    0.994100    0.000000
    21  Si    c     0.355656    0.647513    0.987137    0.000000
    22  Si    c     0.144902    0.320326    0.997188    0.000000
    23  Si    c     0.650652    0.665846    0.027136    0.000000
    24  Si    c     0.850922    0.298744    0.027737    0.000000
    25  O3    c     0.093783    0.207415    0.379691    0.000000
    26  O2    c     0.418523    0.775790    0.366803    0.000000
    27  O2    c     0.907431    0.180856    0.646542    0.000000
    28  O2    c     0.592883    0.792261    0.647532    0.000000
    29  O2    c     0.889050    0.835629    0.655094    0.000000
    30  O2    c     0.614228    0.136700    0.643689    0.000000
    31  O3    c     0.129723    0.849520    0.381696    0.000000
    32  O2    c     0.385335    0.117035    0.370097    0.000000
    33  O3    c     0.982492    0.974373    0.487965    0.000000
    34  O2    c     0.508015    0.992993    0.496706    0.000000
    35  O3    c     0.003753    0.955142    0.231643    0.000000
    36  O2    c     0.513496    0.004926    0.254334    0.000000
    37  O3    c     0.026162    0.980013    0.723725    0.000000
    38  O3    c     0.481908    0.007350    0.736216    0.000000
    39  O2    c     0.628691    0.123847    0.118828    0.000000
    40  O2    c     0.874483    0.837570    0.123624    0.000000
    41  O3    c     0.358930    0.104615    0.895775    0.000000
    42  O3    c     0.138367    0.861835    0.898912    0.000000
    43  O3    c     0.414137    0.753364    0.898212    0.000000
    44  O3    c     0.083554    0.216725    0.911054    0.000000
    45  O2    c     0.590363    0.784713    0.107757    0.000000
    46  O2    c     0.908857    0.177984    0.113459    0.000000
    47  O3    c     0.502302    0.040233    0.004009    0.000000
    48  O3    c     0.987118    0.931626    0.983129    0.000000
    49  O2    c     0.144698    0.522220    0.313758    0.000000
    50  O2    c     0.368811    0.452182    0.312075    0.000000
    51  O2    c     0.861565    0.503315    0.701337    0.000000
    52  O2    c     0.639933    0.468654    0.699670    0.000000
    53  O2    c     0.243476    0.251017    0.326762    0.000000
    54  O2    c     0.269694    0.721999    0.319812    0.000000
    55  O2    c     0.758325    0.243576    0.696357    0.000000
    56  O2    c     0.743101    0.728480    0.693039    0.000000
    57  O2    c     0.132579    0.264873    0.145698    0.000000
    58  O2    c     0.375432    0.698780    0.134550    0.000000
    59  O2    c     0.867517    0.256201    0.878713    0.000000
    60  O2    c     0.637242    0.713956    0.877820    0.000000
    61  O2    c     0.843159    0.744642    0.883213    0.000000
    62  O2    c     0.653342    0.218486    0.877725    0.000000
    63  O2    c     0.163112    0.779387    0.142027    0.000000
    64  O2    c     0.340917    0.201846    0.137551    0.000000
    65  O2    c     0.632675    0.460642    0.053702    0.000000
    66  O2    c     0.868150    0.502836    0.059343    0.000000
    67  O2    c     0.367691    0.439306    0.962640    0.000000
    68  O2    c     0.131762    0.529834    0.977266    0.000000
    69  O2    c     0.760651    0.258130    0.058370    0.000000
    70  O2    c     0.740108    0.705442    0.067135    0.000000
    71  O2    c     0.233310    0.267249    0.958044    0.000000
    72  O2    c     0.265555    0.701675    0.959119    0.000000
    73  O3    s     0.096534    0.201593    0.370402    0.000000
    74  O2    s     0.415873    0.783904    0.358323    0.000000
    75  O2    s     0.905331    0.174012    0.654191    0.000000
    76  O2    s     0.595154    0.799296    0.655156    0.000000
    77  O2    s     0.889510    0.837297    0.661363    0.000000
    78  O2    s     0.613200    0.134906    0.652236    0.000000
    79  O3    s     0.128438    0.847931    0.371457    0.000000
    80  O2    s     0.387245    0.116896    0.360998    0.000000
    81  O3    s     0.985247    0.978417    0.493048    0.000000
    82  O2    s     0.506699    0.989199    0.497927    0.000000
    83  O3    s     0.001353    0.961693    0.230683    0.000000
    84  O2    s     0.512012    0.998757    0.251904    0.000000
    85  O3    s     0.021353    0.982867    0.727429    0.000000
    86  O3    s     0.485451    0.001530    0.738459    0.000000
    87  O2    s     0.625624    0.125191    0.108669    0.000000
    88  O2    s     0.877060    0.836496    0.112605    0.000000
    89  O3    s     0.362087    0.109604    0.904647    0.000000
    90  O3    s     0.135581    0.857915    0.907481    0.000000
    91  O3    s     0.410363    0.759931    0.906105    0.000000
    92  O3    s     0.087839    0.210263    0.917451    0.000000
    93  O2    s     0.593551    0.792400    0.100188    0.000000
    94  O2    s     0.906255    0.170998    0.104308    0.000000
    95  O3    s     0.502847    0.028615    0.005903    0.000000
    96  O3    s     0.989024    0.942177    0.987473    0.000000
    97  O2    s     0.149099    0.520000    0.308974    0.000000
    98  O2    s     0.364048    0.454021    0.306297    0.000000
    99  O2    s     0.857204    0.502310    0.707806    0.000000
   100  O2    s     0.644305    0.469447    0.705970    0.000000
   101  O2    s     0.243949    0.258028    0.318970    0.000000
   102  O2    s     0.269123    0.715122    0.312695    0.000000
   103  O2    s     0.758016    0.251826    0.703475    0.000000
   104  O2    s     0.743368    0.720144    0.701047    0.000000
   105  O2    s     0.135987    0.275249    0.145574    0.000000
   106  O2    s     0.371570    0.689666    0.135149    0.000000
   107  O2    s     0.863755    0.264798    0.878643    0.000000
   108  O2    s     0.640387    0.704893    0.877766    0.000000
   109  O2    s     0.841014    0.735231    0.882782    0.000000
   110  O2    s     0.656266    0.228473    0.877573    0.000000
   111  O2    s     0.165563    0.767345    0.142026    0.000000
   112  O2    s     0.338728    0.212653    0.137918    0.000000
   113  O2    s     0.638363    0.462224    0.047980    0.000000
   114  O2    s     0.862483    0.501313    0.053090    0.000000
   115  O2    s     0.362090    0.442306    0.967924    0.000000
   116  O2    s     0.137505    0.527152    0.981109    0.000000
   117  O2    s     0.760422    0.263546    0.051386    0.000000
   118  O2    s     0.740323    0.700178    0.058890    0.000000
   119  O2    s     0.233819    0.271312    0.965650    0.000000
   120  O2    s     0.265407    0.697642    0.966052    0.000000
--------------------------------------------------------------------------------

  Final Cartesian lattice vectors (Angstroms) :

       16.978668    0.091859   -0.068148
        0.039274    7.564613    0.005604
       -0.039500    0.007583   10.445481


  Final cell parameters and derivatives :

--------------------------------------------------------------------------------
       a           16.979054 Angstrom     dE/de1(xx)     0.000879 eV/strain
       b            7.564717 Angstrom     dE/de2(yy)    -0.000308 eV/strain
       c           10.445559 Angstrom     dE/de3(zz)     0.003641 eV/strain
       alpha       89.917084 Degrees      dE/de4(yz)    -0.000015 eV/strain
       beta        90.446400 Degrees      dE/de5(xz)    -0.000070 eV/strain
       gamma       89.392727 Degrees      dE/de6(xy)    -0.000034 eV/strain
--------------------------------------------------------------------------------

  Primitive cell volume =          1341.528033 Angs**3

  Density of cell =      1.950452 g/cm**3

  Non-primitive cell volume =          1341.528033 Angs**3


  Final internal derivatives :

--------------------------------------------------------------------------------
   No.  Atomic          a             b             c           Radius
        Label          (eV)          (eV)          (eV)        (eV/Angs)
--------------------------------------------------------------------------------
      1 Ge    c       0.000000      0.000000      0.000000      0.000000
      2 Ge    c      -0.002923     -0.001142      0.000379      0.000000
      3 Ge    c      -0.001848     -0.000267      0.001078      0.000000
      4 Si    c      -0.006321     -0.000895      0.000159      0.000000
      5 Si    c       0.000394      0.000001      0.000298      0.000000
      6 Si    c       0.007011     -0.000332      0.001557      0.000000
      7 Si    c       0.003551     -0.000907      0.001694      0.000000
      8 Si    c       0.004038     -0.000211      0.001584      0.000000
      9 Si    c       0.000191      0.000016      0.000033      0.000000
     10 Si    c       0.000748     -0.000085      0.000180      0.000000
     11 Si    c      -0.000015      0.000089     -0.000069      0.000000
     12 Si    c      -0.000622     -0.000132     -0.000218      0.000000
     13 Si    c      -0.000215     -0.000035     -0.000173      0.000000
     14 Si    c       0.000144      0.000417     -0.000418      0.000000
     15 Si    c       0.000174     -0.000064      0.000058      0.000000
     16 Si    c       0.000411      0.000268      0.000370      0.000000
     17 Si    c      -0.000481      0.000140      0.000576      0.000000
     18 Si    c      -0.000538     -0.000121      0.000380      0.000000
     19 Si    c       0.000216      0.000155     -0.000461      0.000000
     20 Si    c       0.000133     -0.000036     -0.000189      0.000000
     21 Si    c       0.000668     -0.000115     -0.000117      0.000000
     22 Si    c      -0.000082      0.000069     -0.000036      0.000000
     23 Si    c      -0.000674     -0.000163      0.000064      0.000000
     24 Si    c      -0.000069      0.000063      0.000045      0.000000
     25 O3    c      -0.000131     -0.000263     -0.000069      0.000000
     26 O2    c       0.000434      0.000074     -0.000054      0.000000
     27 O2    c       0.000083     -0.000164     -0.000023      0.000000
     28 O2    c      -0.000455      0.000008      0.000020      0.000000
     29 O2    c       0.000385      0.000255     -0.000047      0.000000
     30 O2    c      -0.000108      0.000195     -0.000415      0.000000
     31 O3    c      -0.000306      0.000248     -0.000090      0.000000
     32 O2    c      -0.000508      0.000459      0.000304      0.000000
     33 O3    c       0.003842      0.000183     -0.001446      0.000000
     34 O2    c       0.003114      0.000613     -0.001364      0.000000
     35 O3    c      -0.008005      0.000480     -0.002449      0.000000
     36 O2    c       0.003566      0.000969     -0.001673      0.000000
     37 O3    c      -0.002432     -0.000024     -0.000827      0.000000
     38 O3    c      -0.009905      0.000607      0.000316      0.000000
     39 O2    c      -0.000155      0.000148     -0.000216      0.000000
     40 O2    c       0.000596      0.000409     -0.000336      0.000000
     41 O3    c      -0.000931      0.000698      0.000175      0.000000
     42 O3    c      -0.000135      0.000009      0.000218      0.000000
     43 O3    c       0.000290     -0.000302      0.000131      0.000000
     44 O3    c       0.000006     -0.000055     -0.000137      0.000000
     45 O2    c      -0.000422     -0.000226     -0.000127      0.000000
     46 O2    c       0.000635     -0.000825     -0.000130      0.000000
     47 O3    c      -0.000520      0.002427     -0.003230      0.000000
     48 O3    c       0.003464      0.000903     -0.000412      0.000000
     49 O2    c       0.000087      0.000033     -0.000035      0.000000
     50 O2    c       0.000088     -0.000023     -0.000010      0.000000
     51 O2    c      -0.000095     -0.000005      0.000083      0.000000
     52 O2    c      -0.000017     -0.000017      0.000054      0.000000
     53 O2    c      -0.000170     -0.000029      0.000022      0.000000
     54 O2    c      -0.000188      0.000020     -0.000001      0.000000
     55 O2    c       0.000051     -0.000001     -0.000033      0.000000
     56 O2    c       0.000185     -0.000030      0.000044      0.000000
     57 O2    c      -0.000129     -0.000069      0.000015      0.000000
     58 O2    c       0.000179     -0.000095     -0.000086      0.000000
     59 O2    c       0.000092     -0.000013     -0.000116      0.000000
     60 O2    c      -0.000054     -0.000121      0.000073      0.000000
     61 O2    c      -0.000094     -0.000022     -0.000072      0.000000
     62 O2    c       0.000147      0.000093      0.000141      0.000000
     63 O2    c      -0.000152      0.000069      0.000026      0.000000
     64 O2    c      -0.000228      0.000075     -0.000154      0.000000
     65 O2    c       0.000053     -0.000139     -0.000072      0.000000
     66 O2    c      -0.000233      0.000180     -0.000103      0.000000
     67 O2    c      -0.000041     -0.000186      0.000075      0.000000
     68 O2    c       0.000200      0.000175      0.000058      0.000000
     69 O2    c      -0.000992     -0.000025     -0.000025      0.000000
     70 O2    c       0.000651     -0.000028     -0.000100      0.000000
     71 O2    c       0.001062     -0.000030     -0.000014      0.000000
     72 O2    c      -0.000437     -0.000002      0.000057      0.000000
     73 O3    s      -0.000628     -0.000111      0.000100      0.000000
     74 O2    s      -0.001812     -0.000582      0.000266      0.000000
     75 O2    s       0.000360     -0.000074     -0.000043      0.000000
     76 O2    s       0.002307     -0.000540     -0.000099      0.000000
     77 O2    s       0.000178     -0.000015     -0.000052      0.000000
     78 O2    s       0.002887      0.000341      0.000570      0.000000
     79 O3    s      -0.000623     -0.000001      0.000037      0.000000
     80 O2    s      -0.002722      0.000135      0.000009      0.000000
     81 O3    s      -0.001124     -0.000106      0.000510      0.000000
     82 O2    s       0.000471     -0.000354     -0.000057      0.000000
     83 O3    s       0.001851      0.000171      0.000546      0.000000
     84 O2    s      -0.000966     -0.000207      0.000799      0.000000
     85 O3    s       0.000999     -0.000074      0.000317      0.000000
     86 O3    s       0.001652     -0.000252     -0.000350      0.000000
     87 O2    s       0.002374      0.000140      0.000065      0.000000
     88 O2    s       0.001486      0.000249     -0.000199      0.000000
     89 O3    s      -0.001355     -0.000153     -0.000012      0.000000
     90 O3    s      -0.000442     -0.000033     -0.000240      0.000000
     91 O3    s      -0.001442     -0.000200     -0.000200      0.000000
     92 O3    s      -0.000498     -0.000182     -0.000082      0.000000
     93 O2    s       0.001888     -0.000337      0.000407      0.000000
     94 O2    s       0.001632     -0.000434      0.000372      0.000000
     95 O3    s       0.001081     -0.000177      0.001090      0.000000
     96 O3    s      -0.002217     -0.000323      0.001462      0.000000
     97 O2    s      -0.000168      0.000032      0.000127      0.000000
     98 O2    s      -0.000328     -0.000035      0.000058      0.000000
     99 O2    s       0.000067      0.000039     -0.000067      0.000000
    100 O2    s       0.000285     -0.000041      0.000009      0.000000
    101 O2    s      -0.000019     -0.000014      0.000045      0.000000
    102 O2    s      -0.000224      0.000041      0.000045      0.000000
    103 O2    s       0.000049      0.000005      0.000021      0.000000
    104 O2    s       0.000190      0.000014      0.000022      0.000000
    105 O2    s      -0.000118      0.000020      0.000190      0.000000
    106 O2    s      -0.000214      0.000357      0.000017      0.000000
    107 O2    s       0.000042     -0.000033     -0.000019      0.000000
    108 O2    s       0.000046      0.000363     -0.000100      0.000000
    109 O2    s       0.000181      0.000079      0.000275      0.000000
    110 O2    s      -0.000850     -0.000451     -0.000124      0.000000
    111 O2    s       0.000211     -0.000063      0.000083      0.000000
    112 O2    s       0.000907     -0.000424     -0.000008      0.000000
    113 O2    s       0.000457     -0.000077      0.000067      0.000000
    114 O2    s       0.000194      0.000179      0.000177      0.000000
    115 O2    s      -0.000435     -0.000080     -0.000072      0.000000
    116 O2    s      -0.000157      0.000080     -0.000184      0.000000
    117 O2    s       0.000005      0.000023     -0.000017      0.000000
    118 O2    s       0.000408      0.000004     -0.000068      0.000000
    119 O2    s       0.000086     -0.000015      0.000013      0.000000
    120 O2    s      -0.000144      0.000055     -0.000009      0.000000
--------------------------------------------------------------------------------
  Maximum abs         0.009905      0.002427      0.003230      0.000000
--------------------------------------------------------------------------------


  Born effective charge tensors : 

-------------------------------------------------------------------------------
  Atom             x           y             z
-------------------------------------------------------------------------------
    1 Ge    x       4.3036      0.2818     -0.0853
            y      -0.1482      3.8799      0.0051
            z      -0.8669     -0.0381      4.4724
-------------------------------------------------------------------------------
    2 Ge    x       4.1950      0.3326     -0.3481
            y      -0.2727      3.9087     -0.0062
            z      -0.6019     -0.1072      3.8756
-------------------------------------------------------------------------------
    3 Ge    x       4.2580      0.2764      0.4608
            y      -0.2803      3.9195      0.0353
            z       0.4880      0.0592      3.8405
-------------------------------------------------------------------------------
    4 Si    x       3.4460      0.1900      0.1783
            y      -0.1510      3.2318      0.0243
            z       0.5232      0.0598      3.7602
-------------------------------------------------------------------------------
    5 Si    x       3.7944     -0.0922     -0.3871
            y       0.1024      3.3433     -0.0103
            z      -0.2616      0.1019      4.4732
-------------------------------------------------------------------------------
    6 Si    x       3.6758     -0.1247      0.1408
            y       0.1105      3.2949      0.0117
            z       0.2197      0.0154      4.0724
-------------------------------------------------------------------------------
    7 Si    x       3.6222     -0.2393     -0.0925
            y       0.1556      3.3296     -0.0504
            z      -0.4305     -0.0231      3.3000
-------------------------------------------------------------------------------
    8 Si    x       3.8110     -0.2287      0.2126
            y       0.1365      3.3591     -0.0112
            z       0.7529     -0.0384      3.5379
-------------------------------------------------------------------------------
    9 Si    x       3.4417      0.3283     -0.2283
            y       0.4345      3.5318     -0.3512
            z      -0.2513     -0.1747      2.9625
-------------------------------------------------------------------------------
   10 Si    x       3.1651      0.2043      0.0657
            y       0.3188      3.4542      0.2003
            z       0.0819      0.0871      2.7774
-------------------------------------------------------------------------------
   11 Si    x       3.1761     -0.1761     -0.0648
            y      -0.2695      3.4049      0.1641
            z      -0.0827      0.0824      2.8071
-------------------------------------------------------------------------------
   12 Si    x       3.1714     -0.1866      0.0618
            y      -0.2815      3.4182     -0.1601
            z       0.1250     -0.0868      2.8250
-------------------------------------------------------------------------------
   13 Si    x       3.1900      0.2586     -0.1023
            y       0.2054      3.4607     -0.1333
            z      -0.1385     -0.0885      2.8062
-------------------------------------------------------------------------------
   14 Si    x       3.1755      0.2657      0.1443
            y       0.1977      3.4623      0.1580
            z       0.1312      0.0842      2.8214
-------------------------------------------------------------------------------
   15 Si    x       3.3784     -0.4453     -0.3022
            y      -0.2676      3.6148      0.3518
            z      -0.2107      0.1713      2.9493
-------------------------------------------------------------------------------
   16 Si    x       3.1972     -0.3140      0.1455
            y      -0.1549      3.4767     -0.1528
            z       0.1200     -0.0563      2.7596
-------------------------------------------------------------------------------
   17 Si    x       3.2009      0.3101     -0.1987
            y       0.0789      3.4306     -0.1737
            z      -0.1111     -0.0802      2.7322
-------------------------------------------------------------------------------
   18 Si    x       3.2193      0.3046      0.1601
            y       0.0853      3.4106      0.1591
            z       0.1080      0.0647      2.6985
-------------------------------------------------------------------------------
   19 Si    x       3.2991     -0.4837     -0.2900
            y      -0.1376      3.6568      0.3784
            z      -0.1675      0.2490      2.9148
-------------------------------------------------------------------------------
   20 Si    x       3.3212     -0.4719      0.3228
            y      -0.1401      3.6450     -0.4089
            z       0.1831     -0.2305      2.8935
-------------------------------------------------------------------------------
   21 Si    x       3.4745      0.3553     -0.3389
            y       0.4122      3.5059     -0.3177
            z      -0.3113     -0.1603      2.8860
-------------------------------------------------------------------------------
   22 Si    x       3.5148      0.3612      0.3458
            y       0.4141      3.5102      0.3386
            z       0.3426      0.1428      2.8518
-------------------------------------------------------------------------------
   23 Si    x       3.2517     -0.2402     -0.1302
            y      -0.2645      3.3850      0.1596
            z      -0.1872      0.0599      2.7123
-------------------------------------------------------------------------------
   24 Si    x       3.2604     -0.2382      0.1367
            y      -0.2483      3.3679     -0.1534
            z       0.1354     -0.0602      2.6867
-------------------------------------------------------------------------------
   25 O3    x      -2.0169     -0.9294      0.4811
            y      -0.8679     -2.3548      0.4594
            z       0.5829      0.4730     -1.6229
-------------------------------------------------------------------------------
   26 O2    x      -1.6230     -0.6940     -0.3223
            y      -0.6331     -2.0335     -0.3413
            z      -0.3569     -0.3302     -1.3546
-------------------------------------------------------------------------------
   27 O2    x      -1.6314      0.6464      0.3626
            y       0.6219     -1.9912     -0.3662
            z       0.3569     -0.3591     -1.3950
-------------------------------------------------------------------------------
   28 O2    x      -1.6323      0.6646     -0.3530
            y       0.6411     -1.9951      0.3743
            z      -0.3885      0.3735     -1.3858
-------------------------------------------------------------------------------
   29 O2    x      -1.7390     -0.7035      0.3923
            y      -0.7471     -1.9765      0.3943
            z       0.4037      0.3733     -1.3740
-------------------------------------------------------------------------------
   30 O2    x      -1.7317     -0.6987     -0.3831
            y      -0.7431     -1.9463     -0.3828
            z      -0.4048     -0.3662     -1.3839
-------------------------------------------------------------------------------
   31 O3    x      -2.1372      0.9044      0.4479
            y       0.9863     -2.2584     -0.5214
            z       0.5170     -0.4670     -1.6274
-------------------------------------------------------------------------------
   32 O2    x      -1.7882      0.7074     -0.3149
            y       0.7628     -1.9257      0.3318
            z      -0.3620      0.3122     -1.3396
-------------------------------------------------------------------------------
   33 O3    x      -1.9444     -0.0382      1.0912
            y      -0.0208     -1.2185      0.0091
            z       1.3597      0.0140     -3.4604
-------------------------------------------------------------------------------
   34 O2    x      -1.6118     -0.0371     -0.8274
            y      -0.0103     -1.0958     -0.0252
            z      -1.0419     -0.0542     -2.7782
-------------------------------------------------------------------------------
   35 O3    x      -2.1250     -0.0027     -1.0743
            y       0.0101     -1.2778     -0.0065
            z      -1.0291     -0.0277     -2.7103
-------------------------------------------------------------------------------
   36 O2    x      -1.7003     -0.0151      0.7285
            y      -0.0222     -1.1361      0.0190
            z       0.7095      0.0088     -2.2051
-------------------------------------------------------------------------------
   37 O3    x      -2.1652     -0.0268     -0.9394
            y       0.0371     -1.2467     -0.0129
            z      -0.8859     -0.0604     -2.6421
-------------------------------------------------------------------------------
   38 O3    x      -2.1016     -0.0206      0.9795
            y       0.0346     -1.2519      0.0110
            z       0.9922      0.0598     -2.7398
-------------------------------------------------------------------------------
   39 O2    x      -1.7401     -0.6789      0.3610
            y      -0.6477     -1.8928      0.3799
            z       0.3450      0.3400     -1.2702
-------------------------------------------------------------------------------
   40 O2    x      -1.7406     -0.6724     -0.2751
            y      -0.6498     -1.8910     -0.3117
            z      -0.3140     -0.2871     -1.2469
-------------------------------------------------------------------------------
   41 O3    x      -2.0689      0.8748      0.5241
            y       0.8535     -2.2967     -0.6327
            z       0.4846     -0.5646     -1.5649
-------------------------------------------------------------------------------
   42 O3    x      -2.0907      0.9051     -0.5985
            y       0.8571     -2.2887      0.6604
            z      -0.5024      0.5723     -1.5749
-------------------------------------------------------------------------------
   43 O3    x      -1.9740     -0.8878      0.5805
            y      -0.7224     -2.3856      0.5633
            z       0.5569      0.5493     -1.5421
-------------------------------------------------------------------------------
   44 O3    x      -2.0426     -0.9084     -0.6422
            y      -0.7255     -2.3752     -0.6247
            z      -0.5579     -0.5568     -1.5322
-------------------------------------------------------------------------------
   45 O2    x      -1.6444      0.6516      0.3539
            y       0.5530     -2.0239     -0.3822
            z       0.3881     -0.3694     -1.2462
-------------------------------------------------------------------------------
   46 O2    x      -1.6391      0.6408     -0.3159
            y       0.5449     -2.0232      0.3377
            z      -0.3549      0.3203     -1.2380
-------------------------------------------------------------------------------
   47 O3    x      -2.1394      0.0108     -0.8479
            y       0.0243     -1.3764      0.0347
            z      -0.4875      0.0197     -2.0469
-------------------------------------------------------------------------------
   48 O3    x      -2.1244     -0.0555      0.8074
            y      -0.0347     -1.3809     -0.0073
            z       0.4449     -0.0141     -2.0396
-------------------------------------------------------------------------------
   49 O2    x      -1.2028     -0.0995      0.0728
            y      -0.1731     -2.4671      0.0188
            z       0.0800     -0.0006     -1.0753
-------------------------------------------------------------------------------
   50 O2    x      -1.1714     -0.1016     -0.0613
            y      -0.1915     -2.5520      0.0086
            z      -0.0681      0.0230     -1.0543
-------------------------------------------------------------------------------
   51 O2    x      -1.1569      0.0571      0.0594
            y       0.0980     -2.5582     -0.0177
            z       0.0707      0.0036     -1.0703
-------------------------------------------------------------------------------
   52 O2    x      -1.1487      0.0545     -0.0623
            y       0.0915     -2.5636      0.0016
            z      -0.0749     -0.0110     -1.0728
-------------------------------------------------------------------------------
   53 O2    x      -2.3718      0.1827      0.0177
            y       0.1104     -1.2773      0.0757
            z       0.0423      0.0393     -1.0745
-------------------------------------------------------------------------------
   54 O2    x      -2.3613      0.1545      0.0188
            y       0.0740     -1.2685     -0.0773
            z       0.0003     -0.0459     -1.0580
-------------------------------------------------------------------------------
   55 O2    x      -2.3828     -0.1018     -0.0051
            y      -0.0514     -1.2564     -0.0670
            z       0.0016     -0.0481     -1.0581
-------------------------------------------------------------------------------
   56 O2    x      -2.3647     -0.0963     -0.0139
            y      -0.0449     -1.2562      0.0670
            z      -0.0279      0.0509     -1.0706
-------------------------------------------------------------------------------
   57 O2    x      -1.2511     -0.1412     -0.0670
            y      -0.1415     -1.3069      0.0165
            z      -0.0851      0.0260     -2.0032
-------------------------------------------------------------------------------
   58 O2    x      -1.2300     -0.1367      0.0047
            y      -0.1417     -1.2847     -0.0321
            z       0.0180     -0.0467     -2.0254
-------------------------------------------------------------------------------
   59 O2    x      -1.2220      0.1268     -0.0329
            y       0.1285     -1.2634      0.0026
            z      -0.0517     -0.0029     -2.0543
-------------------------------------------------------------------------------
   60 O2    x      -1.2042      0.1207      0.0463
            y       0.1271     -1.2719      0.0114
            z       0.0598      0.0237     -2.0792
-------------------------------------------------------------------------------
   61 O2    x      -1.1693     -0.1154     -0.0158
            y      -0.0809     -1.2817      0.0267
            z      -0.0029      0.0044     -2.0657
-------------------------------------------------------------------------------
   62 O2    x      -1.1690     -0.1251      0.0211
            y      -0.0924     -1.2916     -0.0156
            z       0.0100      0.0077     -2.0702
-------------------------------------------------------------------------------
   63 O2    x      -1.2105      0.1426     -0.0432
            y       0.0878     -1.3409     -0.0228
            z      -0.0269      0.0015     -1.9876
-------------------------------------------------------------------------------
   64 O2    x      -1.1856      0.1316     -0.0342
            y       0.0783     -1.3122      0.0127
            z      -0.0488     -0.0050     -2.0306
-------------------------------------------------------------------------------
   65 O2    x      -1.2293      0.0634      0.0923
            y       0.1391     -2.4877     -0.0004
            z       0.1066     -0.0096     -1.0169
-------------------------------------------------------------------------------
   66 O2    x      -1.2350      0.0689     -0.0898
            y       0.1489     -2.4693     -0.0249
            z      -0.0980     -0.0065     -1.0144
-------------------------------------------------------------------------------
   67 O2    x      -1.2733     -0.1148      0.1058
            y      -0.2108     -2.3923     -0.0072
            z       0.1129      0.0084     -1.0427
-------------------------------------------------------------------------------
   68 O2    x      -1.2913     -0.1239     -0.0974
            y      -0.2089     -2.4210      0.0247
            z      -0.1061      0.0047     -1.0177
-------------------------------------------------------------------------------
   69 O2    x      -2.4245     -0.1046      0.0030
            y      -0.0707     -1.2433      0.0585
            z       0.0008      0.0345     -1.0200
-------------------------------------------------------------------------------
   70 O2    x      -2.3983     -0.0949     -0.0122
            y      -0.0584     -1.2365     -0.0632
            z       0.0089     -0.0348     -1.0354
-------------------------------------------------------------------------------
   71 O2    x      -2.3621      0.1878      0.0197
            y       0.1172     -1.2779     -0.0809
            z       0.0143     -0.0443     -1.0525
-------------------------------------------------------------------------------
   72 O2    x      -2.3754      0.2005      0.0507
            y       0.1279     -1.2787      0.0671
            z       0.0188      0.0351     -1.0455
-------------------------------------------------------------------------------




  Elastic Constant Matrix: (Units=GPa)

-------------------------------------------------------------------------------
  Indices      1         2         3         4         5         6    
-------------------------------------------------------------------------------
       1     46.7464   22.6623   25.6020    0.6968    0.0361    4.9859
       2     22.6623   69.0711   22.1774    0.4889    1.0564    4.2096
       3     25.6020   22.1774   29.1593    0.3064   -1.1741    2.9969
       4      0.6968    0.4889    0.3064   11.3944    1.0324    0.6261
       5      0.0361    1.0564   -1.1741    1.0324   23.2200    0.7347
       6      4.9859    4.2096    2.9969    0.6261    0.7347   29.3848
-------------------------------------------------------------------------------


  Elastic Compliance Matrix: (Units=1/GPa)

-------------------------------------------------------------------------------
  Indices      1         2         3         4         5         6    
-------------------------------------------------------------------------------
       1    0.041917 -0.002381 -0.034717 -0.001213 -0.001558 -0.003166
       2   -0.002381  0.019396 -0.012612 -0.000156 -0.001476 -0.001048
       3   -0.034717 -0.012612  0.074544  0.000263  0.004386 -0.000020
       4   -0.001213 -0.000156  0.000263  0.088272 -0.003852 -0.001583
       5   -0.001558 -0.001476  0.004386 -0.003852  0.043560 -0.000978
       6   -0.003166 -0.001048 -0.000020 -0.001583 -0.000978  0.034779
-------------------------------------------------------------------------------

  Mechanical properties :

-------------------------------------------------------------------------------
  Convention :                    Reuss         Voigt         Hill
-------------------------------------------------------------------------------
  Bulk  Modulus (GPa)     =      27.44397      31.76226      29.60312
  Shear Modulus (GPa)     =      12.07632      17.76885      14.92259
-------------------------------------------------------------------------------
  Velocity S-wave (km/s)  =       2.48828       3.01830       2.76601
  Velocity P-wave (km/s)  =       4.72504       5.33211       5.03773
-------------------------------------------------------------------------------
  Compressibility (1/GPa) =    0.03643787
-------------------------------------------------------------------------------
  Stress axis :                     x             y             z
-------------------------------------------------------------------------------
  Youngs Moduli (GPa)     =      23.85666      51.55749      13.41485
-------------------------------------------------------------------------------
  Poissons Ratio (x)      =                     0.12274       0.46573
  Poissons Ratio (y)      =       0.05679                     0.16918
  Poissons Ratio (z)      =       0.82824       0.65022
-------------------------------------------------------------------------------


  Piezoelectric Strain Matrix: (Units=C/m**2)

-------------------------------------------------------------------------------
  Indices      1         2         3         4         5         6    
-------------------------------------------------------------------------------
       x     0.18034   0.22489   0.68791  -0.30667   0.60234  -0.03999
       y    -0.16892  -0.16879   0.03927   0.33053  -0.40279   0.24668
       z     0.20635   0.60237  -2.00357  -0.11700  -0.48484   0.01442
-------------------------------------------------------------------------------


  Piezoelectric Stress Matrix: (Units=10**-11 C/N)

-------------------------------------------------------------------------------
  Indices      1         2         3         4         5         6    
-------------------------------------------------------------------------------
       x    -1.72989  -0.55426   4.47449  -2.94003   2.98627  -0.23151
       y    -0.85963  -0.30826   0.92363   3.05792  -1.83753   0.91611
       z     7.76263   3.71795 -16.62734  -0.93544  -3.06813  -0.00828
-------------------------------------------------------------------------------


  Static dielectric constant tensor : 

-------------------------------------------------------------------------------
              x         y         z
-------------------------------------------------------------------------------
       x     4.00542  -0.01715  -0.11736
       y    -0.01715   4.01168  -0.02677
       z    -0.11736  -0.02677   3.56108
--------------------------------------------------------------------------------

  High frequency dielectric constant tensor : 

-------------------------------------------------------------------------------
              x         y         z
-------------------------------------------------------------------------------
       x     1.67486   0.00135   0.00042
       y     0.00135   1.68482   0.00018
       z     0.00042   0.00018   1.61479
-------------------------------------------------------------------------------

  Static refractive indices : 

-------------------------------------------------------------------------------
    1 =    1.87886      2 =    2.00236      3 =    2.00964
-------------------------------------------------------------------------------

  High frequency refractive indices : 

-------------------------------------------------------------------------------
    1 =    1.27074      2 =    1.29410      3 =    1.29807
-------------------------------------------------------------------------------


  Time to end of optimisation =       8.6854 seconds


  Peak dynamic memory used =       5.01 MB 


  Timing analysis for GULP :

--------------------------------------------------------------------------------
  Task / Subroutine                                          Time (Seconds)
--------------------------------------------------------------------------------
  Calculation of reciprocal space energy and derivatives          0.5946
  Calculation of real space energy and derivatives                5.6096
  Calculation of three-body energy and derivatives                0.5183
  Calculation and manipulation of Hessian matrix                  2.4449
  Calculation of matrix inversion                                 0.0285
  Global summation overhead                                       0.0001
--------------------------------------------------------------------------------
  Total CPU time                                                  8.6854
--------------------------------------------------------------------------------


  Dump file written as c00041.vasp.grs
  CIF file written as c00041.vasp.cif


  Job Finished at 11:33.26  7th October    2025                               

