********************************************************************************
*                       GENERAL UTILITY LATTICE PROGRAM                        *
*                                 Julian Gale                                  *
*                       Curtin Institute for Computation                       *
*                    School of Molecular and Life Sciences                     *
*                    Curtin University, Western Australia                      *
********************************************************************************
* Version = 6.1.2 * Last modified =   3rd November 2022                        *
********************************************************************************
*  optimise     - perform optimisation run                                     *
*  conp         - constant pressure calculation                                *
*  property     - calculate properties for final geometry                      *
********************************************************************************

  Job Started  at 11:29.22  7th October    2025                               

  Number of CPUs =     1


  Total number of configurations input =      1

********************************************************************************
*  Input for Configuration =   1 : c00020.vasp                                 *
********************************************************************************

  Formula = Ge3Si21O48                                                  

  Number of irreducible atoms/shells =     120


  Total number atoms/shells =     120

  Dimensionality = 3               :  Bulk   



  Cartesian lattice vectors (Angstroms) :

       17.182800    0.000000    0.000000
        0.000000    7.513760    0.000000
        0.000000    0.000000   10.447700

  Cell parameters (Angstroms/Degrees):

  a =      17.1828    alpha =  90.0000
  b =       7.5138    beta  =  90.0000
  c =      10.4477    gamma =  90.0000

  Initial cell volume =        1348.875752 Angs**3

  Temperature of configuration =   0.00     K 

  Pressure of configuration =         0.000 GPa 

  Fractional coordinates of asymmetric unit :

--------------------------------------------------------------------------------
   No.  Atomic       x           y          z         Charge      Occupancy
        Label      (Frac)      (Frac)     (Frac)        (e)         (Frac)  
--------------------------------------------------------------------------------
      1 Ge    c    0.052090    0.000000    0.372270     4.00000    1.000000    
      2 Ge    c    0.556730 *  0.000000 *  0.122130 *   4.00000    1.000000    
      3 Ge    c    0.943270 *  0.000000 *  0.122130 *   4.00000    1.000000    
      4 Si    c    0.447910 *  0.000000 *  0.372270 *   4.00000    1.000000    
      5 Si    c    0.947910 *  0.000000 *  0.627730 *   4.00000    1.000000    
      6 Si    c    0.552090 *  0.000000 *  0.627730 *   4.00000    1.000000    
      7 Si    c    0.443270 *  0.000000 *  0.877870 *   4.00000    1.000000    
      8 Si    c    0.056730 *  0.000000 *  0.877870 *   4.00000    1.000000    
      9 Si    c    0.160190 *  0.293910 *  0.273440 *   4.00000    1.000000    
     10 Si    c    0.339810 *  0.706090 *  0.273440 *   4.00000    1.000000    
     11 Si    c    0.839810 *  0.293910 *  0.726560 *   4.00000    1.000000    
     12 Si    c    0.660190 *  0.706090 *  0.726560 *   4.00000    1.000000    
     13 Si    c    0.839810 *  0.706090 *  0.726560 *   4.00000    1.000000    
     14 Si    c    0.660190 *  0.293910 *  0.726560 *   4.00000    1.000000    
     15 Si    c    0.160190 *  0.706090 *  0.273440 *   4.00000    1.000000    
     16 Si    c    0.339810 *  0.293910 *  0.273440 *   4.00000    1.000000    
     17 Si    c    0.660660 *  0.294090 *  0.017440 *   4.00000    1.000000    
     18 Si    c    0.839340 *  0.705910 *  0.017440 *   4.00000    1.000000    
     19 Si    c    0.339340 *  0.294090 *  0.982560 *   4.00000    1.000000    
     20 Si    c    0.160660 *  0.705910 *  0.982560 *   4.00000    1.000000    
     21 Si    c    0.339340 *  0.705910 *  0.982560 *   4.00000    1.000000    
     22 Si    c    0.160660 *  0.294090 *  0.982560 *   4.00000    1.000000    
     23 Si    c    0.660660 *  0.705910 *  0.017440 *   4.00000    1.000000    
     24 Si    c    0.839340 *  0.294090 *  0.017440 *   4.00000    1.000000    
     25 O3    c    0.106570 *  0.174340 *  0.366200 *   1.33043    1.000000    
     26 O2    c    0.393430 *  0.825660 *  0.366200 *   0.87073    1.000000    
     27 O2    c    0.893430 *  0.174340 *  0.633800 *   0.87073    1.000000    
     28 O2    c    0.606570 *  0.825660 *  0.633800 *   0.87073    1.000000    
     29 O2    c    0.893430 *  0.825660 *  0.633800 *   0.87073    1.000000    
     30 O2    c    0.606570 *  0.174340 *  0.633800 *   0.87073    1.000000    
     31 O3    c    0.106570 *  0.825660 *  0.366200 *   1.33043    1.000000    
     32 O2    c    0.393430 *  0.174340 *  0.366200 *   0.87073    1.000000    
     33 O3    c    0.000000 *  0.000000 *  0.500000 *   1.33043    1.000000    
     34 O2    c    0.500000 *  0.000000 *  0.500000 *   0.87073    1.000000    
     35 O1    c    0.994520 *  0.000000 *  0.250840 *   1.73396    1.000000    
     36 O3    c    0.505480 *  0.000000 *  0.250840 *   1.33043    1.000000    
     37 O2    c    0.005480 *  0.000000 *  0.749160 *   0.87073    1.000000    
     38 O2    c    0.494520 *  0.000000 *  0.749160 *   0.87073    1.000000    
     39 O3    c    0.610230 *  0.175520 *  0.115390 *   1.33043    1.000000    
     40 O3    c    0.889770 *  0.824480 *  0.115390 *   1.33043    1.000000    
     41 O2    c    0.389770 *  0.175520 *  0.884610 *   0.87073    1.000000    
     42 O2    c    0.110230 *  0.824480 *  0.884610 *   0.87073    1.000000    
     43 O2    c    0.389770 *  0.824480 *  0.884610 *   0.87073    1.000000    
     44 O2    c    0.110230 *  0.175520 *  0.884610 *   0.87073    1.000000    
     45 O3    c    0.610230 *  0.824480 *  0.115390 *   1.33043    1.000000    
     46 O3    c    0.889770 *  0.175520 *  0.115390 *   1.33043    1.000000    
     47 O3    c    0.500000 *  0.000000 *  0.000000 *   1.33043    1.000000    
     48 O3    c    0.000000 *  0.000000 *  0.000000 *   1.33043    1.000000    
     49 O2    c    0.151750 *  0.500000 *  0.313330 *   0.87073    1.000000    
     50 O2    c    0.348250 *  0.500000 *  0.313330 *   0.87073    1.000000    
     51 O2    c    0.848250 *  0.500000 *  0.686670 *   0.87073    1.000000    
     52 O2    c    0.651750 *  0.500000 *  0.686670 *   0.87073    1.000000    
     53 O2    c    0.250000 *  0.234950 *  0.285720 *   0.87073    1.000000    
     54 O2    c    0.250000 *  0.765050 *  0.285720 *   0.87073    1.000000    
     55 O2    c    0.750000 *  0.234950 *  0.714280 *   0.87073    1.000000    
     56 O2    c    0.750000 *  0.765050 *  0.714280 *   0.87073    1.000000    
     57 O2    c    0.131410 *  0.268650 *  0.127790 *   0.87073    1.000000    
     58 O2    c    0.368590 *  0.731350 *  0.127790 *   0.87073    1.000000    
     59 O2    c    0.868590 *  0.268650 *  0.872210 *   0.87073    1.000000    
     60 O2    c    0.631410 *  0.731350 *  0.872210 *   0.87073    1.000000    
     61 O2    c    0.868590 *  0.731350 *  0.872210 *   0.87073    1.000000    
     62 O2    c    0.631410 *  0.268650 *  0.872210 *   0.87073    1.000000    
     63 O2    c    0.131410 *  0.731350 *  0.127790 *   0.87073    1.000000    
     64 O2    c    0.368590 *  0.268650 *  0.127790 *   0.87073    1.000000    
     65 O2    c    0.653920 *  0.500000 *  0.058200 *   0.87073    1.000000    
     66 O2    c    0.846080 *  0.500000 *  0.058200 *   0.87073    1.000000    
     67 O2    c    0.346080 *  0.500000 *  0.941800 *   0.87073    1.000000    
     68 O2    c    0.153920 *  0.500000 *  0.941800 *   0.87073    1.000000    
     69 O2    c    0.750000 *  0.231060 *  0.027050 *   0.87073    1.000000    
     70 O2    c    0.750000 *  0.768940 *  0.027050 *   0.87073    1.000000    
     71 O2    c    0.250000 *  0.231060 *  0.972950 *   0.87073    1.000000    
     72 O2    c    0.250000 *  0.768940 *  0.972950 *   0.87073    1.000000    
     73 O3    s    0.106570 *  0.174340 *  0.366200 *  -3.33043    1.000000    
     74 O2    s    0.393430 *  0.825660 *  0.366200 *  -2.87073    1.000000    
     75 O2    s    0.893430 *  0.174340 *  0.633800 *  -2.87073    1.000000    
     76 O2    s    0.606570 *  0.825660 *  0.633800 *  -2.87073    1.000000    
     77 O2    s    0.893430 *  0.825660 *  0.633800 *  -2.87073    1.000000    
     78 O2    s    0.606570 *  0.174340 *  0.633800 *  -2.87073    1.000000    
     79 O3    s    0.106570 *  0.825660 *  0.366200 *  -3.33043    1.000000    
     80 O2    s    0.393430 *  0.174340 *  0.366200 *  -2.87073    1.000000    
     81 O3    s    0.000000 *  0.000000 *  0.500000 *  -3.33043    1.000000    
     82 O2    s    0.500000 *  0.000000 *  0.500000 *  -2.87073    1.000000    
     83 O1    s    0.994520 *  0.000000 *  0.250840 *  -3.73396    1.000000    
     84 O3    s    0.505480 *  0.000000 *  0.250840 *  -3.33043    1.000000    
     85 O2    s    0.005480 *  0.000000 *  0.749160 *  -2.87073    1.000000    
     86 O2    s    0.494520 *  0.000000 *  0.749160 *  -2.87073    1.000000    
     87 O3    s    0.610230 *  0.175520 *  0.115390 *  -3.33043    1.000000    
     88 O3    s    0.889770 *  0.824480 *  0.115390 *  -3.33043    1.000000    
     89 O2    s    0.389770 *  0.175520 *  0.884610 *  -2.87073    1.000000    
     90 O2    s    0.110230 *  0.824480 *  0.884610 *  -2.87073    1.000000    
     91 O2    s    0.389770 *  0.824480 *  0.884610 *  -2.87073    1.000000    
     92 O2    s    0.110230 *  0.175520 *  0.884610 *  -2.87073    1.000000    
     93 O3    s    0.610230 *  0.824480 *  0.115390 *  -3.33043    1.000000    
     94 O3    s    0.889770 *  0.175520 *  0.115390 *  -3.33043    1.000000    
     95 O3    s    0.500000 *  0.000000 *  0.000000 *  -3.33043    1.000000    
     96 O3    s    0.000000 *  0.000000 *  0.000000 *  -3.33043    1.000000    
     97 O2    s    0.151750 *  0.500000 *  0.313330 *  -2.87073    1.000000    
     98 O2    s    0.348250 *  0.500000 *  0.313330 *  -2.87073    1.000000    
     99 O2    s    0.848250 *  0.500000 *  0.686670 *  -2.87073    1.000000    
    100 O2    s    0.651750 *  0.500000 *  0.686670 *  -2.87073    1.000000    
    101 O2    s    0.250000 *  0.234950 *  0.285720 *  -2.87073    1.000000    
    102 O2    s    0.250000 *  0.765050 *  0.285720 *  -2.87073    1.000000    
    103 O2    s    0.750000 *  0.234950 *  0.714280 *  -2.87073    1.000000    
    104 O2    s    0.750000 *  0.765050 *  0.714280 *  -2.87073    1.000000    
    105 O2    s    0.131410 *  0.268650 *  0.127790 *  -2.87073    1.000000    
    106 O2    s    0.368590 *  0.731350 *  0.127790 *  -2.87073    1.000000    
    107 O2    s    0.868590 *  0.268650 *  0.872210 *  -2.87073    1.000000    
    108 O2    s    0.631410 *  0.731350 *  0.872210 *  -2.87073    1.000000    
    109 O2    s    0.868590 *  0.731350 *  0.872210 *  -2.87073    1.000000    
    110 O2    s    0.631410 *  0.268650 *  0.872210 *  -2.87073    1.000000    
    111 O2    s    0.131410 *  0.731350 *  0.127790 *  -2.87073    1.000000    
    112 O2    s    0.368590 *  0.268650 *  0.127790 *  -2.87073    1.000000    
    113 O2    s    0.653920 *  0.500000 *  0.058200 *  -2.87073    1.000000    
    114 O2    s    0.846080 *  0.500000 *  0.058200 *  -2.87073    1.000000    
    115 O2    s    0.346080 *  0.500000 *  0.941800 *  -2.87073    1.000000    
    116 O2    s    0.153920 *  0.500000 *  0.941800 *  -2.87073    1.000000    
    117 O2    s    0.750000 *  0.231060 *  0.027050 *  -2.87073    1.000000    
    118 O2    s    0.750000 *  0.768940 *  0.027050 *  -2.87073    1.000000    
    119 O2    s    0.250000 *  0.231060 *  0.972950 *  -2.87073    1.000000    
    120 O2    s    0.250000 *  0.768940 *  0.972950 *  -2.87073    1.000000    
--------------------------------------------------------------------------------



********************************************************************************
*  General input information                                                   *
********************************************************************************

  Species output for all configurations : 

--------------------------------------------------------------------------------
  Species    Type    Atomic    Atomic    Charge       Radii (Angs)     Library
                     Number     Mass       (e)     Cova   Ionic  VDW   Symbol
--------------------------------------------------------------------------------
    Ge       Core       32      72.61   4.000000   1.170  0.000  1.750 Ge       
    Si       Core       14      28.09   4.000000   1.200  0.000  2.100 Si       
    O1       Core        8      16.00   1.733957   0.730  0.000  1.360 O1       
    O2       Core        8      16.00   0.870733   0.730  0.000  1.360 O2       
    O3       Core        8      16.00   1.330431   0.730  0.000  1.360 O3       
    O1       Shell       8       0.00  -3.733957   0.730  0.000  0.000 O1       
    O2       Shell       8       0.00  -2.870733   0.730  0.000  0.000 O2       
    O3       Shell       8       0.00  -3.330431   0.730  0.000  0.000 O3       
--------------------------------------------------------------------------------


  Lattice summation method               =    Ewald          (3-D)
                                         =    Parry          (2-D)
                                         =    Saunders et al (1-D)
  Accuracy factor for lattice sums       =   12.000


  Analytic derivatives to be used

  Time limit = Infinity

  Maximum range for interatomic potentials =    100000.000000 Angstroms

  General interatomic potentials :

--------------------------------------------------------------------------------
Atom  Types   Potential      Parameter       Value         Units   Cutoffs(Ang)
  1     2                                                            Min /  Max 
--------------------------------------------------------------------------------
Si   c O1   s Buckingham    Buckingham A     1315.2478    eV        0.000 16.000
                            Buckingham rho  0.31775900    Ang       
                            Buckingham C     10.141118    eV*Ang^6  
--------------------------------------------------------------------------------
Si   c O2   s Buckingham    Buckingham A     1315.2478    eV        0.000 16.000
                            Buckingham rho  0.31775900    Ang       
                            Buckingham C     10.141118    eV*Ang^6  
--------------------------------------------------------------------------------
Si   c O3   s Buckingham    Buckingham A     1315.2478    eV        0.000 16.000
                            Buckingham rho  0.31775900    Ang       
                            Buckingham C     10.141118    eV*Ang^6  
--------------------------------------------------------------------------------
Ge   c O1   s Buckingham    Buckingham A     1497.3996    eV        0.000 16.000
                            Buckingham rho  0.32564600    Ang       
                            Buckingham C     16.808599    eV*Ang^6  
--------------------------------------------------------------------------------
Ge   c O2   s Buckingham    Buckingham A     1497.3996    eV        0.000 16.000
                            Buckingham rho  0.32564600    Ang       
                            Buckingham C     16.808599    eV*Ang^6  
--------------------------------------------------------------------------------
Ge   c O3   s Buckingham    Buckingham A     1497.3996    eV        0.000 16.000
                            Buckingham rho  0.32564600    Ang       
                            Buckingham C     16.808599    eV*Ang^6  
--------------------------------------------------------------------------------
O1   s O1   s Buckingham    Buckingham A     22764.000    eV        0.000 16.000
                            Buckingham rho  0.14900000    Ang       
                            Buckingham C     10.937044    eV*Ang^6  
--------------------------------------------------------------------------------
O1   s O2   s Buckingham    Buckingham A     22764.000    eV        0.000 16.000
                            Buckingham rho  0.14900000    Ang       
                            Buckingham C     10.937044    eV*Ang^6  
--------------------------------------------------------------------------------
O1   s O3   s Buckingham    Buckingham A     22764.000    eV        0.000 16.000
                            Buckingham rho  0.14900000    Ang       
                            Buckingham C     10.937044    eV*Ang^6  
--------------------------------------------------------------------------------
O2   s O2   s Buckingham    Buckingham A     22764.000    eV        0.000 16.000
                            Buckingham rho  0.14900000    Ang       
                            Buckingham C     10.937044    eV*Ang^6  
--------------------------------------------------------------------------------
O2   s O3   s Buckingham    Buckingham A     22764.000    eV        0.000 16.000
                            Buckingham rho  0.14900000    Ang       
                            Buckingham C     10.937044    eV*Ang^6  
--------------------------------------------------------------------------------
O3   s O3   s Buckingham    Buckingham A     22764.000    eV        0.000 16.000
                            Buckingham rho  0.14900000    Ang       
                            Buckingham C     10.937044    eV*Ang^6  
--------------------------------------------------------------------------------
O1   c O1   s Spring (c-s)  Spring k 2       180.31577    eV*Ang^-2 0.000  0.800
                            Spring k 4       0.0000000    eV*Ang^-4 
--------------------------------------------------------------------------------
O2   c O2   s Spring (c-s)  Spring k 2       75.969800    eV*Ang^-2 0.000  0.800
                            Spring k 4       0.0000000    eV*Ang^-4 
--------------------------------------------------------------------------------
O3   c O3   s Spring (c-s)  Spring k 2       128.14270    eV*Ang^-2 0.000  0.800
                            Spring k 4       0.0000000    eV*Ang^-4 
--------------------------------------------------------------------------------

  General Three-body potentials :

--------------------------------------------------------------------------------
  Atoms       Potential      Parameter       Value         Units   Cutoffs(Ang)
  1 / 2 / 3                                                          Min /  Max 
--------------------------------------------------------------------------------
Si    core    Harmonic      Three-body cnst  1.2614000    eV*rad^-2 0.000  1.900
O1    shel                  Three-body angl  109.47000    degrees   0.000  1.900
O1    shel                  Three-body k4    0.0000000    eV*rad^-4 0.000  3.500
                            Three-body k3    0.0000000    eV*rad^-3 
--------------------------------------------------------------------------------
Si    core    Harmonic      Three-body cnst  1.2614000    eV*rad^-2 0.000  1.900
O1    shel                  Three-body angl  109.47000    degrees   0.000  1.900
õ(1   shel                  Three-body k4    0.0000000    eV*rad^-4 0.000  3.500
                            Three-body k3    0.0000000    eV*rad^-3 
--------------------------------------------------------------------------------
Si    core    Harmonic      Three-body cnst  1.2614000    eV*rad^-2 0.000  1.900
õ(1   shel                  Three-body angl  109.47000    degrees   0.000  1.900
õ(1   shel                  Three-body k4    0.0000000    eV*rad^-4 0.000  3.500
                            Three-body k3    0.0000000    eV*rad^-3 
--------------------------------------------------------------------------------
Si    core    Harmonic      Three-body cnst  1.2614000    eV*rad^-2 0.000  1.900
O1    shel                  Three-body angl  109.47000    degrees   0.000  1.900
O2    shel                  Three-body k4    0.0000000    eV*rad^-4 0.000  3.500
                            Three-body k3    0.0000000    eV*rad^-3 
--------------------------------------------------------------------------------
Si    core    Harmonic      Three-body cnst  1.2614000    eV*rad^-2 0.000  1.900
O1    shel                  Three-body angl  109.47000    degrees   0.000  1.900
õ(2   shel                  Three-body k4    0.0000000    eV*rad^-4 0.000  3.500
                            Three-body k3    0.0000000    eV*rad^-3 
--------------------------------------------------------------------------------
Si    core    Harmonic      Three-body cnst  1.2614000    eV*rad^-2 0.000  1.900
O2    shel                  Three-body angl  109.47000    degrees   0.000  1.900
õ(1   shel                  Three-body k4    0.0000000    eV*rad^-4 0.000  3.500
                            Three-body k3    0.0000000    eV*rad^-3 
--------------------------------------------------------------------------------
Si    core    Harmonic      Three-body cnst  1.2614000    eV*rad^-2 0.000  1.900
õ(1   shel                  Three-body angl  109.47000    degrees   0.000  1.900
õ(2   shel                  Three-body k4    0.0000000    eV*rad^-4 0.000  3.500
                            Three-body k3    0.0000000    eV*rad^-3 
--------------------------------------------------------------------------------
Si    core    Harmonic      Three-body cnst  1.2614000    eV*rad^-2 0.000  1.900
O2    shel                  Three-body angl  109.47000    degrees   0.000  1.900
O2    shel                  Three-body k4    0.0000000    eV*rad^-4 0.000  3.500
                            Three-body k3    0.0000000    eV*rad^-3 
--------------------------------------------------------------------------------
Si    core    Harmonic      Three-body cnst  1.2614000    eV*rad^-2 0.000  1.900
O2    shel                  Three-body angl  109.47000    degrees   0.000  1.900
õ(2   shel                  Three-body k4    0.0000000    eV*rad^-4 0.000  3.500
                            Three-body k3    0.0000000    eV*rad^-3 
--------------------------------------------------------------------------------
Si    core    Harmonic      Three-body cnst  1.2614000    eV*rad^-2 0.000  1.900
õ(2   shel                  Three-body angl  109.47000    degrees   0.000  1.900
õ(2   shel                  Three-body k4    0.0000000    eV*rad^-4 0.000  3.500
                            Three-body k3    0.0000000    eV*rad^-3 
--------------------------------------------------------------------------------

********************************************************************************
*  Output for configuration   1 : c00020.vasp                                  *
********************************************************************************


  Components of energy : 

--------------------------------------------------------------------------------
  Interatomic potentials     =         760.39759413 eV    
  Three-body potentials      =           0.01004980 eV    
  Monopole - monopole (real) =       -2676.00317478 eV    
  Monopole - monopole (recip)=       -1115.35404472 eV    
  Monopole - monopole (total)=       -3791.35721950 eV    
--------------------------------------------------------------------------------
  Total lattice energy       =       -3030.94957557 eV    
--------------------------------------------------------------------------------
  Total lattice energy       =         -292440.3017 kJ/(mole unit cells)
--------------------------------------------------------------------------------


  Number of variables =      363

  Maximum number of calculations  =          1000
  Maximum Hessian update interval =            10
  Maximum step size               =   0.100000000
  Maximum parameter tolerance     =   0.000010000
  Maximum function  tolerance     =   0.000010000
  Maximum gradient  tolerance     =   0.001000000
  Maximum gradient  component     =   0.010000000

  Symmetry not applied to optimisation

  Cell parameters to be optimised using strains

  Newton-Raphson optimiser to be used

  BFGS hessian update to be used

  Lower half triangular hessian to be used

  Minimiser to switch to RFO
  When gradient norm is less than     0.050000

  Dumpfile to be written after every cycle

  Start of bulk optimisation :

  Cycle:      0 Energy:     -3030.949576  Gnorm:      4.279481  CPU:    0.116
  ** Hessian calculated **
  Cycle:      1 Energy:     -3061.711608  Gnorm:      0.955065  CPU:    0.254
  ** Hessian calculated **
  Cycle:      2 Energy:     -3064.103700  Gnorm:      0.509661  CPU:    0.469
  Cycle:      3 Energy:     -3064.825532  Gnorm:      0.326048  CPU:    0.579
  Cycle:      4 Energy:     -3065.443988  Gnorm:      0.265207  CPU:    0.710
  Cycle:      5 Energy:     -3066.074553  Gnorm:      0.207522  CPU:    0.841
  Cycle:      6 Energy:     -3066.576840  Gnorm:      0.185195  CPU:    0.972
  Cycle:      7 Energy:     -3066.800928  Gnorm:      0.133443  CPU:    1.082
  Cycle:      8 Energy:     -3066.929112  Gnorm:      0.108445  CPU:    1.193
  Cycle:      9 Energy:     -3067.001482  Gnorm:      0.081192  CPU:    1.323
  Cycle:     10 Energy:     -3067.047082  Gnorm:      0.072281  CPU:    1.452
  Cycle:     11 Energy:     -3067.092925  Gnorm:      0.070404  CPU:    1.581
  ** Hessian calculated **
  Cycle:     12 Energy:     -3067.155601  Gnorm:      0.066508  CPU:    1.813
  Cycle:     13 Energy:     -3067.252586  Gnorm:      0.059974  CPU:    1.965
  Cycle:     14 Energy:     -3067.358551  Gnorm:      0.051843  CPU:    2.096
  Cycle:     15 Energy:     -3067.476183  Gnorm:      0.041109  CPU:    2.227
  ** Hessian has wrong structure
  ** Imaginary eigenvectors =   5
  Cycle:     16 Energy:     -3067.481805  Gnorm:      0.093760  CPU:    2.503
  ** Hessian has wrong structure
  ** Imaginary eigenvectors =   5
  ** Hessian has wrong structure
  ** Imaginary eigenvectors =   5
  Cycle:     17 Energy:     -3067.522611  Gnorm:      0.105119  CPU:    3.031
  ** Hessian has wrong structure
  ** Imaginary eigenvectors =   4
  ** Hessian has wrong structure
  ** Imaginary eigenvectors =   2
  Cycle:     18 Energy:     -3067.541041  Gnorm:      0.117366  CPU:    3.407
  ** Hessian has wrong structure
  ** Imaginary eigenvectors =   1
  ** Hessian has required structure
  Cycle:     19 Energy:     -3067.771465  Gnorm:      0.090867  CPU:    4.006
  ** Hessian has required structure
  Cycle:     20 Energy:     -3067.917911  Gnorm:      0.028905  CPU:    4.186
  ** Hessian has required structure
  Cycle:     21 Energy:     -3067.977873  Gnorm:      0.028132  CPU:    4.382
  ** Hessian has required structure
  Cycle:     22 Energy:     -3068.017706  Gnorm:      0.046933  CPU:    4.562
  ** Hessian has required structure
  Cycle:     23 Energy:     -3068.040704  Gnorm:      0.033704  CPU:    4.778
  ** Hessian has required structure
  Cycle:     24 Energy:     -3068.063416  Gnorm:      0.027476  CPU:    4.989
  ** Hessian has required structure
  Cycle:     25 Energy:     -3068.082943  Gnorm:      0.024675  CPU:    5.202
  ** Hessian has required structure
  Cycle:     26 Energy:     -3068.097165  Gnorm:      0.019445  CPU:    5.394
  ** Hessian has required structure
  Cycle:     27 Energy:     -3068.105466  Gnorm:      0.017266  CPU:    5.585
  ** Hessian has required structure
  Cycle:     28 Energy:     -3068.112199  Gnorm:      0.022546  CPU:    5.777
  ** Hessian has required structure
  Cycle:     29 Energy:     -3068.126379  Gnorm:      0.017388  CPU:    6.087
  ** Hessian has required structure
  Cycle:     30 Energy:     -3068.133899  Gnorm:      0.015009  CPU:    6.276
  ** Hessian has required structure
  Cycle:     31 Energy:     -3068.136571  Gnorm:      0.007022  CPU:    6.463
  ** Hessian has required structure
  Cycle:     32 Energy:     -3068.137881  Gnorm:      0.007577  CPU:    6.660
  ** Hessian has required structure
  Cycle:     33 Energy:     -3068.138680  Gnorm:      0.005641  CPU:    6.858
  ** Hessian has required structure
  Cycle:     34 Energy:     -3068.139263  Gnorm:      0.004018  CPU:    7.055
  ** Hessian has required structure
  Cycle:     35 Energy:     -3068.139609  Gnorm:      0.002420  CPU:    7.253
  ** Hessian has required structure
  Cycle:     36 Energy:     -3068.139739  Gnorm:      0.001644  CPU:    7.427
  ** Hessian has required structure
  Cycle:     37 Energy:     -3068.139799  Gnorm:      0.000976  CPU:    7.599
  ** Hessian has required structure
  Cycle:     38 Energy:     -3068.139828  Gnorm:      0.000537  CPU:    7.794
  ** Hessian has required structure
  Cycle:     39 Energy:     -3068.139836  Gnorm:      0.000324  CPU:    8.059
  ** Hessian has required structure
  Cycle:     40 Energy:     -3068.139838  Gnorm:      0.000228  CPU:    8.213
  ** Hessian has required structure
  Cycle:     41 Energy:     -3068.139839  Gnorm:      0.000183  CPU:    8.366
  ** Hessian has required structure
  Cycle:     42 Energy:     -3068.139839  Gnorm:      0.000172  CPU:    8.519
  ** Hessian has required structure
  Cycle:     43 Energy:     -3068.139839  Gnorm:      0.000166  CPU:    8.676
  ** Hessian has required structure
  Cycle:     44 Energy:     -3068.139839  Gnorm:      0.000165  CPU:    8.836
  ** Hessian has required structure
  Cycle:     45 Energy:     -3068.139839  Gnorm:      0.000164  CPU:    8.993
  ** Hessian has required structure
  Cycle:     46 Energy:     -3068.139839  Gnorm:      0.000164  CPU:    9.152
  ** Hessian has required structure
  Cycle:     47 Energy:     -3068.139839  Gnorm:      0.000164  CPU:    9.310
  ** Hessian has required structure
  Cycle:     48 Energy:     -3068.139839  Gnorm:      0.000164  CPU:    9.469
  ** Hessian has required structure
  Cycle:     49 Energy:     -3068.139839  Gnorm:      0.000164  CPU:    9.864
  ** Hessian has required structure
  Cycle:     50 Energy:     -3068.139838  Gnorm:      0.000163  CPU:   10.125
  ** Hessian has required structure
  Cycle:     51 Energy:     -3068.139839  Gnorm:      0.000114  CPU:   10.376
  ** Hessian has required structure
  Cycle:     52 Energy:     -3068.139839  Gnorm:      0.000080  CPU:   10.535
  ** Hessian has required structure


  **** Optimisation achieved ****


  Final energy =   -3068.13983939 eV      
  Final Gnorm  =       0.00005612

  Components of energy : 

--------------------------------------------------------------------------------
  Interatomic potentials     =         816.91711535 eV    
  Three-body potentials      =           0.25928565 eV    
  Monopole - monopole (real) =       -2209.58956670 eV    
  Monopole - monopole (recip)=       -1675.72667370 eV    
  Monopole - monopole (total)=       -3885.31624040 eV    
--------------------------------------------------------------------------------
  Total lattice energy       =       -3068.13983939 eV    
--------------------------------------------------------------------------------
  Total lattice energy       =         -296028.5937 kJ/(mole unit cells)
--------------------------------------------------------------------------------

  Final fractional coordinates of atoms :

--------------------------------------------------------------------------------
   No.  Atomic        x           y          z          Radius
        Label       (Frac)      (Frac)     (Frac)       (Angs) 
--------------------------------------------------------------------------------
     1  Ge    c     0.052090    0.000000    0.372270    0.000000
     2  Ge    c     0.558997    0.024459    0.108312    0.000000
     3  Ge    c     0.942708    0.997048    0.116526    0.000000
     4  Si    c     0.457538    0.014230    0.361011    0.000000
     5  Si    c     0.952468    0.998913    0.633030    0.000000
     6  Si    c     0.549051    0.022671    0.623579    0.000000
     7  Si    c     0.444762    0.011724    0.870094    0.000000
     8  Si    c     0.056770    0.013705    0.883254    0.000000
     9  Si    c     0.174336    0.282535    0.266689    0.000000
    10  Si    c     0.339790    0.731003    0.265333    0.000000
    11  Si    c     0.831054    0.282031    0.711642    0.000000
    12  Si    c     0.670160    0.738532    0.709602    0.000000
    13  Si    c     0.851342    0.687447    0.710123    0.000000
    14  Si    c     0.649527    0.332717    0.710774    0.000000
    15  Si    c     0.157581    0.692787    0.272601    0.000000
    16  Si    c     0.355985    0.323548    0.263280    0.000000
    17  Si    c     0.645189    0.349409    0.005338    0.000000
    18  Si    c     0.856728    0.673153    0.005584    0.000000
    19  Si    c     0.353421    0.331068    0.968485    0.000000
    20  Si    c     0.150931    0.695478    0.979534    0.000000
    21  Si    c     0.334369    0.732032    0.969907    0.000000
    22  Si    c     0.170218    0.292290    0.972624    0.000000
    23  Si    c     0.675681    0.744887    0.005092    0.000000
    24  Si    c     0.826596    0.277998    0.007185    0.000000
    25  O3    c     0.125065    0.156634    0.354902    0.000000
    26  O2    c     0.390576    0.863597    0.350597    0.000000
    27  O2    c     0.881817    0.144762    0.628674    0.000000
    28  O2    c     0.618513    0.875066    0.626315    0.000000
    29  O2    c     0.912472    0.804203    0.628859    0.000000
    30  O2    c     0.588657    0.216740    0.628179    0.000000
    31  O3    c     0.097954    0.795163    0.361478    0.000000
    32  O2    c     0.417653    0.207971    0.344636    0.000000
    33  O3    c     0.011792    0.023704    0.519824    0.000000
    34  O2    c     0.498667    0.002638    0.496825    0.000000
    35  O1    c     0.976106    0.023017    0.267190    0.000000
    36  O3    c     0.523316    0.983471    0.256175    0.000000
    37  O2    c     0.003881    0.027176    0.759355    0.000000
    38  O2    c     0.488903    0.992843    0.738112    0.000000
    39  O3    c     0.584514    0.244211    0.090686    0.000000
    40  O3    c     0.918232    0.778135    0.089970    0.000000
    41  O2    c     0.411008    0.212216    0.882838    0.000000
    42  O2    c     0.092221    0.814215    0.894379    0.000000
    43  O2    c     0.372302    0.872853    0.875117    0.000000
    44  O2    c     0.127756    0.156887    0.877776    0.000000
    45  O3    c     0.642820    0.894096    0.094582    0.000000
    46  O3    c     0.859633    0.128965    0.097937    0.000000
    47  O3    c     0.498748    0.955596    0.987437    0.000000
    48  O3    c     0.009485    0.069366    0.007095    0.000000
    49  O2    c     0.147831    0.484108    0.292520    0.000000
    50  O2    c     0.368208    0.530169    0.293162    0.000000
    51  O2    c     0.863486    0.479125    0.683079    0.000000
    52  O2    c     0.637616    0.541103    0.683525    0.000000
    53  O2    c     0.267539    0.263918    0.296563    0.000000
    54  O2    c     0.247738    0.751082    0.300381    0.000000
    55  O2    c     0.738600    0.274438    0.674049    0.000000
    56  O2    c     0.762273    0.745554    0.671136    0.000000
    57  O2    c     0.158709    0.233055    0.119118    0.000000
    58  O2    c     0.352079    0.779180    0.117232    0.000000
    59  O2    c     0.839012    0.228001    0.859196    0.000000
    60  O2    c     0.663722    0.794707    0.856553    0.000000
    61  O2    c     0.869191    0.725685    0.857910    0.000000
    62  O2    c     0.631111    0.293696    0.858222    0.000000
    63  O2    c     0.134583    0.744295    0.126827    0.000000
    64  O2    c     0.373785    0.284777    0.115177    0.000000
    65  O2    c     0.631398    0.557913    0.026853    0.000000
    66  O2    c     0.870786    0.464839    0.029719    0.000000
    67  O2    c     0.369461    0.536923    0.940125    0.000000
    68  O2    c     0.134172    0.489320    0.952968    0.000000
    69  O2    c     0.734773    0.298384    0.040791    0.000000
    70  O2    c     0.767489    0.724729    0.041193    0.000000
    71  O2    c     0.262524    0.288665    0.938814    0.000000
    72  O2    c     0.240948    0.737345    0.945142    0.000000
    73  O3    s     0.124424    0.157461    0.346735    0.000000
    74  O2    s     0.391982    0.864765    0.342101    0.000000
    75  O2    s     0.883609    0.144615    0.638194    0.000000
    76  O2    s     0.616834    0.875723    0.635246    0.000000
    77  O2    s     0.910065    0.811679    0.637849    0.000000
    78  O2    s     0.591080    0.208872    0.636608    0.000000
    79  O3    s     0.100591    0.800737    0.352945    0.000000
    80  O2    s     0.414977    0.200374    0.337261    0.000000
    81  O3    s     0.008785    0.018885    0.519329    0.000000
    82  O2    s     0.499772    0.006369    0.495800    0.000000
    83  O1    s     0.979530    0.018983    0.263245    0.000000
    84  O3    s     0.519563    0.990349    0.254065    0.000000
    85  O2    s     0.004404    0.022382    0.760059    0.000000
    86  O2    s     0.490543    0.998420    0.740692    0.000000
    87  O3    s     0.588720    0.237477    0.083290    0.000000
    88  O3    s     0.913784    0.784614    0.083294    0.000000
    89  O2    s     0.408189    0.204497    0.890978    0.000000
    90  O2    s     0.095008    0.821761    0.902626    0.000000
    91  O2    s     0.375591    0.871623    0.885179    0.000000
    92  O2    s     0.125147    0.157040    0.888772    0.000000
    93  O3    s     0.639584    0.888476    0.085947    0.000000
    94  O3    s     0.862822    0.134358    0.089615    0.000000
    95  O3    s     0.498279    0.967254    0.985580    0.000000
    96  O3    s     0.008674    0.057569    0.003685    0.000000
    97  O2    s     0.151789    0.485526    0.287513    0.000000
    98  O2    s     0.363830    0.529070    0.286938    0.000000
    99  O2    s     0.858776    0.480851    0.688940    0.000000
   100  O2    s     0.642348    0.539456    0.689193    0.000000
   101  O2    s     0.267166    0.272392    0.289759    0.000000
   102  O2    s     0.248157    0.742769    0.293677    0.000000
   103  O2    s     0.739088    0.281438    0.681913    0.000000
   104  O2    s     0.761840    0.738649    0.679300    0.000000
   105  O2    s     0.161511    0.244225    0.119195    0.000000
   106  O2    s     0.348953    0.769287    0.117474    0.000000
   107  O2    s     0.836884    0.238889    0.858838    0.000000
   108  O2    s     0.665639    0.783598    0.856234    0.000000
   109  O2    s     0.866012    0.716313    0.857451    0.000000
   110  O2    s     0.634473    0.303354    0.857698    0.000000
   111  O2    s     0.138506    0.734316    0.126331    0.000000
   112  O2    s     0.369872    0.293466    0.115354    0.000000
   113  O2    s     0.637413    0.554779    0.022319    0.000000
   114  O2    s     0.864752    0.467742    0.024843    0.000000
   115  O2    s     0.364035    0.535152    0.946336    0.000000
   116  O2    s     0.139775    0.490814    0.957912    0.000000
   117  O2    s     0.735032    0.301793    0.033173    0.000000
   118  O2    s     0.767222    0.721240    0.033313    0.000000
   119  O2    s     0.262432    0.293854    0.945855    0.000000
   120  O2    s     0.241343    0.732006    0.951766    0.000000
--------------------------------------------------------------------------------

  Final Cartesian lattice vectors (Angstroms) :

       16.926369    0.062336   -0.052582
        0.027260    7.557198    0.007052
       -0.030903    0.009425   10.525229


  Final cell parameters and derivatives :

--------------------------------------------------------------------------------
       a           16.926565 Angstrom     dE/de1(xx)     0.002184 eV/strain
       b            7.557251 Angstrom     dE/de2(yy)    -0.000738 eV/strain
       c           10.525279 Angstrom     dE/de3(zz)     0.003951 eV/strain
       alpha       89.895838 Degrees      dE/de4(yz)     0.000041 eV/strain
       beta        90.346020 Degrees      dE/de5(xz)     0.000528 eV/strain
       gamma       89.582489 Degrees      dE/de6(xy)     0.000208 eV/strain
--------------------------------------------------------------------------------

  Primitive cell volume =          1346.313053 Angs**3

  Density of cell =      1.943520 g/cm**3

  Non-primitive cell volume =          1346.313053 Angs**3


  Final internal derivatives :

--------------------------------------------------------------------------------
   No.  Atomic          a             b             c           Radius
        Label          (eV)          (eV)          (eV)        (eV/Angs)
--------------------------------------------------------------------------------
      1 Ge    c       0.000000      0.000000      0.000000      0.000000
      2 Ge    c       0.002346      0.000416      0.002076      0.000000
      3 Ge    c      -0.000979      0.000534      0.000343      0.000000
      4 Si    c      -0.004161      0.000012     -0.000940      0.000000
      5 Si    c      -0.004645     -0.000349     -0.000345      0.000000
      6 Si    c       0.004693      0.000762      0.000378      0.000000
      7 Si    c      -0.002812      0.000638      0.000217      0.000000
      8 Si    c       0.001907     -0.000523      0.001015      0.000000
      9 Si    c       0.000374      0.000392     -0.000294      0.000000
     10 Si    c      -0.000381     -0.000359     -0.000140      0.000000
     11 Si    c       0.001123      0.000084     -0.000268      0.000000
     12 Si    c      -0.000660     -0.000235     -0.000098      0.000000
     13 Si    c       0.000713     -0.000202      0.000320      0.000000
     14 Si    c      -0.001087     -0.000004      0.000081      0.000000
     15 Si    c      -0.000258     -0.000070     -0.000233      0.000000
     16 Si    c       0.000005      0.000379     -0.000290      0.000000
     17 Si    c       0.000199      0.000501     -0.000396      0.000000
     18 Si    c      -0.001365     -0.000821     -0.000858      0.000000
     19 Si    c       0.000358      0.000409      0.000438      0.000000
     20 Si    c      -0.000231     -0.000374      0.000430      0.000000
     21 Si    c       0.000503     -0.000306      0.000217      0.000000
     22 Si    c       0.000060      0.000408      0.000405      0.000000
     23 Si    c       0.001088     -0.000440      0.001109      0.000000
     24 Si    c      -0.001500      0.000456      0.001110      0.000000
     25 O3    c      -0.001239     -0.000509      0.000493      0.000000
     26 O2    c       0.001092      0.000361      0.000298      0.000000
     27 O2    c      -0.000238      0.000378     -0.000139      0.000000
     28 O2    c       0.000701     -0.000521     -0.000230      0.000000
     29 O2    c       0.000294     -0.000088     -0.000291      0.000000
     30 O2    c      -0.000338     -0.000013     -0.000074      0.000000
     31 O3    c      -0.000318      0.000356     -0.000045      0.000000
     32 O2    c       0.000984     -0.000379      0.000436      0.000000
     33 O3    c       0.007225      0.000468     -0.002425      0.000000
     34 O2    c      -0.003777     -0.000417     -0.000963      0.000000
     35 O1    c      -0.003932     -0.000076     -0.001067      0.000000
     36 O3    c       0.007303     -0.000065     -0.002661      0.000000
     37 O2    c      -0.001874      0.000450      0.000389      0.000000
     38 O2    c      -0.000733     -0.000611     -0.000465      0.000000
     39 O3    c      -0.000441     -0.000057      0.000269      0.000000
     40 O3    c       0.001101     -0.000805      0.000794      0.000000
     41 O2    c       0.000676     -0.000138     -0.000218      0.000000
     42 O2    c      -0.000454      0.000193     -0.000455      0.000000
     43 O2    c       0.000385     -0.000070      0.000079      0.000000
     44 O2    c       0.000122      0.000206     -0.000205      0.000000
     45 O3    c      -0.000299     -0.000454     -0.000818      0.000000
     46 O3    c       0.000364      0.000499     -0.000841      0.000000
     47 O3    c      -0.002477     -0.001931     -0.001556      0.000000
     48 O3    c       0.002660      0.000724     -0.000021      0.000000
     49 O2    c       0.000259     -0.000189     -0.000110      0.000000
     50 O2    c      -0.000085      0.000184     -0.000129      0.000000
     51 O2    c       0.000216      0.000034      0.000017      0.000000
     52 O2    c      -0.000147      0.000151      0.000009      0.000000
     53 O2    c      -0.000575      0.000052      0.000106      0.000000
     54 O2    c       0.000624     -0.000049     -0.000073      0.000000
     55 O2    c      -0.000359     -0.000084     -0.000273      0.000000
     56 O2    c       0.000008      0.000083     -0.000257      0.000000
     57 O2    c      -0.000273     -0.000001     -0.000057      0.000000
     58 O2    c      -0.000020     -0.000158     -0.000079      0.000000
     59 O2    c       0.000256      0.000076      0.000236      0.000000
     60 O2    c      -0.000061     -0.000126     -0.000261      0.000000
     61 O2    c       0.000546     -0.000059      0.000307      0.000000
     62 O2    c      -0.000305      0.000259      0.000443      0.000000
     63 O2    c       0.000078     -0.000136     -0.000002      0.000000
     64 O2    c       0.000280      0.000051     -0.000075      0.000000
     65 O2    c       0.001717      0.000895     -0.000640      0.000000
     66 O2    c      -0.001813     -0.001031     -0.000686      0.000000
     67 O2    c      -0.000284      0.000183      0.000071      0.000000
     68 O2    c       0.000326      0.000079     -0.000012      0.000000
     69 O2    c       0.004427      0.000549     -0.000289      0.000000
     70 O2    c      -0.003398     -0.000433     -0.000158      0.000000
     71 O2    c      -0.000762     -0.000179      0.000059      0.000000
     72 O2    c       0.000855      0.000145      0.000123      0.000000
     73 O3    s       0.001291      0.000158     -0.000365      0.000000
     74 O2    s      -0.001704     -0.000268     -0.000574      0.000000
     75 O2    s      -0.002047      0.000174      0.000273      0.000000
     76 O2    s       0.002023     -0.000161      0.000451      0.000000
     77 O2    s      -0.001531     -0.000369      0.000041      0.000000
     78 O2    s       0.001513      0.000423      0.000111      0.000000
     79 O3    s       0.000413     -0.000051      0.000034      0.000000
     80 O2    s      -0.001305      0.000202     -0.000036      0.000000
     81 O3    s      -0.000750     -0.000218      0.000182      0.000000
     82 O2    s      -0.000094      0.000204     -0.000164      0.000000
     83 O1    s       0.001407      0.000065      0.000684      0.000000
     84 O3    s      -0.002222      0.000069      0.001300      0.000000
     85 O2    s       0.000109     -0.000007      0.000208      0.000000
     86 O2    s      -0.000652      0.000119     -0.000097      0.000000
     87 O3    s       0.000248      0.000074      0.000175      0.000000
     88 O3    s      -0.000433      0.000287      0.000127      0.000000
     89 O2    s      -0.001133      0.000177      0.000163      0.000000
     90 O2    s       0.000623     -0.000167      0.000381      0.000000
     91 O2    s      -0.001505      0.000086      0.000220      0.000000
     92 O2    s       0.001047      0.000026     -0.000007      0.000000
     93 O3    s       0.002037     -0.000350      0.000244      0.000000
     94 O3    s      -0.001591      0.000480     -0.000047      0.000000
     95 O3    s       0.000971      0.000284      0.001443      0.000000
     96 O3    s      -0.000551     -0.000104      0.000502      0.000000
     97 O2    s      -0.000017     -0.000043     -0.000101      0.000000
     98 O2    s      -0.000292      0.000124     -0.000079      0.000000
     99 O2    s      -0.000360     -0.000100     -0.000098      0.000000
    100 O2    s       0.000340      0.000095      0.000042      0.000000
    101 O2    s      -0.000143      0.000013     -0.000293      0.000000
    102 O2    s       0.000083     -0.000025     -0.000322      0.000000
    103 O2    s       0.000285      0.000025      0.000486      0.000000
    104 O2    s      -0.000657     -0.000078      0.000623      0.000000
    105 O2    s       0.000383      0.000186      0.000326      0.000000
    106 O2    s      -0.000174      0.000137      0.000349      0.000000
    107 O2    s      -0.001160     -0.000047      0.000953      0.000000
    108 O2    s       0.000623      0.000095      0.000716      0.000000
    109 O2    s      -0.000798      0.000011     -0.000050      0.000000
    110 O2    s       0.000886     -0.000182     -0.000037      0.000000
    111 O2    s       0.000251      0.000061      0.000208      0.000000
    112 O2    s      -0.000307     -0.000216      0.000221      0.000000
    113 O2    s       0.000380      0.000381      0.000004      0.000000
    114 O2    s      -0.000548     -0.000458     -0.000077      0.000000
    115 O2    s      -0.000221      0.000110     -0.000024      0.000000
    116 O2    s       0.000180     -0.000125      0.000012      0.000000
    117 O2    s       0.000488     -0.000097     -0.000658      0.000000
    118 O2    s      -0.000842      0.000059     -0.000464      0.000000
    119 O2    s      -0.000028      0.000052      0.000301      0.000000
    120 O2    s       0.000140     -0.000127      0.000313      0.000000
--------------------------------------------------------------------------------
  Maximum abs         0.007303      0.001931      0.002661      0.000000
--------------------------------------------------------------------------------


  Born effective charge tensors : 

-------------------------------------------------------------------------------
  Atom             x           y             z
-------------------------------------------------------------------------------
    1 Ge    x       4.3369     -0.1791     -0.3769
            y       0.1379      3.8777     -0.0108
            z      -0.4206      0.1056      4.7191
-------------------------------------------------------------------------------
    2 Ge    x       4.1569      0.3262     -0.3497
            y      -0.2982      3.9124     -0.0148
            z      -0.5747     -0.1312      3.8820
-------------------------------------------------------------------------------
    3 Ge    x       4.2249      0.3066      0.4012
            y      -0.2962      3.9047      0.0362
            z       0.5535      0.0999      4.0120
-------------------------------------------------------------------------------
    4 Si    x       3.6085     -0.1491      0.1481
            y       0.1279      3.2913      0.0113
            z       0.2349      0.0215      4.1219
-------------------------------------------------------------------------------
    5 Si    x       3.7477      0.2236     -0.2788
            y      -0.1138      3.2749     -0.0286
            z      -0.8671     -0.1160      4.0422
-------------------------------------------------------------------------------
    6 Si    x       3.4645      0.1747      0.1860
            y      -0.1391      3.2342      0.0223
            z       0.5004      0.0596      3.7938
-------------------------------------------------------------------------------
    7 Si    x       3.6127     -0.2415     -0.1107
            y       0.1567      3.3309     -0.0615
            z      -0.4555     -0.0269      3.3208
-------------------------------------------------------------------------------
    8 Si    x       3.6625     -0.2226      0.0535
            y       0.1482      3.3396      0.0358
            z       0.5099      0.0488      3.2099
-------------------------------------------------------------------------------
    9 Si    x       3.3461      0.3973     -0.2910
            y       0.3104      3.6197     -0.3476
            z      -0.2484     -0.2303      3.0319
-------------------------------------------------------------------------------
   10 Si    x       3.1479      0.2579      0.1473
            y       0.1801      3.4676      0.1595
            z       0.1140      0.0917      2.8294
-------------------------------------------------------------------------------
   11 Si    x       3.2253     -0.3143     -0.1413
            y      -0.1533      3.4610      0.1428
            z      -0.1023      0.0336      2.7204
-------------------------------------------------------------------------------
   12 Si    x       3.2188     -0.3178      0.1435
            y      -0.1625      3.4737     -0.1559
            z       0.1411     -0.0537      2.7491
-------------------------------------------------------------------------------
   13 Si    x       3.2049      0.2175     -0.0428
            y       0.3067      3.4504     -0.1998
            z      -0.0676     -0.0760      2.7400
-------------------------------------------------------------------------------
   14 Si    x       3.1979      0.2134      0.0533
            y       0.3117      3.4582      0.2098
            z       0.0944      0.0876      2.7738
-------------------------------------------------------------------------------
   15 Si    x       3.4168     -0.2866     -0.2684
            y      -0.4132      3.4976      0.3414
            z      -0.2709      0.1847      3.0397
-------------------------------------------------------------------------------
   16 Si    x       3.1374     -0.1689      0.0707
            y      -0.2922      3.4110     -0.1534
            z       0.1040     -0.0871      2.8279
-------------------------------------------------------------------------------
   17 Si    x       3.4784      0.3690     -0.3361
            y       0.4147      3.4969     -0.3095
            z      -0.3486     -0.1411      2.8661
-------------------------------------------------------------------------------
   18 Si    x       3.4866      0.3646      0.3198
            y       0.4122      3.4914      0.3003
            z       0.3336      0.1394      2.8482
-------------------------------------------------------------------------------
   19 Si    x       3.2705     -0.2332     -0.1467
            y      -0.2591      3.3950      0.1737
            z      -0.1511      0.0755      2.7111
-------------------------------------------------------------------------------
   20 Si    x       3.2911     -0.2372      0.1613
            y      -0.2499      3.3975     -0.1848
            z       0.1576     -0.0544      2.6754
-------------------------------------------------------------------------------
   21 Si    x       3.2206      0.3105     -0.2216
            y       0.0724      3.4364     -0.1740
            z      -0.1032     -0.0810      2.7408
-------------------------------------------------------------------------------
   22 Si    x       3.2634      0.3123      0.2195
            y       0.0854      3.4339      0.2027
            z       0.1193      0.0498      2.6865
-------------------------------------------------------------------------------
   23 Si    x       3.2799     -0.5022     -0.2746
            y      -0.1328      3.6678      0.3831
            z      -0.1782      0.2543      2.8952
-------------------------------------------------------------------------------
   24 Si    x       3.2757     -0.4820      0.2614
            y      -0.1284      3.6551     -0.3793
            z       0.1515     -0.2451      2.8787
-------------------------------------------------------------------------------
   25 O3    x      -2.1062     -0.9179      0.5970
            y      -1.0016     -2.2953      0.6101
            z       0.6325      0.5770     -1.6823
-------------------------------------------------------------------------------
   26 O2    x      -1.7300     -0.6939     -0.3886
            y      -0.7361     -1.9367     -0.3875
            z      -0.3974     -0.3656     -1.3916
-------------------------------------------------------------------------------
   27 O2    x      -1.7944      0.7001      0.2674
            y       0.7519     -1.9247     -0.2991
            z       0.3339     -0.2720     -1.3231
-------------------------------------------------------------------------------
   28 O2    x      -1.7885      0.7071     -0.3218
            y       0.7688     -1.9251      0.3346
            z      -0.3764      0.3171     -1.3420
-------------------------------------------------------------------------------
   29 O2    x      -1.6519     -0.6941      0.2812
            y      -0.6375     -2.0310      0.2810
            z       0.3471      0.2763     -1.3362
-------------------------------------------------------------------------------
   30 O2    x      -1.6364     -0.6969     -0.3232
            y      -0.6506     -2.0281     -0.3405
            z      -0.3677     -0.3335     -1.3563
-------------------------------------------------------------------------------
   31 O3    x      -2.0051      0.8797      0.5824
            y       0.8623     -2.3043     -0.5457
            z       0.6159     -0.5541     -1.6983
-------------------------------------------------------------------------------
   32 O2    x      -1.6083      0.6506     -0.3589
            y       0.6136     -1.9964      0.3883
            z      -0.3759      0.3783     -1.4012
-------------------------------------------------------------------------------
   33 O3    x      -2.0265     -0.0502      1.1702
            y      -0.0316     -1.2184      0.0337
            z       1.4591      0.0420     -3.4208
-------------------------------------------------------------------------------
   34 O2    x      -1.5898     -0.0254     -0.8387
            y      -0.0108     -1.0964     -0.0210
            z      -1.0290     -0.0437     -2.8217
-------------------------------------------------------------------------------
   35 O1    x      -2.1668     -0.0162     -0.9839
            y       0.0425     -1.3118     -0.0230
            z      -0.9928     -0.0691     -2.9930
-------------------------------------------------------------------------------
   36 O3    x      -2.0263     -0.0048      0.9742
            y       0.0497     -1.2660     -0.0031
            z       0.9323      0.0550     -2.7731
-------------------------------------------------------------------------------
   37 O2    x      -1.7786     -0.0165     -0.7488
            y      -0.0150     -1.1451     -0.0175
            z      -0.7302     -0.0240     -2.1500
-------------------------------------------------------------------------------
   38 O2    x      -1.7260     -0.0094      0.7424
            y      -0.0187     -1.1311      0.0115
            z       0.7376      0.0009     -2.2145
-------------------------------------------------------------------------------
   39 O3    x      -1.9931     -0.8863      0.5822
            y      -0.7114     -2.3773      0.5552
            z       0.5604      0.5366     -1.5151
-------------------------------------------------------------------------------
   40 O3    x      -2.0024     -0.8735     -0.5824
            y      -0.7038     -2.3748     -0.5811
            z      -0.5395     -0.5360     -1.5081
-------------------------------------------------------------------------------
   41 O2    x      -1.6229      0.6441      0.3651
            y       0.5402     -2.0277     -0.3994
            z       0.3836     -0.3842     -1.2710
-------------------------------------------------------------------------------
   42 O2    x      -1.6666      0.6694     -0.3649
            y       0.5565     -2.0232      0.3949
            z      -0.3802      0.3610     -1.2368
-------------------------------------------------------------------------------
   43 O2    x      -1.7346     -0.6690      0.3757
            y      -0.6423     -1.8938      0.4056
            z       0.3449      0.3498     -1.2905
-------------------------------------------------------------------------------
   44 O2    x      -1.7810     -0.6937     -0.3429
            y      -0.6617     -1.8849     -0.3619
            z      -0.3379     -0.3124     -1.2559
-------------------------------------------------------------------------------
   45 O3    x      -2.0718      0.8838      0.5219
            y       0.8489     -2.3033     -0.6222
            z       0.4906     -0.5650     -1.5437
-------------------------------------------------------------------------------
   46 O3    x      -2.0470      0.8678     -0.5211
            y       0.8369     -2.3049      0.6338
            z      -0.4649      0.5611     -1.5382
-------------------------------------------------------------------------------
   47 O3    x      -2.1228      0.0089     -0.8448
            y       0.0182     -1.3855      0.0314
            z      -0.4722      0.0279     -2.0440
-------------------------------------------------------------------------------
   48 O3    x      -2.1590     -0.0194      0.8444
            y      -0.0043     -1.3896     -0.0358
            z       0.4473     -0.0352     -1.9981
-------------------------------------------------------------------------------
   49 O2    x      -1.1791      0.0748      0.0712
            y       0.1192     -2.4850     -0.0282
            z       0.0769     -0.0088     -1.0931
-------------------------------------------------------------------------------
   50 O2    x      -1.1462      0.0745     -0.0626
            y       0.1281     -2.5571     -0.0125
            z      -0.0686     -0.0154     -1.0724
-------------------------------------------------------------------------------
   51 O2    x      -1.1774     -0.0880      0.0624
            y      -0.1684     -2.5533      0.0150
            z       0.0681     -0.0123     -1.0485
-------------------------------------------------------------------------------
   52 O2    x      -1.1715     -0.0905     -0.0598
            y      -0.1715     -2.5613     -0.0019
            z      -0.0721      0.0216     -1.0530
-------------------------------------------------------------------------------
   53 O2    x      -2.3402     -0.1099      0.0012
            y      -0.0497     -1.2671      0.0719
            z       0.0040      0.0549     -1.0701
-------------------------------------------------------------------------------
   54 O2    x      -2.3609     -0.1358      0.0196
            y      -0.0809     -1.2716     -0.0729
            z       0.0299     -0.0479     -1.0749
-------------------------------------------------------------------------------
   55 O2    x      -2.3937      0.1515      0.0055
            y       0.0754     -1.2630     -0.0723
            z      -0.0319     -0.0390     -1.0519
-------------------------------------------------------------------------------
   56 O2    x      -2.3903      0.1543     -0.0051
            y       0.0828     -1.2618      0.0724
            z       0.0116      0.0408     -1.0574
-------------------------------------------------------------------------------
   57 O2    x      -1.1937     -0.1289     -0.0705
            y      -0.0945     -1.3171      0.0174
            z      -0.0619      0.0026     -2.0352
-------------------------------------------------------------------------------
   58 O2    x      -1.1726     -0.1250     -0.0086
            y      -0.0924     -1.2948     -0.0073
            z      -0.0075      0.0070     -2.0808
-------------------------------------------------------------------------------
   59 O2    x      -1.1876      0.1322      0.0058
            y       0.0759     -1.3087     -0.0251
            z       0.0309      0.0000     -2.0016
-------------------------------------------------------------------------------
   60 O2    x      -1.1809      0.1303     -0.0020
            y       0.0743     -1.3136      0.0196
            z      -0.0317     -0.0058     -2.0185
-------------------------------------------------------------------------------
   61 O2    x      -1.2214     -0.1300     -0.0328
            y      -0.1300     -1.2836      0.0344
            z      -0.0536      0.0565     -2.0132
-------------------------------------------------------------------------------
   62 O2    x      -1.2219     -0.1336      0.0393
            y      -0.1362     -1.2901     -0.0417
            z       0.0576     -0.0616     -2.0262
-------------------------------------------------------------------------------
   63 O2    x      -1.2522      0.1391     -0.0713
            y       0.1429     -1.2926      0.0198
            z      -0.0861      0.0166     -2.0312
-------------------------------------------------------------------------------
   64 O2    x      -1.2231      0.1279      0.0160
            y       0.1366     -1.2702      0.0063
            z       0.0254      0.0134     -2.0693
-------------------------------------------------------------------------------
   65 O2    x      -1.2862     -0.1157      0.1022
            y      -0.2088     -2.3808     -0.0145
            z       0.1214      0.0071     -1.0301
-------------------------------------------------------------------------------
   66 O2    x      -1.2902     -0.1181     -0.0988
            y      -0.2045     -2.3759      0.0226
            z      -0.1137     -0.0040     -1.0282
-------------------------------------------------------------------------------
   67 O2    x      -1.2280      0.0703      0.0998
            y       0.1517     -2.4947     -0.0082
            z       0.1000     -0.0105     -1.0216
-------------------------------------------------------------------------------
   68 O2    x      -1.2462      0.0768     -0.0918
            y       0.1561     -2.5132     -0.0364
            z      -0.0950     -0.0141     -0.9961
-------------------------------------------------------------------------------
   69 O2    x      -2.3440      0.1942      0.0197
            y       0.1226     -1.2786      0.0694
            z       0.0039      0.0383     -1.0504
-------------------------------------------------------------------------------
   70 O2    x      -2.3406      0.1964     -0.0189
            y       0.1254     -1.2804     -0.0707
            z       0.0066     -0.0416     -1.0535
-------------------------------------------------------------------------------
   71 O2    x      -2.4447     -0.1182      0.0208
            y      -0.0736     -1.2424     -0.0634
            z       0.0263     -0.0300     -1.0188
-------------------------------------------------------------------------------
   72 O2    x      -2.4477     -0.1123      0.0471
            y      -0.0703     -1.2468      0.0657
            z       0.0120      0.0346     -1.0140
-------------------------------------------------------------------------------




  Elastic Constant Matrix: (Units=GPa)

-------------------------------------------------------------------------------
  Indices      1         2         3         4         5         6    
-------------------------------------------------------------------------------
       1     48.3165   22.4651   29.5255    1.0717    1.6686    0.9300
       2     22.4651   66.8433   23.9347    0.8720    1.9299    0.3527
       3     29.5255   23.9347   40.2862    1.3520    1.1346    1.0222
       4      1.0717    0.8720    1.3520   11.3742    0.5108    0.7206
       5      1.6686    1.9299    1.1346    0.5108   22.8333    1.0600
       6      0.9300    0.3527    1.0222    0.7206    1.0600   28.7899
-------------------------------------------------------------------------------


  Elastic Compliance Matrix: (Units=1/GPa)

-------------------------------------------------------------------------------
  Indices      1         2         3         4         5         6    
-------------------------------------------------------------------------------
       1    0.038179 -0.003544 -0.025830 -0.000188 -0.001192 -0.000224
       2   -0.003544  0.019358 -0.008880 -0.000067 -0.000945  0.000229
       3   -0.025830 -0.008880  0.049130 -0.002691  0.000292 -0.000745
       4   -0.000188 -0.000067 -0.002691  0.088469 -0.001731 -0.002048
       5   -0.001192 -0.000945  0.000292 -0.001731  0.044058 -0.001539
       6   -0.000224  0.000229 -0.000745 -0.002048 -0.001539  0.034873
-------------------------------------------------------------------------------

  Mechanical properties :

-------------------------------------------------------------------------------
  Convention :                    Reuss         Voigt         Hill
-------------------------------------------------------------------------------
  Bulk  Modulus (GPa)     =      33.15870      34.14405      33.65137
  Shear Modulus (GPa)     =      13.86469      17.90084      15.88276
-------------------------------------------------------------------------------
  Velocity S-wave (km/s)  =       2.67092       3.03488       2.85870
  Velocity P-wave (km/s)  =       5.15489       5.46341       5.31139
-------------------------------------------------------------------------------
  Compressibility (1/GPa) =    0.03015800
-------------------------------------------------------------------------------
  Stress axis :                     x             y             z
-------------------------------------------------------------------------------
  Youngs Moduli (GPa)     =      26.19270      51.65729      20.35426
-------------------------------------------------------------------------------
  Poissons Ratio (x)      =                     0.18309       0.52574
  Poissons Ratio (y)      =       0.09284                     0.18075
  Poissons Ratio (z)      =       0.67655       0.45874
-------------------------------------------------------------------------------


  Piezoelectric Strain Matrix: (Units=C/m**2)

-------------------------------------------------------------------------------
  Indices      1         2         3         4         5         6    
-------------------------------------------------------------------------------
       x    -0.02842   0.00752  -0.08075   0.30526  -0.66829   0.03944
       y    -0.06768   0.07964  -0.46804  -0.40873   0.47046   0.06379
       z    -0.46629  -1.00059   1.41307   0.06356  -0.12365  -0.04176
-------------------------------------------------------------------------------


  Piezoelectric Stress Matrix: (Units=10**-11 C/N)

-------------------------------------------------------------------------------
  Indices      1         2         3         4         5         6    
-------------------------------------------------------------------------------
       x     0.17048   0.15837  -0.43457   2.83041  -3.00295   0.18471
       y     0.87244   0.55352  -2.07640  -3.58375   2.12062   0.27194
       z    -5.06096  -3.01627   9.01772   0.22736  -0.35800  -0.25728
-------------------------------------------------------------------------------


  Static dielectric constant tensor : 

-------------------------------------------------------------------------------
              x         y         z
-------------------------------------------------------------------------------
       x     4.00974  -0.02441  -0.08689
       y    -0.02441   3.98897  -0.00559
       z    -0.08689  -0.00559   3.43589
--------------------------------------------------------------------------------

  High frequency dielectric constant tensor : 

-------------------------------------------------------------------------------
              x         y         z
-------------------------------------------------------------------------------
       x     1.67305   0.00082  -0.00033
       y     0.00082   1.68321   0.00011
       z    -0.00033   0.00011   1.61245
-------------------------------------------------------------------------------

  Static refractive indices : 

-------------------------------------------------------------------------------
    1 =    1.85010      2 =    1.99428      3 =    2.00863
-------------------------------------------------------------------------------

  High frequency refractive indices : 

-------------------------------------------------------------------------------
    1 =    1.26982      2 =    1.29344      3 =    1.29741
-------------------------------------------------------------------------------


  Time to end of optimisation =      10.8900 seconds


  Peak dynamic memory used =       5.01 MB 


  Timing analysis for GULP :

--------------------------------------------------------------------------------
  Task / Subroutine                                          Time (Seconds)
--------------------------------------------------------------------------------
  Calculation of reciprocal space energy and derivatives          0.6602
  Calculation of real space energy and derivatives                6.7234
  Calculation of three-body energy and derivatives                0.6557
  Calculation and manipulation of Hessian matrix                  3.1952
  Calculation of matrix inversion                                 0.0240
  Global summation overhead                                       0.0002
--------------------------------------------------------------------------------
  Total CPU time                                                 10.8900
--------------------------------------------------------------------------------


  Dump file written as c00020.vasp.grs
  CIF file written as c00020.vasp.cif


  Job Finished at 11:29.32  7th October    2025                               

