********************************************************************************
*                       GENERAL UTILITY LATTICE PROGRAM                        *
*                                 Julian Gale                                  *
*                       Curtin Institute for Computation                       *
*                    School of Molecular and Life Sciences                     *
*                    Curtin University, Western Australia                      *
********************************************************************************
* Version = 6.1.2 * Last modified =   3rd November 2022                        *
********************************************************************************
*  optimise     - perform optimisation run                                     *
*  conp         - constant pressure calculation                                *
*  property     - calculate properties for final geometry                      *
********************************************************************************

  Job Started  at 11:38.17  7th October    2025                               

  Number of CPUs =     1


  Total number of configurations input =      1

********************************************************************************
*  Input for Configuration =   1 : c00067.vasp                                 *
********************************************************************************

  Formula = Ge3Si21O48                                                  

  Number of irreducible atoms/shells =     120


  Total number atoms/shells =     120

  Dimensionality = 3               :  Bulk   



  Cartesian lattice vectors (Angstroms) :

       17.182800    0.000000    0.000000
        0.000000    7.513760    0.000000
        0.000000    0.000000   10.447700

  Cell parameters (Angstroms/Degrees):

  a =      17.1828    alpha =  90.0000
  b =       7.5138    beta  =  90.0000
  c =      10.4477    gamma =  90.0000

  Initial cell volume =        1348.875752 Angs**3

  Temperature of configuration =   0.00     K 

  Pressure of configuration =         0.000 GPa 

  Fractional coordinates of asymmetric unit :

--------------------------------------------------------------------------------
   No.  Atomic       x           y          z         Charge      Occupancy
        Label      (Frac)      (Frac)     (Frac)        (e)         (Frac)  
--------------------------------------------------------------------------------
      1 Ge    c    0.052090    0.000000    0.372270     4.00000    1.000000    
      2 Ge    c    0.160190 *  0.293910 *  0.273440 *   4.00000    1.000000    
      3 Ge    c    0.339340 *  0.294090 *  0.982560 *   4.00000    1.000000    
      4 Si    c    0.447910 *  0.000000 *  0.372270 *   4.00000    1.000000    
      5 Si    c    0.947910 *  0.000000 *  0.627730 *   4.00000    1.000000    
      6 Si    c    0.552090 *  0.000000 *  0.627730 *   4.00000    1.000000    
      7 Si    c    0.556730 *  0.000000 *  0.122130 *   4.00000    1.000000    
      8 Si    c    0.943270 *  0.000000 *  0.122130 *   4.00000    1.000000    
      9 Si    c    0.443270 *  0.000000 *  0.877870 *   4.00000    1.000000    
     10 Si    c    0.056730 *  0.000000 *  0.877870 *   4.00000    1.000000    
     11 Si    c    0.339810 *  0.706090 *  0.273440 *   4.00000    1.000000    
     12 Si    c    0.839810 *  0.293910 *  0.726560 *   4.00000    1.000000    
     13 Si    c    0.660190 *  0.706090 *  0.726560 *   4.00000    1.000000    
     14 Si    c    0.839810 *  0.706090 *  0.726560 *   4.00000    1.000000    
     15 Si    c    0.660190 *  0.293910 *  0.726560 *   4.00000    1.000000    
     16 Si    c    0.160190 *  0.706090 *  0.273440 *   4.00000    1.000000    
     17 Si    c    0.339810 *  0.293910 *  0.273440 *   4.00000    1.000000    
     18 Si    c    0.660660 *  0.294090 *  0.017440 *   4.00000    1.000000    
     19 Si    c    0.839340 *  0.705910 *  0.017440 *   4.00000    1.000000    
     20 Si    c    0.160660 *  0.705910 *  0.982560 *   4.00000    1.000000    
     21 Si    c    0.339340 *  0.705910 *  0.982560 *   4.00000    1.000000    
     22 Si    c    0.160660 *  0.294090 *  0.982560 *   4.00000    1.000000    
     23 Si    c    0.660660 *  0.705910 *  0.017440 *   4.00000    1.000000    
     24 Si    c    0.839340 *  0.294090 *  0.017440 *   4.00000    1.000000    
     25 O1    c    0.106570 *  0.174340 *  0.366200 *   1.73396    1.000000    
     26 O2    c    0.393430 *  0.825660 *  0.366200 *   0.87073    1.000000    
     27 O2    c    0.893430 *  0.174340 *  0.633800 *   0.87073    1.000000    
     28 O2    c    0.606570 *  0.825660 *  0.633800 *   0.87073    1.000000    
     29 O2    c    0.893430 *  0.825660 *  0.633800 *   0.87073    1.000000    
     30 O2    c    0.606570 *  0.174340 *  0.633800 *   0.87073    1.000000    
     31 O3    c    0.106570 *  0.825660 *  0.366200 *   1.33043    1.000000    
     32 O2    c    0.393430 *  0.174340 *  0.366200 *   0.87073    1.000000    
     33 O3    c    0.000000 *  0.000000 *  0.500000 *   1.33043    1.000000    
     34 O2    c    0.500000 *  0.000000 *  0.500000 *   0.87073    1.000000    
     35 O3    c    0.994520 *  0.000000 *  0.250840 *   1.33043    1.000000    
     36 O2    c    0.505480 *  0.000000 *  0.250840 *   0.87073    1.000000    
     37 O2    c    0.005480 *  0.000000 *  0.749160 *   0.87073    1.000000    
     38 O2    c    0.494520 *  0.000000 *  0.749160 *   0.87073    1.000000    
     39 O2    c    0.610230 *  0.175520 *  0.115390 *   0.87073    1.000000    
     40 O2    c    0.889770 *  0.824480 *  0.115390 *   0.87073    1.000000    
     41 O3    c    0.389770 *  0.175520 *  0.884610 *   1.33043    1.000000    
     42 O2    c    0.110230 *  0.824480 *  0.884610 *   0.87073    1.000000    
     43 O2    c    0.389770 *  0.824480 *  0.884610 *   0.87073    1.000000    
     44 O2    c    0.110230 *  0.175520 *  0.884610 *   0.87073    1.000000    
     45 O2    c    0.610230 *  0.824480 *  0.115390 *   0.87073    1.000000    
     46 O2    c    0.889770 *  0.175520 *  0.115390 *   0.87073    1.000000    
     47 O2    c    0.500000 *  0.000000 *  0.000000 *   0.87073    1.000000    
     48 O2    c    0.000000 *  0.000000 *  0.000000 *   0.87073    1.000000    
     49 O3    c    0.151750 *  0.500000 *  0.313330 *   1.33043    1.000000    
     50 O2    c    0.348250 *  0.500000 *  0.313330 *   0.87073    1.000000    
     51 O2    c    0.848250 *  0.500000 *  0.686670 *   0.87073    1.000000    
     52 O2    c    0.651750 *  0.500000 *  0.686670 *   0.87073    1.000000    
     53 O3    c    0.250000 *  0.234950 *  0.285720 *   1.33043    1.000000    
     54 O2    c    0.250000 *  0.765050 *  0.285720 *   0.87073    1.000000    
     55 O2    c    0.750000 *  0.234950 *  0.714280 *   0.87073    1.000000    
     56 O2    c    0.750000 *  0.765050 *  0.714280 *   0.87073    1.000000    
     57 O3    c    0.131410 *  0.268650 *  0.127790 *   1.33043    1.000000    
     58 O2    c    0.368590 *  0.731350 *  0.127790 *   0.87073    1.000000    
     59 O2    c    0.868590 *  0.268650 *  0.872210 *   0.87073    1.000000    
     60 O2    c    0.631410 *  0.731350 *  0.872210 *   0.87073    1.000000    
     61 O2    c    0.868590 *  0.731350 *  0.872210 *   0.87073    1.000000    
     62 O2    c    0.631410 *  0.268650 *  0.872210 *   0.87073    1.000000    
     63 O2    c    0.131410 *  0.731350 *  0.127790 *   0.87073    1.000000    
     64 O3    c    0.368590 *  0.268650 *  0.127790 *   1.33043    1.000000    
     65 O2    c    0.653920 *  0.500000 *  0.058200 *   0.87073    1.000000    
     66 O2    c    0.846080 *  0.500000 *  0.058200 *   0.87073    1.000000    
     67 O3    c    0.346080 *  0.500000 *  0.941800 *   1.33043    1.000000    
     68 O2    c    0.153920 *  0.500000 *  0.941800 *   0.87073    1.000000    
     69 O2    c    0.750000 *  0.231060 *  0.027050 *   0.87073    1.000000    
     70 O2    c    0.750000 *  0.768940 *  0.027050 *   0.87073    1.000000    
     71 O3    c    0.250000 *  0.231060 *  0.972950 *   1.33043    1.000000    
     72 O2    c    0.250000 *  0.768940 *  0.972950 *   0.87073    1.000000    
     73 O1    s    0.106570 *  0.174340 *  0.366200 *  -3.73396    1.000000    
     74 O2    s    0.393430 *  0.825660 *  0.366200 *  -2.87073    1.000000    
     75 O2    s    0.893430 *  0.174340 *  0.633800 *  -2.87073    1.000000    
     76 O2    s    0.606570 *  0.825660 *  0.633800 *  -2.87073    1.000000    
     77 O2    s    0.893430 *  0.825660 *  0.633800 *  -2.87073    1.000000    
     78 O2    s    0.606570 *  0.174340 *  0.633800 *  -2.87073    1.000000    
     79 O3    s    0.106570 *  0.825660 *  0.366200 *  -3.33043    1.000000    
     80 O2    s    0.393430 *  0.174340 *  0.366200 *  -2.87073    1.000000    
     81 O3    s    0.000000 *  0.000000 *  0.500000 *  -3.33043    1.000000    
     82 O2    s    0.500000 *  0.000000 *  0.500000 *  -2.87073    1.000000    
     83 O3    s    0.994520 *  0.000000 *  0.250840 *  -3.33043    1.000000    
     84 O2    s    0.505480 *  0.000000 *  0.250840 *  -2.87073    1.000000    
     85 O2    s    0.005480 *  0.000000 *  0.749160 *  -2.87073    1.000000    
     86 O2    s    0.494520 *  0.000000 *  0.749160 *  -2.87073    1.000000    
     87 O2    s    0.610230 *  0.175520 *  0.115390 *  -2.87073    1.000000    
     88 O2    s    0.889770 *  0.824480 *  0.115390 *  -2.87073    1.000000    
     89 O3    s    0.389770 *  0.175520 *  0.884610 *  -3.33043    1.000000    
     90 O2    s    0.110230 *  0.824480 *  0.884610 *  -2.87073    1.000000    
     91 O2    s    0.389770 *  0.824480 *  0.884610 *  -2.87073    1.000000    
     92 O2    s    0.110230 *  0.175520 *  0.884610 *  -2.87073    1.000000    
     93 O2    s    0.610230 *  0.824480 *  0.115390 *  -2.87073    1.000000    
     94 O2    s    0.889770 *  0.175520 *  0.115390 *  -2.87073    1.000000    
     95 O2    s    0.500000 *  0.000000 *  0.000000 *  -2.87073    1.000000    
     96 O2    s    0.000000 *  0.000000 *  0.000000 *  -2.87073    1.000000    
     97 O3    s    0.151750 *  0.500000 *  0.313330 *  -3.33043    1.000000    
     98 O2    s    0.348250 *  0.500000 *  0.313330 *  -2.87073    1.000000    
     99 O2    s    0.848250 *  0.500000 *  0.686670 *  -2.87073    1.000000    
    100 O2    s    0.651750 *  0.500000 *  0.686670 *  -2.87073    1.000000    
    101 O3    s    0.250000 *  0.234950 *  0.285720 *  -3.33043    1.000000    
    102 O2    s    0.250000 *  0.765050 *  0.285720 *  -2.87073    1.000000    
    103 O2    s    0.750000 *  0.234950 *  0.714280 *  -2.87073    1.000000    
    104 O2    s    0.750000 *  0.765050 *  0.714280 *  -2.87073    1.000000    
    105 O3    s    0.131410 *  0.268650 *  0.127790 *  -3.33043    1.000000    
    106 O2    s    0.368590 *  0.731350 *  0.127790 *  -2.87073    1.000000    
    107 O2    s    0.868590 *  0.268650 *  0.872210 *  -2.87073    1.000000    
    108 O2    s    0.631410 *  0.731350 *  0.872210 *  -2.87073    1.000000    
    109 O2    s    0.868590 *  0.731350 *  0.872210 *  -2.87073    1.000000    
    110 O2    s    0.631410 *  0.268650 *  0.872210 *  -2.87073    1.000000    
    111 O2    s    0.131410 *  0.731350 *  0.127790 *  -2.87073    1.000000    
    112 O3    s    0.368590 *  0.268650 *  0.127790 *  -3.33043    1.000000    
    113 O2    s    0.653920 *  0.500000 *  0.058200 *  -2.87073    1.000000    
    114 O2    s    0.846080 *  0.500000 *  0.058200 *  -2.87073    1.000000    
    115 O3    s    0.346080 *  0.500000 *  0.941800 *  -3.33043    1.000000    
    116 O2    s    0.153920 *  0.500000 *  0.941800 *  -2.87073    1.000000    
    117 O2    s    0.750000 *  0.231060 *  0.027050 *  -2.87073    1.000000    
    118 O2    s    0.750000 *  0.768940 *  0.027050 *  -2.87073    1.000000    
    119 O3    s    0.250000 *  0.231060 *  0.972950 *  -3.33043    1.000000    
    120 O2    s    0.250000 *  0.768940 *  0.972950 *  -2.87073    1.000000    
--------------------------------------------------------------------------------



********************************************************************************
*  General input information                                                   *
********************************************************************************

  Species output for all configurations : 

--------------------------------------------------------------------------------
  Species    Type    Atomic    Atomic    Charge       Radii (Angs)     Library
                     Number     Mass       (e)     Cova   Ionic  VDW   Symbol
--------------------------------------------------------------------------------
    Ge       Core       32      72.61   4.000000   1.170  0.000  1.750 Ge       
    Si       Core       14      28.09   4.000000   1.200  0.000  2.100 Si       
    O1       Core        8      16.00   1.733957   0.730  0.000  1.360 O1       
    O2       Core        8      16.00   0.870733   0.730  0.000  1.360 O2       
    O3       Core        8      16.00   1.330431   0.730  0.000  1.360 O3       
    O1       Shell       8       0.00  -3.733957   0.730  0.000  0.000 O1       
    O2       Shell       8       0.00  -2.870733   0.730  0.000  0.000 O2       
    O3       Shell       8       0.00  -3.330431   0.730  0.000  0.000 O3       
--------------------------------------------------------------------------------


  Lattice summation method               =    Ewald          (3-D)
                                         =    Parry          (2-D)
                                         =    Saunders et al (1-D)
  Accuracy factor for lattice sums       =   12.000


  Analytic derivatives to be used

  Time limit = Infinity

  Maximum range for interatomic potentials =    100000.000000 Angstroms

  General interatomic potentials :

--------------------------------------------------------------------------------
Atom  Types   Potential      Parameter       Value         Units   Cutoffs(Ang)
  1     2                                                            Min /  Max 
--------------------------------------------------------------------------------
Si   c O1   s Buckingham    Buckingham A     1315.2478    eV        0.000 16.000
                            Buckingham rho  0.31775900    Ang       
                            Buckingham C     10.141118    eV*Ang^6  
--------------------------------------------------------------------------------
Si   c O2   s Buckingham    Buckingham A     1315.2478    eV        0.000 16.000
                            Buckingham rho  0.31775900    Ang       
                            Buckingham C     10.141118    eV*Ang^6  
--------------------------------------------------------------------------------
Si   c O3   s Buckingham    Buckingham A     1315.2478    eV        0.000 16.000
                            Buckingham rho  0.31775900    Ang       
                            Buckingham C     10.141118    eV*Ang^6  
--------------------------------------------------------------------------------
Ge   c O1   s Buckingham    Buckingham A     1497.3996    eV        0.000 16.000
                            Buckingham rho  0.32564600    Ang       
                            Buckingham C     16.808599    eV*Ang^6  
--------------------------------------------------------------------------------
Ge   c O2   s Buckingham    Buckingham A     1497.3996    eV        0.000 16.000
                            Buckingham rho  0.32564600    Ang       
                            Buckingham C     16.808599    eV*Ang^6  
--------------------------------------------------------------------------------
Ge   c O3   s Buckingham    Buckingham A     1497.3996    eV        0.000 16.000
                            Buckingham rho  0.32564600    Ang       
                            Buckingham C     16.808599    eV*Ang^6  
--------------------------------------------------------------------------------
O1   s O1   s Buckingham    Buckingham A     22764.000    eV        0.000 16.000
                            Buckingham rho  0.14900000    Ang       
                            Buckingham C     10.937044    eV*Ang^6  
--------------------------------------------------------------------------------
O1   s O2   s Buckingham    Buckingham A     22764.000    eV        0.000 16.000
                            Buckingham rho  0.14900000    Ang       
                            Buckingham C     10.937044    eV*Ang^6  
--------------------------------------------------------------------------------
O1   s O3   s Buckingham    Buckingham A     22764.000    eV        0.000 16.000
                            Buckingham rho  0.14900000    Ang       
                            Buckingham C     10.937044    eV*Ang^6  
--------------------------------------------------------------------------------
O2   s O2   s Buckingham    Buckingham A     22764.000    eV        0.000 16.000
                            Buckingham rho  0.14900000    Ang       
                            Buckingham C     10.937044    eV*Ang^6  
--------------------------------------------------------------------------------
O2   s O3   s Buckingham    Buckingham A     22764.000    eV        0.000 16.000
                            Buckingham rho  0.14900000    Ang       
                            Buckingham C     10.937044    eV*Ang^6  
--------------------------------------------------------------------------------
O3   s O3   s Buckingham    Buckingham A     22764.000    eV        0.000 16.000
                            Buckingham rho  0.14900000    Ang       
                            Buckingham C     10.937044    eV*Ang^6  
--------------------------------------------------------------------------------
O1   c O1   s Spring (c-s)  Spring k 2       180.31577    eV*Ang^-2 0.000  0.800
                            Spring k 4       0.0000000    eV*Ang^-4 
--------------------------------------------------------------------------------
O2   c O2   s Spring (c-s)  Spring k 2       75.969800    eV*Ang^-2 0.000  0.800
                            Spring k 4       0.0000000    eV*Ang^-4 
--------------------------------------------------------------------------------
O3   c O3   s Spring (c-s)  Spring k 2       128.14270    eV*Ang^-2 0.000  0.800
                            Spring k 4       0.0000000    eV*Ang^-4 
--------------------------------------------------------------------------------

  General Three-body potentials :

--------------------------------------------------------------------------------
  Atoms       Potential      Parameter       Value         Units   Cutoffs(Ang)
  1 / 2 / 3                                                          Min /  Max 
--------------------------------------------------------------------------------
Si    core    Harmonic      Three-body cnst  1.2614000    eV*rad^-2 0.000  1.900
O1    shel                  Three-body angl  109.47000    degrees   0.000  1.900
O1    shel                  Three-body k4    0.0000000    eV*rad^-4 0.000  3.500
                            Three-body k3    0.0000000    eV*rad^-3 
--------------------------------------------------------------------------------
Si    core    Harmonic      Three-body cnst  1.2614000    eV*rad^-2 0.000  1.900
O1    shel                  Three-body angl  109.47000    degrees   0.000  1.900
õ(1   shel                  Three-body k4    0.0000000    eV*rad^-4 0.000  3.500
                            Three-body k3    0.0000000    eV*rad^-3 
--------------------------------------------------------------------------------
Si    core    Harmonic      Three-body cnst  1.2614000    eV*rad^-2 0.000  1.900
õ(1   shel                  Three-body angl  109.47000    degrees   0.000  1.900
õ(1   shel                  Three-body k4    0.0000000    eV*rad^-4 0.000  3.500
                            Three-body k3    0.0000000    eV*rad^-3 
--------------------------------------------------------------------------------
Si    core    Harmonic      Three-body cnst  1.2614000    eV*rad^-2 0.000  1.900
O1    shel                  Three-body angl  109.47000    degrees   0.000  1.900
O2    shel                  Three-body k4    0.0000000    eV*rad^-4 0.000  3.500
                            Three-body k3    0.0000000    eV*rad^-3 
--------------------------------------------------------------------------------
Si    core    Harmonic      Three-body cnst  1.2614000    eV*rad^-2 0.000  1.900
O1    shel                  Three-body angl  109.47000    degrees   0.000  1.900
õ(2   shel                  Three-body k4    0.0000000    eV*rad^-4 0.000  3.500
                            Three-body k3    0.0000000    eV*rad^-3 
--------------------------------------------------------------------------------
Si    core    Harmonic      Three-body cnst  1.2614000    eV*rad^-2 0.000  1.900
O2    shel                  Three-body angl  109.47000    degrees   0.000  1.900
õ(1   shel                  Three-body k4    0.0000000    eV*rad^-4 0.000  3.500
                            Three-body k3    0.0000000    eV*rad^-3 
--------------------------------------------------------------------------------
Si    core    Harmonic      Three-body cnst  1.2614000    eV*rad^-2 0.000  1.900
õ(1   shel                  Three-body angl  109.47000    degrees   0.000  1.900
õ(2   shel                  Three-body k4    0.0000000    eV*rad^-4 0.000  3.500
                            Three-body k3    0.0000000    eV*rad^-3 
--------------------------------------------------------------------------------
Si    core    Harmonic      Three-body cnst  1.2614000    eV*rad^-2 0.000  1.900
O2    shel                  Three-body angl  109.47000    degrees   0.000  1.900
O2    shel                  Three-body k4    0.0000000    eV*rad^-4 0.000  3.500
                            Three-body k3    0.0000000    eV*rad^-3 
--------------------------------------------------------------------------------
Si    core    Harmonic      Three-body cnst  1.2614000    eV*rad^-2 0.000  1.900
O2    shel                  Three-body angl  109.47000    degrees   0.000  1.900
õ(2   shel                  Three-body k4    0.0000000    eV*rad^-4 0.000  3.500
                            Three-body k3    0.0000000    eV*rad^-3 
--------------------------------------------------------------------------------
Si    core    Harmonic      Three-body cnst  1.2614000    eV*rad^-2 0.000  1.900
õ(2   shel                  Three-body angl  109.47000    degrees   0.000  1.900
õ(2   shel                  Three-body k4    0.0000000    eV*rad^-4 0.000  3.500
                            Three-body k3    0.0000000    eV*rad^-3 
--------------------------------------------------------------------------------

********************************************************************************
*  Output for configuration   1 : c00067.vasp                                  *
********************************************************************************


  Components of energy : 

--------------------------------------------------------------------------------
  Interatomic potentials     =         760.30861002 eV    
  Three-body potentials      =           0.01465662 eV    
  Monopole - monopole (real) =       -2676.00317478 eV    
  Monopole - monopole (recip)=       -1115.35404472 eV    
  Monopole - monopole (total)=       -3791.35721950 eV    
--------------------------------------------------------------------------------
  Total lattice energy       =       -3031.03395286 eV    
--------------------------------------------------------------------------------
  Total lattice energy       =         -292448.4429 kJ/(mole unit cells)
--------------------------------------------------------------------------------


  Number of variables =      363

  Maximum number of calculations  =          1000
  Maximum Hessian update interval =            10
  Maximum step size               =   0.100000000
  Maximum parameter tolerance     =   0.000010000
  Maximum function  tolerance     =   0.000010000
  Maximum gradient  tolerance     =   0.001000000
  Maximum gradient  component     =   0.010000000

  Symmetry not applied to optimisation

  Cell parameters to be optimised using strains

  Newton-Raphson optimiser to be used

  BFGS hessian update to be used

  Lower half triangular hessian to be used

  Minimiser to switch to RFO
  When gradient norm is less than     0.050000

  Dumpfile to be written after every cycle

  Start of bulk optimisation :

  Cycle:      0 Energy:     -3031.033953  Gnorm:      4.400235  CPU:    0.101
  ** Hessian calculated **
  Cycle:      1 Energy:     -3043.360225  Gnorm:      3.575891  CPU:    0.277
  ** Hessian calculated **
  Cycle:      2 Energy:     -3063.534762  Gnorm:      0.791948  CPU:    0.464
  ** Hessian calculated **
  Cycle:      3 Energy:     -3065.748145  Gnorm:      0.551098  CPU:    0.669
  Cycle:      4 Energy:     -3066.887200  Gnorm:      0.327966  CPU:    0.785
  ** Hessian calculated **
  Cycle:      5 Energy:     -3067.177560  Gnorm:      0.176480  CPU:    0.970
  Cycle:      6 Energy:     -3067.263708  Gnorm:      0.113185  CPU:    1.069
  Cycle:      7 Energy:     -3067.334755  Gnorm:      0.091871  CPU:    1.184
  Cycle:      8 Energy:     -3067.408218  Gnorm:      0.077354  CPU:    1.300
  Cycle:      9 Energy:     -3067.472898  Gnorm:      0.068511  CPU:    1.415
  Cycle:     10 Energy:     -3067.505460  Gnorm:      0.054925  CPU:    1.514
  Cycle:     11 Energy:     -3067.527328  Gnorm:      0.044686  CPU:    1.611
  ** Hessian has required structure
  Cycle:     12 Energy:     -3067.537374  Gnorm:      0.072405  CPU:    1.748
  ** Hessian has required structure
  Cycle:     13 Energy:     -3067.549063  Gnorm:      0.070949  CPU:    1.884
  ** Hessian has required structure
  Cycle:     14 Energy:     -3067.560326  Gnorm:      0.084422  CPU:    2.023
  ** Hessian has wrong structure
  ** Imaginary eigenvectors =   4
  Cycle:     15 Energy:     -3067.592930  Gnorm:      0.084368  CPU:    2.474
  ** Hessian has wrong structure
  ** Imaginary eigenvectors =   3
  ** Hessian has wrong structure
  ** Imaginary eigenvectors =   3
  Cycle:     16 Energy:     -3067.643323  Gnorm:      0.086210  CPU:    3.029
  ** Hessian has wrong structure
  ** Imaginary eigenvectors =   3
  Cycle:     17 Energy:     -3067.651376  Gnorm:      0.089322  CPU:    3.363
  ** Hessian has wrong structure
  ** Imaginary eigenvectors =   3
  Cycle:     18 Energy:     -3067.661600  Gnorm:      0.091450  CPU:    3.633
  ** Hessian has wrong structure
  ** Imaginary eigenvectors =   3
  ** Hessian has wrong structure
  ** Imaginary eigenvectors =   1
  Cycle:     19 Energy:     -3067.841269  Gnorm:      0.082374  CPU:    4.113
  ** Hessian has wrong structure
  ** Imaginary eigenvectors =   1
  Cycle:     20 Energy:     -3067.924492  Gnorm:      0.079700  CPU:    4.355
  ** Hessian has required structure
  Cycle:     21 Energy:     -3068.043690  Gnorm:      0.044119  CPU:    4.609
  ** Hessian has required structure
  Cycle:     22 Energy:     -3068.089287  Gnorm:      0.028364  CPU:    4.781
  ** Hessian has required structure
  Cycle:     23 Energy:     -3068.109954  Gnorm:      0.014124  CPU:    4.934
  ** Hessian has required structure
  Cycle:     24 Energy:     -3068.121179  Gnorm:      0.021226  CPU:    5.131
  ** Hessian has required structure
  Cycle:     25 Energy:     -3068.131586  Gnorm:      0.013970  CPU:    5.305
  ** Hessian has required structure
  Cycle:     26 Energy:     -3068.137474  Gnorm:      0.009531  CPU:    5.479
  ** Hessian has required structure
  Cycle:     27 Energy:     -3068.140862  Gnorm:      0.008383  CPU:    5.633
  ** Hessian has required structure
  Cycle:     28 Energy:     -3068.143420  Gnorm:      0.006184  CPU:    5.787
  ** Hessian has required structure
  Cycle:     29 Energy:     -3068.144979  Gnorm:      0.006295  CPU:    5.958
  ** Hessian has required structure
  Cycle:     30 Energy:     -3068.146524  Gnorm:      0.006732  CPU:    6.128
  ** Hessian has required structure
  Cycle:     31 Energy:     -3068.149797  Gnorm:      0.007529  CPU:    6.381
  ** Hessian has required structure
  Cycle:     32 Energy:     -3068.153412  Gnorm:      0.012094  CPU:    6.554
  ** Hessian has required structure
  Cycle:     33 Energy:     -3068.156328  Gnorm:      0.011702  CPU:    6.725
  ** Hessian has required structure
  Cycle:     34 Energy:     -3068.158908  Gnorm:      0.007226  CPU:    6.896
  ** Hessian has required structure
  Cycle:     35 Energy:     -3068.160469  Gnorm:      0.007602  CPU:    7.067
  ** Hessian has required structure
  Cycle:     36 Energy:     -3068.162405  Gnorm:      0.003928  CPU:    7.242
  ** Hessian has required structure
  Cycle:     37 Energy:     -3068.163108  Gnorm:      0.003607  CPU:    7.405
  ** Hessian has required structure
  Cycle:     38 Energy:     -3068.163588  Gnorm:      0.002326  CPU:    7.563
  ** Hessian has required structure
  Cycle:     39 Energy:     -3068.163778  Gnorm:      0.001131  CPU:    7.720
  ** Hessian has required structure
  Cycle:     40 Energy:     -3068.163888  Gnorm:      0.001213  CPU:    7.895
  ** Hessian has required structure
  Cycle:     41 Energy:     -3068.163936  Gnorm:      0.000640  CPU:    8.155
  ** Hessian has required structure
  Cycle:     42 Energy:     -3068.163950  Gnorm:      0.000349  CPU:    8.329
  ** Hessian has required structure
  Cycle:     43 Energy:     -3068.163955  Gnorm:      0.000250  CPU:    8.468
  ** Hessian has required structure
  Cycle:     44 Energy:     -3068.163957  Gnorm:      0.000201  CPU:    8.606
  ** Hessian has required structure
  Cycle:     45 Energy:     -3068.163957  Gnorm:      0.000189  CPU:    8.744
  ** Hessian has required structure
  Cycle:     46 Energy:     -3068.163957  Gnorm:      0.000182  CPU:    8.884
  ** Hessian has required structure
  Cycle:     47 Energy:     -3068.163957  Gnorm:      0.000183  CPU:    9.077
  ** Hessian has required structure
  Cycle:     48 Energy:     -3068.163957  Gnorm:      0.000183  CPU:    9.254
  ** Hessian has required structure
  Cycle:     49 Energy:     -3068.163957  Gnorm:      0.000183  CPU:    9.428
  ** Hessian has required structure
  Cycle:     50 Energy:     -3068.163957  Gnorm:      0.000183  CPU:    9.706
  ** Hessian calculated **
  Cycle:     51 Energy:     -3068.163957  Gnorm:      0.000116  CPU:    9.878
  ** Hessian has required structure
  Cycle:     52 Energy:     -3068.163957  Gnorm:      0.000212  CPU:   10.020
  ** Hessian has required structure
  Cycle:     53 Energy:     -3068.163957  Gnorm:      0.000218  CPU:   10.162
  ** Hessian has required structure
  Cycle:     54 Energy:     -3068.163957  Gnorm:      0.000172  CPU:   10.304
  ** Hessian has required structure
  Cycle:     55 Energy:     -3068.163957  Gnorm:      0.000136  CPU:   10.445
  ** Hessian has required structure
  Cycle:     56 Energy:     -3068.163957  Gnorm:      0.000125  CPU:   10.587
  ** Hessian has required structure
  Cycle:     57 Energy:     -3068.163957  Gnorm:      0.000119  CPU:   10.728
  ** Hessian has required structure
  Cycle:     58 Energy:     -3068.163957  Gnorm:      0.000120  CPU:   10.868
  ** Hessian has required structure
  Cycle:     59 Energy:     -3068.163957  Gnorm:      0.000117  CPU:   11.007
  ** Hessian has required structure
  Cycle:     60 Energy:     -3068.163957  Gnorm:      0.000120  CPU:   11.147
  ** Hessian has required structure
  Cycle:     61 Energy:     -3068.163958  Gnorm:      0.000106  CPU:   11.375
  ** Hessian has required structure
  Cycle:     62 Energy:     -3068.163958  Gnorm:      0.000102  CPU:   11.518
  ** Hessian has required structure
  Cycle:     63 Energy:     -3068.163958  Gnorm:      0.000101  CPU:   11.660
  ** Hessian has required structure
  Cycle:     64 Energy:     -3068.163958  Gnorm:      0.000101  CPU:   11.802
  ** Hessian has required structure
  Cycle:     65 Energy:     -3068.163958  Gnorm:      0.000101  CPU:   11.944
  ** Hessian has required structure
  Cycle:     66 Energy:     -3068.163958  Gnorm:      0.000100  CPU:   12.073
  ** Hessian has required structure
  Cycle:     67 Energy:     -3068.163958  Gnorm:      0.000100  CPU:   12.200
  ** Hessian has required structure
  Cycle:     68 Energy:     -3068.163958  Gnorm:      0.000100  CPU:   12.327
  ** Hessian has required structure
  Cycle:     69 Energy:     -3068.163958  Gnorm:      0.000100  CPU:   12.456
  ** Hessian has required structure
  Cycle:     70 Energy:     -3068.163958  Gnorm:      0.000100  CPU:   12.584
  ** Hessian has required structure
  Cycle:     71 Energy:     -3068.163958  Gnorm:      0.000101  CPU:   12.897
  ** Hessian has required structure
  Cycle:     72 Energy:     -3068.163958  Gnorm:      0.000101  CPU:   13.025
  ** Hessian has required structure
  Cycle:     73 Energy:     -3068.163958  Gnorm:      0.000100  CPU:   13.155
  ** Hessian has required structure
  Cycle:     74 Energy:     -3068.163958  Gnorm:      0.000100  CPU:   13.285
  ** Hessian has required structure
  Cycle:     75 Energy:     -3068.163958  Gnorm:      0.000100  CPU:   13.414
  ** Hessian has required structure
  Cycle:     76 Energy:     -3068.163957  Gnorm:      0.000099  CPU:   13.629
  ** Hessian has required structure


  **** Optimisation achieved ****


  Final energy =   -3068.16395902 eV      
  Final Gnorm  =       0.00006943

  Components of energy : 

--------------------------------------------------------------------------------
  Interatomic potentials     =         815.55518730 eV    
  Three-body potentials      =           0.21708367 eV    
  Monopole - monopole (real) =       -2206.43736312 eV    
  Monopole - monopole (recip)=       -1677.49886687 eV    
  Monopole - monopole (total)=       -3883.93622999 eV    
--------------------------------------------------------------------------------
  Total lattice energy       =       -3068.16395902 eV    
--------------------------------------------------------------------------------
  Total lattice energy       =         -296030.9209 kJ/(mole unit cells)
--------------------------------------------------------------------------------

  Final fractional coordinates of atoms :

--------------------------------------------------------------------------------
   No.  Atomic        x           y          z          Radius
        Label       (Frac)      (Frac)     (Frac)       (Angs) 
--------------------------------------------------------------------------------
     1  Ge    c     0.052090    0.000000    0.372270    0.000000
     2  Ge    c     0.157119    0.314114    0.294012    0.000000
     3  Ge    c     0.332100    0.260536    0.973431    0.000000
     4  Si    c     0.456213    0.973950    0.372204    0.000000
     5  Si    c     0.951466    0.973967    0.630864    0.000000
     6  Si    c     0.554182    0.972440    0.634415    0.000000
     7  Si    c     0.555891    0.984052    0.120546    0.000000
     8  Si    c     0.946257    0.972843    0.110960    0.000000
     9  Si    c     0.443821    0.971793    0.879705    0.000000
    10  Si    c     0.057745    0.990885    0.876239    0.000000
    11  Si    c     0.354734    0.668646    0.276560    0.000000
    12  Si    c     0.845361    0.278241    0.726170    0.000000
    13  Si    c     0.660895    0.669559    0.716821    0.000000
    14  Si    c     0.839775    0.680648    0.727005    0.000000
    15  Si    c     0.665394    0.266454    0.720231    0.000000
    16  Si    c     0.174829    0.720423    0.285633    0.000000
    17  Si    c     0.338656    0.265382    0.284724    0.000000
    18  Si    c     0.664980    0.271361    0.023945    0.000000
    19  Si    c     0.835023    0.682919    0.032253    0.000000
    20  Si    c     0.169470    0.703661    0.982633    0.000000
    21  Si    c     0.350596    0.662425    0.975046    0.000000
    22  Si    c     0.150704    0.303865    0.982592    0.000000
    23  Si    c     0.655886    0.671339    0.021484    0.000000
    24  Si    c     0.845269    0.284549    0.030455    0.000000
    25  O1    c     0.089521    0.205443    0.382455    0.000000
    26  O2    c     0.413338    0.787191    0.361149    0.000000
    27  O2    c     0.901947    0.154239    0.643284    0.000000
    28  O2    c     0.604736    0.792688    0.630188    0.000000
    29  O2    c     0.895958    0.808372    0.651290    0.000000
    30  O2    c     0.612343    0.137190    0.634741    0.000000
    31  O3    c     0.134368    0.864920    0.373931    0.000000
    32  O2    c     0.394256    0.133402    0.365477    0.000000
    33  O3    c     0.984521    0.957658    0.488061    0.000000
    34  O2    c     0.498334    0.983217    0.510763    0.000000
    35  O3    c     0.006845    0.956007    0.225400    0.000000
    36  O2    c     0.521527    0.991800    0.263497    0.000000
    37  O2    c     0.025419    0.976147    0.729264    0.000000
    38  O2    c     0.501674    0.977067    0.761241    0.000000
    39  O2    c     0.618182    0.139052    0.112210    0.000000
    40  O2    c     0.883022    0.818309    0.120069    0.000000
    41  O3    c     0.376639    0.116878    0.868333    0.000000
    42  O2    c     0.126628    0.846128    0.891657    0.000000
    43  O2    c     0.404165    0.781330    0.885181    0.000000
    44  O2    c     0.088777    0.187589    0.900704    0.000000
    45  O2    c     0.596835    0.794907    0.099720    0.000000
    46  O2    c     0.901121    0.161068    0.117558    0.000000
    47  O2    c     0.488316    0.019179    0.014639    0.000000
    48  O2    c     0.988791    0.948100    0.973582    0.000000
    49  O3    c     0.137363    0.533598    0.313088    0.000000
    50  O2    c     0.373102    0.462722    0.295900    0.000000
    51  O2    c     0.864828    0.480051    0.695773    0.000000
    52  O2    c     0.641311    0.466784    0.687858    0.000000
    53  O3    c     0.252251    0.265016    0.341054    0.000000
    54  O2    c     0.266761    0.709432    0.320563    0.000000
    55  O2    c     0.756135    0.236334    0.686866    0.000000
    56  O2    c     0.750204    0.709820    0.681012    0.000000
    57  O3    c     0.146132    0.250474    0.132607    0.000000
    58  O2    c     0.364916    0.718646    0.125544    0.000000
    59  O2    c     0.859545    0.240965    0.878807    0.000000
    60  O2    c     0.646735    0.712886    0.868571    0.000000
    61  O2    c     0.846262    0.721388    0.880117    0.000000
    62  O2    c     0.652471    0.224671    0.871978    0.000000
    63  O2    c     0.164240    0.766827    0.132297    0.000000
    64  O3    c     0.336376    0.203246    0.135159    0.000000
    65  O2    c     0.634843    0.469779    0.050041    0.000000
    66  O2    c     0.865240    0.485994    0.063642    0.000000
    67  O3    c     0.373954    0.463169    0.952448    0.000000
    68  O2    c     0.130450    0.512156    0.967043    0.000000
    69  O2    c     0.755484    0.250437    0.063348    0.000000
    70  O2    c     0.744365    0.705935    0.067836    0.000000
    71  O3    c     0.235536    0.267920    0.926466    0.000000
    72  O2    c     0.259257    0.691746    0.939416    0.000000
    73  O1    s     0.091800    0.197672    0.374881    0.000000
    74  O2    s     0.411431    0.794034    0.352951    0.000000
    75  O2    s     0.900872    0.148904    0.651319    0.000000
    76  O2    s     0.605572    0.798233    0.640260    0.000000
    77  O2    s     0.895565    0.811837    0.657814    0.000000
    78  O2    s     0.612069    0.134026    0.644319    0.000000
    79  O3    s     0.132140    0.860371    0.364568    0.000000
    80  O2    s     0.394897    0.130427    0.357322    0.000000
    81  O3    s     0.986933    0.963148    0.493233    0.000000
    82  O2    s     0.500080    0.980830    0.509309    0.000000
    83  O3    s     0.003777    0.961654    0.224840    0.000000
    84  O2    s     0.518161    0.988879    0.259090    0.000000
    85  O2    s     0.021053    0.977570    0.734820    0.000000
    86  O2    s     0.500807    0.975930    0.760830    0.000000
    87  O2    s     0.616725    0.137220    0.102936    0.000000
    88  O2    s     0.884292    0.819368    0.109168    0.000000
    89  O3    s     0.379773    0.114154    0.878318    0.000000
    90  O2    s     0.124026    0.845873    0.900117    0.000000
    91  O2    s     0.402539    0.788555    0.894457    0.000000
    92  O2    s     0.092024    0.179098    0.906790    0.000000
    93  O2    s     0.599092    0.801344    0.093038    0.000000
    94  O2    s     0.899648    0.155343    0.107353    0.000000
    95  O2    s     0.491048    0.010434    0.012119    0.000000
    96  O2    s     0.991878    0.955555    0.977614    0.000000
    97  O3    s     0.142739    0.533868    0.308782    0.000000
    98  O2    s     0.367606    0.464659    0.292666    0.000000
    99  O2    s     0.860066    0.479727    0.702342    0.000000
   100  O2    s     0.646018    0.467184    0.694449    0.000000
   101  O3    s     0.253312    0.268900    0.331777    0.000000
   102  O2    s     0.266540    0.706148    0.312062    0.000000
   103  O2    s     0.755928    0.244102    0.694667    0.000000
   104  O2    s     0.750224    0.702388    0.689719    0.000000
   105  O3    s     0.147432    0.260713    0.130518    0.000000
   106  O2    s     0.362350    0.707624    0.125873    0.000000
   107  O2    s     0.856499    0.249547    0.878607    0.000000
   108  O2    s     0.649227    0.703861    0.868826    0.000000
   109  O2    s     0.844293    0.712720    0.879864    0.000000
   110  O2    s     0.655191    0.234077    0.872060    0.000000
   111  O2    s     0.165887    0.755472    0.132053    0.000000
   112  O3    s     0.336254    0.213985    0.136500    0.000000
   113  O2    s     0.640291    0.470250    0.044202    0.000000
   114  O2    s     0.859900    0.485189    0.056760    0.000000
   115  O3    s     0.368157    0.467672    0.956492    0.000000
   116  O2    s     0.136506    0.511073    0.970230    0.000000
   117  O2    s     0.755398    0.256551    0.055381    0.000000
   118  O2    s     0.744573    0.699633    0.058943    0.000000
   119  O3    s     0.234880    0.270971    0.936055    0.000000
   120  O2    s     0.259196    0.689870    0.947859    0.000000
--------------------------------------------------------------------------------

  Final Cartesian lattice vectors (Angstroms) :

       17.148258    0.105716   -0.113743
        0.046592    7.624544   -0.025886
       -0.069779   -0.033815   10.265495


  Final cell parameters and derivatives :

--------------------------------------------------------------------------------
       a           17.148961 Angstrom     dE/de1(xx)     0.007089 eV/strain
       b            7.624730 Angstrom     dE/de2(yy)     0.005359 eV/strain
       c           10.265788 Angstrom     dE/de3(zz)     0.006538 eV/strain
       alpha       90.385622 Degrees      dE/de4(yz)    -0.000098 eV/strain
       beta        90.770636 Degrees      dE/de5(xz)    -0.000656 eV/strain
       gamma       89.295395 Degrees      dE/de6(xy)    -0.000539 eV/strain
--------------------------------------------------------------------------------

  Primitive cell volume =          1342.063532 Angs**3

  Density of cell =      1.949674 g/cm**3

  Non-primitive cell volume =          1342.063532 Angs**3


  Final internal derivatives :

--------------------------------------------------------------------------------
   No.  Atomic          a             b             c           Radius
        Label          (eV)          (eV)          (eV)        (eV/Angs)
--------------------------------------------------------------------------------
      1 Ge    c       0.000000      0.000000      0.000000      0.000000
      2 Ge    c       0.000293      0.000132      0.000863      0.000000
      3 Ge    c       0.000063     -0.000227      0.000641      0.000000
      4 Si    c      -0.001966     -0.000475      0.000591      0.000000
      5 Si    c       0.000633     -0.000154     -0.001193      0.000000
      6 Si    c       0.002002      0.000053      0.001978      0.000000
      7 Si    c      -0.001292      0.000181     -0.000437      0.000000
      8 Si    c      -0.004177     -0.000292     -0.001554      0.000000
      9 Si    c      -0.000323     -0.000358      0.002493      0.000000
     10 Si    c       0.000387      0.000032     -0.001097      0.000000
     11 Si    c       0.001630      0.000424      0.000528      0.000000
     12 Si    c       0.000296      0.000138     -0.000500      0.000000
     13 Si    c      -0.001468      0.000371     -0.000902      0.000000
     14 Si    c       0.000897     -0.000040     -0.000166      0.000000
     15 Si    c      -0.001221     -0.000703     -0.001018      0.000000
     16 Si    c       0.000534     -0.000090      0.000786      0.000000
     17 Si    c       0.001440      0.000055     -0.000278      0.000000
     18 Si    c      -0.001176     -0.000142      0.000566      0.000000
     19 Si    c       0.001820      0.001148      0.000339      0.000000
     20 Si    c      -0.000379      0.000082     -0.000897      0.000000
     21 Si    c       0.001514      0.001046     -0.001053      0.000000
     22 Si    c      -0.000112     -0.000230     -0.001087      0.000000
     23 Si    c      -0.001166      0.000176      0.000920      0.000000
     24 Si    c       0.001067     -0.000751      0.000659      0.000000
     25 O1    c      -0.002153     -0.000249      0.000629      0.000000
     26 O2    c       0.000694      0.000235     -0.000502      0.000000
     27 O2    c       0.000116      0.000313      0.000103      0.000000
     28 O2    c      -0.000495     -0.000475     -0.000727      0.000000
     29 O2    c      -0.000509     -0.000620      0.000362      0.000000
     30 O2    c      -0.000230      0.000479     -0.000516      0.000000
     31 O3    c       0.001553     -0.000209      0.000265      0.000000
     32 O2    c      -0.000057      0.000559     -0.000189      0.000000
     33 O3    c      -0.005739     -0.000209      0.003524      0.000000
     34 O2    c      -0.004202      0.000190     -0.000452      0.000000
     35 O3    c       0.004943     -0.000386      0.003802      0.000000
     36 O2    c       0.003519     -0.000171     -0.001052      0.000000
     37 O2    c       0.002006      0.000004     -0.000232      0.000000
     38 O2    c       0.005970     -0.000411     -0.000736      0.000000
     39 O2    c       0.000088      0.000325      0.000591      0.000000
     40 O2    c       0.000278     -0.000565     -0.000053      0.000000
     41 O3    c      -0.000351      0.000564     -0.003163      0.000000
     42 O2    c       0.000735      0.000153     -0.000265      0.000000
     43 O2    c      -0.001149     -0.001133     -0.000105      0.000000
     44 O2    c       0.000430      0.000084      0.000115      0.000000
     45 O2    c      -0.000495     -0.000426      0.000400      0.000000
     46 O2    c      -0.000471      0.000750      0.000170      0.000000
     47 O2    c      -0.003950      0.000572      0.000089      0.000000
     48 O2    c      -0.002644     -0.000289     -0.000823      0.000000
     49 O3    c       0.003422      0.000672     -0.000101      0.000000
     50 O2    c       0.001191     -0.000153     -0.000159      0.000000
     51 O2    c       0.000457      0.000143     -0.000121      0.000000
     52 O2    c      -0.000831     -0.000122      0.000165      0.000000
     53 O3    c      -0.003074     -0.000035      0.000788      0.000000
     54 O2    c      -0.001494     -0.000116      0.000253      0.000000
     55 O2    c       0.000117     -0.000017     -0.000204      0.000000
     56 O2    c       0.000910     -0.000013     -0.000315      0.000000
     57 O3    c       0.000475     -0.000174      0.000029      0.000000
     58 O2    c       0.000704      0.000123      0.000203      0.000000
     59 O2    c       0.000311     -0.000074      0.000241      0.000000
     60 O2    c      -0.000467      0.000082     -0.000275      0.000000
     61 O2    c       0.000226      0.000043      0.000365      0.000000
     62 O2    c      -0.000529     -0.000040      0.000027      0.000000
     63 O2    c       0.000029      0.000183      0.000223      0.000000
     64 O3    c       0.000910     -0.000034     -0.001078      0.000000
     65 O2    c      -0.001426      0.000121     -0.000013      0.000000
     66 O2    c       0.001202      0.000036     -0.000323      0.000000
     67 O3    c       0.001237     -0.000748      0.000403      0.000000
     68 O2    c      -0.001043      0.000367     -0.000031      0.000000
     69 O2    c       0.000352      0.000108      0.000126      0.000000
     70 O2    c      -0.000350      0.000028      0.000154      0.000000
     71 O3    c      -0.000475     -0.000155     -0.000025      0.000000
     72 O2    c       0.000745     -0.000072     -0.000244      0.000000
     73 O1    s       0.000711      0.000213     -0.000319      0.000000
     74 O2    s      -0.000255      0.000091      0.000307      0.000000
     75 O2    s       0.000705     -0.000168      0.000142      0.000000
     76 O2    s       0.000630      0.000800     -0.000877      0.000000
     77 O2    s       0.001143      0.000393      0.000070      0.000000
     78 O2    s      -0.000000     -0.000544     -0.000941      0.000000
     79 O3    s      -0.001842      0.000458      0.000629      0.000000
     80 O2    s      -0.000483     -0.000786      0.000011      0.000000
     81 O3    s       0.004543      0.000715     -0.003875      0.000000
     82 O2    s       0.003385     -0.000171      0.000517      0.000000
     83 O3    s      -0.000376      0.000066     -0.004393      0.000000
     84 O2    s      -0.001666     -0.000425      0.001601      0.000000
     85 O2    s      -0.001729      0.000172     -0.000005      0.000000
     86 O2    s      -0.003237      0.000204     -0.000033      0.000000
     87 O2    s      -0.000690     -0.000357     -0.000445      0.000000
     88 O2    s      -0.000920     -0.000098      0.001156      0.000000
     89 O3    s      -0.000574      0.000282      0.000709      0.000000
     90 O2    s      -0.001091      0.000249      0.000489      0.000000
     91 O2    s       0.000961     -0.000168     -0.000197      0.000000
     92 O2    s      -0.001513      0.000198      0.000398      0.000000
     93 O2    s       0.000096      0.000180     -0.000432      0.000000
     94 O2    s       0.000129     -0.000222      0.000592      0.000000
     95 O2    s       0.003743     -0.000220      0.000331      0.000000
     96 O2    s       0.002838      0.000190     -0.000195      0.000000
     97 O3    s      -0.005851     -0.000342      0.000135      0.000000
     98 O2    s      -0.000732     -0.000088      0.000525      0.000000
     99 O2    s       0.000816     -0.000157     -0.000136      0.000000
    100 O2    s       0.000614      0.000181     -0.000193      0.000000
    101 O3    s       0.002557     -0.000098     -0.000048      0.000000
    102 O2    s       0.000806      0.000285      0.000084      0.000000
    103 O2    s      -0.000838     -0.000249      0.000043      0.000000
    104 O2    s      -0.001385      0.000220      0.000125      0.000000
    105 O3    s      -0.001769     -0.000316      0.000267      0.000000
    106 O2    s      -0.000949      0.000294     -0.000233      0.000000
    107 O2    s       0.000343     -0.000156      0.000199      0.000000
    108 O2    s       0.000416      0.000126     -0.000079      0.000000
    109 O2    s      -0.000035      0.000109     -0.000095      0.000000
    110 O2    s       0.000155     -0.000210     -0.000206      0.000000
    111 O2    s      -0.000987      0.000174      0.000056      0.000000
    112 O3    s      -0.001769     -0.000187      0.000700      0.000000
    113 O2    s       0.000634      0.000077      0.000037      0.000000
    114 O2    s      -0.000384     -0.000226      0.000625      0.000000
    115 O3    s      -0.000518      0.000026     -0.000194      0.000000
    116 O2    s      -0.000992     -0.000178      0.000092      0.000000
    117 O2    s       0.001076     -0.000197     -0.000111      0.000000
    118 O2    s       0.000497      0.000226      0.000226      0.000000
    119 O3    s       0.000490     -0.000058     -0.000428      0.000000
    120 O2    s      -0.000026      0.000059      0.000254      0.000000
--------------------------------------------------------------------------------
  Maximum abs         0.005970      0.001148      0.004393      0.000000
--------------------------------------------------------------------------------


  Born effective charge tensors : 

-------------------------------------------------------------------------------
  Atom             x           y             z
-------------------------------------------------------------------------------
    1 Ge    x       4.2724      0.3653     -0.0740
            y      -0.1072      3.8991      0.0372
            z      -0.8444     -0.0856      4.5533
-------------------------------------------------------------------------------
    2 Ge    x       4.0426      0.3300     -0.1116
            y       0.3649      4.1591     -0.2839
            z      -0.2667     -0.0824      3.5025
-------------------------------------------------------------------------------
    3 Ge    x       3.9941     -0.4550     -0.1714
            y      -0.0989      4.1763      0.2861
            z      -0.1951      0.0706      3.3457
-------------------------------------------------------------------------------
    4 Si    x       3.4050      0.1237      0.2526
            y      -0.0849      3.2255      0.0162
            z       0.3493      0.0431      3.8436
-------------------------------------------------------------------------------
    5 Si    x       3.5507     -0.0297     -0.4627
            y       0.0596      3.3102     -0.0073
            z      -0.4355      0.1109      4.2279
-------------------------------------------------------------------------------
    6 Si    x       3.4317     -0.0358      0.1071
            y       0.0642      3.2510     -0.0160
            z       0.5808     -0.0524      3.7535
-------------------------------------------------------------------------------
    7 Si    x       3.4688     -0.0884     -0.3079
            y       0.1416      3.2822      0.0193
            z      -0.4239     -0.0029      3.1480
-------------------------------------------------------------------------------
    8 Si    x       3.7515     -0.1309      0.2367
            y       0.0832      3.3046     -0.0629
            z       0.8153     -0.0852      3.2941
-------------------------------------------------------------------------------
    9 Si    x       3.7282     -0.0218     -0.1037
            y      -0.3057      3.4018     -0.0588
            z      -0.6005     -0.0112      3.1012
-------------------------------------------------------------------------------
   10 Si    x       3.5200      0.1392      0.3517
            y      -0.1856      3.2423      0.0234
            z       0.3699      0.0039      3.0657
-------------------------------------------------------------------------------
   11 Si    x       3.1836      0.2521      0.0637
            y       0.2634      3.4029      0.1991
            z       0.1232      0.0411      2.8095
-------------------------------------------------------------------------------
   12 Si    x       3.1899     -0.2253     -0.0675
            y      -0.2496      3.4204      0.1567
            z      -0.0837      0.0773      2.7885
-------------------------------------------------------------------------------
   13 Si    x       3.1687     -0.2435      0.0909
            y      -0.2523      3.4344     -0.1749
            z       0.1188     -0.0801      2.8104
-------------------------------------------------------------------------------
   14 Si    x       3.1980      0.2718     -0.0713
            y       0.2380      3.4568     -0.1365
            z      -0.1285     -0.0809      2.7816
-------------------------------------------------------------------------------
   15 Si    x       3.1807      0.2879      0.1250
            y       0.2283      3.4572      0.1552
            z       0.1214      0.0715      2.8035
-------------------------------------------------------------------------------
   16 Si    x       3.4442     -0.4287     -0.2439
            y      -0.0842      3.8919      0.2718
            z      -0.2103      0.1478      3.0522
-------------------------------------------------------------------------------
   17 Si    x       3.5593     -0.3527     -0.0584
            y      -0.1846      3.6406     -0.1225
            z       0.0545      0.0132      3.1742
-------------------------------------------------------------------------------
   18 Si    x       3.2110      0.2902     -0.1726
            y       0.1466      3.4452     -0.1861
            z      -0.1332     -0.0850      2.7404
-------------------------------------------------------------------------------
   19 Si    x       3.2248      0.2933      0.1378
            y       0.1472      3.4206      0.1493
            z       0.1096      0.0650      2.6931
-------------------------------------------------------------------------------
   20 Si    x       3.2822     -0.3783      0.1755
            y      -0.0755      3.4132     -0.2100
            z       0.1418     -0.0451      2.7060
-------------------------------------------------------------------------------
   21 Si    x       3.3912      0.1982     -0.1619
            y       0.1090      3.7298     -0.1420
            z      -0.1824      0.0124      2.7941
-------------------------------------------------------------------------------
   22 Si    x       3.6627      0.2713     -0.0521
            y       0.2643      3.6265      0.1919
            z       0.0828     -0.0000      3.0623
-------------------------------------------------------------------------------
   23 Si    x       3.2578     -0.2618     -0.1238
            y      -0.2700      3.4133      0.1496
            z      -0.1889      0.0645      2.7320
-------------------------------------------------------------------------------
   24 Si    x       3.2499     -0.2627      0.1259
            y      -0.2473      3.3894     -0.1526
            z       0.1131     -0.0577      2.6876
-------------------------------------------------------------------------------
   25 O1    x      -2.1080     -0.9524      0.4080
            y      -0.9055     -2.5961      0.3855
            z       0.5561      0.3910     -1.6764
-------------------------------------------------------------------------------
   26 O2    x      -1.6501     -0.7241     -0.3392
            y      -0.6575     -1.9959     -0.3508
            z      -0.3539     -0.3401     -1.3657
-------------------------------------------------------------------------------
   27 O2    x      -1.6657      0.6938      0.3285
            y       0.6836     -1.9927     -0.3335
            z       0.3261     -0.3253     -1.3477
-------------------------------------------------------------------------------
   28 O2    x      -1.6526      0.7078     -0.2882
            y       0.6908     -1.9825      0.3120
            z      -0.3618      0.3154     -1.3509
-------------------------------------------------------------------------------
   29 O2    x      -1.7258     -0.7310      0.3423
            y      -0.7539     -2.0016      0.3541
            z       0.3678      0.3452     -1.3303
-------------------------------------------------------------------------------
   30 O2    x      -1.7118     -0.7320     -0.2972
            y      -0.7475     -1.9780     -0.3230
            z      -0.3716     -0.3185     -1.3436
-------------------------------------------------------------------------------
   31 O3    x      -2.1441      0.8903      0.4221
            y       0.9234     -2.2088     -0.5228
            z       0.4895     -0.4793     -1.6310
-------------------------------------------------------------------------------
   32 O2    x      -1.7392      0.7254     -0.3031
            y       0.7319     -1.9710      0.3135
            z      -0.3358      0.3106     -1.3416
-------------------------------------------------------------------------------
   33 O3    x      -1.9200     -0.0833      1.0459
            y      -0.0349     -1.2086      0.0434
            z       1.3256      0.0898     -3.4398
-------------------------------------------------------------------------------
   34 O2    x      -1.6270     -0.0081     -0.8286
            y       0.0099     -1.0868      0.0052
            z      -1.0455      0.0043     -2.7563
-------------------------------------------------------------------------------
   35 O3    x      -2.1094     -0.0117     -1.0318
            y       0.0248     -1.2526     -0.0158
            z      -1.0389     -0.0493     -2.7633
-------------------------------------------------------------------------------
   36 O2    x      -1.6829     -0.0296      0.7214
            y      -0.0323     -1.1124      0.0152
            z       0.6890      0.0237     -2.2665
-------------------------------------------------------------------------------
   37 O2    x      -1.7755     -0.0555     -0.6782
            y       0.0067     -1.1124     -0.0323
            z      -0.6348     -0.0631     -2.1525
-------------------------------------------------------------------------------
   38 O2    x      -1.7583     -0.0383      0.7352
            y      -0.0076     -1.1161      0.0340
            z       0.7326      0.0509     -2.1808
-------------------------------------------------------------------------------
   39 O2    x      -1.7436     -0.7231      0.3754
            y      -0.7036     -1.9416      0.3706
            z       0.3614      0.3507     -1.2610
-------------------------------------------------------------------------------
   40 O2    x      -1.7382     -0.7117     -0.2300
            y      -0.6916     -1.9382     -0.2651
            z      -0.3092     -0.2680     -1.2213
-------------------------------------------------------------------------------
   41 O3    x      -2.1684      0.9626      0.3210
            y       0.9435     -2.2968     -0.3889
            z       0.3588     -0.3279     -1.4244
-------------------------------------------------------------------------------
   42 O2    x      -1.7953      0.7405     -0.4033
            y       0.6774     -1.9148      0.4022
            z      -0.3544      0.3648     -1.2643
-------------------------------------------------------------------------------
   43 O2    x      -1.6803     -0.6604      0.3333
            y      -0.5990     -1.9320      0.3586
            z       0.3793      0.3223     -1.2771
-------------------------------------------------------------------------------
   44 O2    x      -1.6791     -0.7063     -0.3632
            y      -0.5664     -2.0726     -0.3899
            z      -0.3345     -0.3434     -1.2240
-------------------------------------------------------------------------------
   45 O2    x      -1.6902      0.7092      0.3656
            y       0.6480     -2.0290     -0.3791
            z       0.3844     -0.3670     -1.2383
-------------------------------------------------------------------------------
   46 O2    x      -1.6644      0.6883     -0.2675
            y       0.6235     -2.0101      0.2880
            z      -0.3317      0.2855     -1.2287
-------------------------------------------------------------------------------
   47 O2    x      -1.7888     -0.0092     -0.5697
            y       0.0072     -1.2072     -0.0369
            z      -0.3073     -0.0540     -1.7285
-------------------------------------------------------------------------------
   48 O2    x      -1.8594     -0.0598      0.5902
            y      -0.0347     -1.1837      0.0420
            z       0.3325      0.0323     -1.6627
-------------------------------------------------------------------------------
   49 O3    x      -1.4034     -0.1974      0.0854
            y      -0.2609     -3.0277      0.1028
            z       0.1224      0.1057     -1.2137
-------------------------------------------------------------------------------
   50 O2    x      -1.1870     -0.0383     -0.0312
            y      -0.1059     -2.5734      0.0598
            z      -0.0577      0.0696     -1.0649
-------------------------------------------------------------------------------
   51 O2    x      -1.1618      0.0255      0.0556
            y       0.0372     -2.5529     -0.0023
            z       0.0733      0.0122     -1.0638
-------------------------------------------------------------------------------
   52 O2    x      -1.1478      0.0168     -0.0654
            y       0.0276     -2.5537      0.0225
            z      -0.0807      0.0066     -1.0697
-------------------------------------------------------------------------------
   53 O3    x      -2.9653      0.1718      0.1356
            y       0.1108     -1.3949      0.0832
            z       0.1246      0.0380     -1.2595
-------------------------------------------------------------------------------
   54 O2    x      -2.3874      0.1619      0.0212
            y       0.0886     -1.2418     -0.0626
            z       0.0182     -0.0303     -1.1019
-------------------------------------------------------------------------------
   55 O2    x      -2.3870     -0.0493     -0.0221
            y      -0.0178     -1.2455     -0.0655
            z      -0.0193     -0.0475     -1.0611
-------------------------------------------------------------------------------
   56 O2    x      -2.3669     -0.0454     -0.0363
            y      -0.0150     -1.2425      0.0676
            z      -0.0365      0.0495     -1.0767
-------------------------------------------------------------------------------
   57 O3    x      -1.3281     -0.1437     -0.0987
            y      -0.1220     -1.4746      0.0431
            z      -0.0736      0.0355     -2.5981
-------------------------------------------------------------------------------
   58 O2    x      -1.2187     -0.1326      0.0028
            y      -0.1114     -1.2696      0.0169
            z       0.0042      0.0210     -2.0669
-------------------------------------------------------------------------------
   59 O2    x      -1.1998      0.1291     -0.0158
            y       0.1186     -1.2638      0.0023
            z      -0.0209     -0.0058     -2.0451
-------------------------------------------------------------------------------
   60 O2    x      -1.1829      0.1215      0.0505
            y       0.1169     -1.2715     -0.0034
            z       0.0566      0.0073     -2.0747
-------------------------------------------------------------------------------
   61 O2    x      -1.1742     -0.1204      0.0018
            y      -0.0911     -1.2722      0.0077
            z       0.0154     -0.0114     -2.0480
-------------------------------------------------------------------------------
   62 O2    x      -1.1715     -0.1279      0.0342
            y      -0.1007     -1.2826     -0.0224
            z       0.0256     -0.0069     -2.0610
-------------------------------------------------------------------------------
   63 O2    x      -1.2235      0.1387     -0.0734
            y       0.0667     -1.2897     -0.0443
            z      -0.0666     -0.0427     -2.0463
-------------------------------------------------------------------------------
   64 O3    x      -1.3045      0.1304     -0.0629
            y       0.0614     -1.4970     -0.0921
            z      -0.0412     -0.0841     -2.6092
-------------------------------------------------------------------------------
   65 O2    x      -1.2135      0.0290      0.0823
            y       0.0756     -2.5237      0.0197
            z       0.1028      0.0054     -1.0227
-------------------------------------------------------------------------------
   66 O2    x      -1.2118      0.0309     -0.0846
            y       0.0818     -2.4943     -0.0047
            z      -0.0923      0.0056     -1.0244
-------------------------------------------------------------------------------
   67 O3    x      -1.4162      0.0199      0.0978
            y      -0.0865     -3.1405     -0.0479
            z       0.1240     -0.0686     -1.1328
-------------------------------------------------------------------------------
   68 O2    x      -1.2839     -0.1125     -0.0628
            y      -0.1904     -2.5392     -0.0130
            z      -0.0912     -0.0220     -1.0065
-------------------------------------------------------------------------------
   69 O2    x      -2.4147     -0.0453     -0.0157
            y      -0.0374     -1.2365      0.0630
            z      -0.0018      0.0392     -1.0356
-------------------------------------------------------------------------------
   70 O2    x      -2.3954     -0.0342     -0.0325
            y      -0.0193     -1.2336     -0.0643
            z      -0.0054     -0.0415     -1.0493
-------------------------------------------------------------------------------
   71 O3    x      -3.0425      0.1797      0.1236
            y       0.1207     -1.4054     -0.1090
            z       0.0827     -0.0490     -1.2017
-------------------------------------------------------------------------------
   72 O2    x      -2.5032      0.1018      0.0374
            y       0.0519     -1.2259      0.0542
            z       0.0263      0.0110     -1.0611
-------------------------------------------------------------------------------




  Elastic Constant Matrix: (Units=GPa)

-------------------------------------------------------------------------------
  Indices      1         2         3         4         5         6    
-------------------------------------------------------------------------------
       1     51.2271   26.6523   25.2067   -2.0302    2.7010    6.5447
       2     26.6523   76.4146   25.7235   -2.3416    3.6436    6.9239
       3     25.2067   25.7235   27.1316   -1.2180   -1.7759    2.9389
       4     -2.0302   -2.3416   -1.2180   11.5596    1.7194    0.5902
       5      2.7010    3.6436   -1.7759    1.7194   23.3212   -1.3696
       6      6.5447    6.9239    2.9389    0.5902   -1.3696   24.3770
-------------------------------------------------------------------------------


  Elastic Compliance Matrix: (Units=1/GPa)

-------------------------------------------------------------------------------
  Indices      1         2         3         4         5         6    
-------------------------------------------------------------------------------
       1    0.038251 -0.000624 -0.034548  0.004422 -0.007669 -0.006465
       2   -0.000624  0.020116 -0.018280  0.002956 -0.004897 -0.003689
       3   -0.034548 -0.018280  0.086536 -0.002978  0.013954  0.004891
       4    0.004422  0.002956 -0.002978  0.088980 -0.008012 -0.004272
       5   -0.007669 -0.004897  0.013954 -0.008012  0.046455  0.004572
       6   -0.006465 -0.003689  0.004891 -0.004272  0.004572  0.043576
-------------------------------------------------------------------------------

  Mechanical properties :

-------------------------------------------------------------------------------
  Convention :                    Reuss         Voigt         Hill
-------------------------------------------------------------------------------
  Bulk  Modulus (GPa)     =      26.31783      34.43758      30.37770
  Shear Modulus (GPa)     =      11.27430      16.99763      14.13597
-------------------------------------------------------------------------------
  Velocity S-wave (km/s)  =       2.40472       2.95266       2.69266
  Velocity P-wave (km/s)  =       4.60530       5.41179       5.02475
-------------------------------------------------------------------------------
  Compressibility (1/GPa) =    0.03799705
-------------------------------------------------------------------------------
  Stress axis :                     x             y             z
-------------------------------------------------------------------------------
  Youngs Moduli (GPa)     =      26.14299      49.71073      11.55585
-------------------------------------------------------------------------------
  Poissons Ratio (x)      =                     0.03104       0.39924
  Poissons Ratio (y)      =       0.01632                     0.21125
  Poissons Ratio (z)      =       0.90320       0.90874
-------------------------------------------------------------------------------


  Piezoelectric Strain Matrix: (Units=C/m**2)

-------------------------------------------------------------------------------
  Indices      1         2         3         4         5         6    
-------------------------------------------------------------------------------
       x     0.22115   0.66869   0.39098  -0.02266   0.24698   0.00234
       y    -0.59924   0.09842  -0.14861   0.19530  -0.01126   0.25588
       z    -0.08235  -0.27451  -0.03741  -0.26807  -0.39801  -0.01316
-------------------------------------------------------------------------------


  Piezoelectric Stress Matrix: (Units=10**-11 C/N)

-------------------------------------------------------------------------------
  Indices      1         2         3         4         5         6    
-------------------------------------------------------------------------------
       x    -0.74753   0.48812   1.74945  -0.22147   1.21506  -0.06563
       y    -1.85531   0.47591   0.65565   1.44584   0.11220   1.30485
       z     0.02660  -0.35816  -0.01940  -2.16719  -1.49479   0.01142
-------------------------------------------------------------------------------


  Static dielectric constant tensor : 

-------------------------------------------------------------------------------
              x         y         z
-------------------------------------------------------------------------------
       x     3.93719   0.00251  -0.11286
       y     0.00251   4.14480  -0.06772
       z    -0.11286  -0.06772   3.25591
--------------------------------------------------------------------------------

  High frequency dielectric constant tensor : 

-------------------------------------------------------------------------------
              x         y         z
-------------------------------------------------------------------------------
       x     1.67717   0.00072   0.00038
       y     0.00072   1.68467  -0.00045
       z     0.00038  -0.00045   1.61616
-------------------------------------------------------------------------------

  Static refractive indices : 

-------------------------------------------------------------------------------
    1 =    1.79801      2 =    1.98859      3 =    2.03729
-------------------------------------------------------------------------------

  High frequency refractive indices : 

-------------------------------------------------------------------------------
    1 =    1.27128      2 =    1.29503      3 =    1.29797
-------------------------------------------------------------------------------


  Time to end of optimisation =      14.0098 seconds


  Peak dynamic memory used =       5.01 MB 


  Timing analysis for GULP :

--------------------------------------------------------------------------------
  Task / Subroutine                                          Time (Seconds)
--------------------------------------------------------------------------------
  Calculation of reciprocal space energy and derivatives          0.8116
  Calculation of real space energy and derivatives                8.4758
  Calculation of three-body energy and derivatives                0.8365
  Calculation and manipulation of Hessian matrix                  4.4466
  Calculation of matrix inversion                                 0.0352
  Global summation overhead                                       0.0002
--------------------------------------------------------------------------------
  Total CPU time                                                 14.0098
--------------------------------------------------------------------------------


  Dump file written as c00067.vasp.grs
  CIF file written as c00067.vasp.cif


  Job Finished at 11:38.31  7th October    2025                               

