********************************************************************************
*                       GENERAL UTILITY LATTICE PROGRAM                        *
*                                 Julian Gale                                  *
*                       Curtin Institute for Computation                       *
*                    School of Molecular and Life Sciences                     *
*                    Curtin University, Western Australia                      *
********************************************************************************
* Version = 6.1.2 * Last modified =   3rd November 2022                        *
********************************************************************************
*  optimise     - perform optimisation run                                     *
*  conp         - constant pressure calculation                                *
*  property     - calculate properties for final geometry                      *
********************************************************************************

  Job Started  at 11:40.22  7th October    2025                               

  Number of CPUs =     1


  Total number of configurations input =      1

********************************************************************************
*  Input for Configuration =   1 : c00080.vasp                                 *
********************************************************************************

  Formula = Ge3Si21O48                                                  

  Number of irreducible atoms/shells =     120


  Total number atoms/shells =     120

  Dimensionality = 3               :  Bulk   



  Cartesian lattice vectors (Angstroms) :

       17.182800    0.000000    0.000000
        0.000000    7.513760    0.000000
        0.000000    0.000000   10.447700

  Cell parameters (Angstroms/Degrees):

  a =      17.1828    alpha =  90.0000
  b =       7.5138    beta  =  90.0000
  c =      10.4477    gamma =  90.0000

  Initial cell volume =        1348.875752 Angs**3

  Temperature of configuration =   0.00     K 

  Pressure of configuration =         0.000 GPa 

  Fractional coordinates of asymmetric unit :

--------------------------------------------------------------------------------
   No.  Atomic       x           y          z         Charge      Occupancy
        Label      (Frac)      (Frac)     (Frac)        (e)         (Frac)  
--------------------------------------------------------------------------------
      1 Ge    c    0.052090    0.000000    0.372270     4.00000    1.000000    
      2 Ge    c    0.339810 *  0.706090 *  0.273440 *   4.00000    1.000000    
      3 Ge    c    0.339340 *  0.294090 *  0.982560 *   4.00000    1.000000    
      4 Si    c    0.447910 *  0.000000 *  0.372270 *   4.00000    1.000000    
      5 Si    c    0.947910 *  0.000000 *  0.627730 *   4.00000    1.000000    
      6 Si    c    0.552090 *  0.000000 *  0.627730 *   4.00000    1.000000    
      7 Si    c    0.556730 *  0.000000 *  0.122130 *   4.00000    1.000000    
      8 Si    c    0.943270 *  0.000000 *  0.122130 *   4.00000    1.000000    
      9 Si    c    0.443270 *  0.000000 *  0.877870 *   4.00000    1.000000    
     10 Si    c    0.056730 *  0.000000 *  0.877870 *   4.00000    1.000000    
     11 Si    c    0.160190 *  0.293910 *  0.273440 *   4.00000    1.000000    
     12 Si    c    0.839810 *  0.293910 *  0.726560 *   4.00000    1.000000    
     13 Si    c    0.660190 *  0.706090 *  0.726560 *   4.00000    1.000000    
     14 Si    c    0.839810 *  0.706090 *  0.726560 *   4.00000    1.000000    
     15 Si    c    0.660190 *  0.293910 *  0.726560 *   4.00000    1.000000    
     16 Si    c    0.160190 *  0.706090 *  0.273440 *   4.00000    1.000000    
     17 Si    c    0.339810 *  0.293910 *  0.273440 *   4.00000    1.000000    
     18 Si    c    0.660660 *  0.294090 *  0.017440 *   4.00000    1.000000    
     19 Si    c    0.839340 *  0.705910 *  0.017440 *   4.00000    1.000000    
     20 Si    c    0.160660 *  0.705910 *  0.982560 *   4.00000    1.000000    
     21 Si    c    0.339340 *  0.705910 *  0.982560 *   4.00000    1.000000    
     22 Si    c    0.160660 *  0.294090 *  0.982560 *   4.00000    1.000000    
     23 Si    c    0.660660 *  0.705910 *  0.017440 *   4.00000    1.000000    
     24 Si    c    0.839340 *  0.294090 *  0.017440 *   4.00000    1.000000    
     25 O3    c    0.106570 *  0.174340 *  0.366200 *   1.33043    1.000000    
     26 O3    c    0.393430 *  0.825660 *  0.366200 *   1.33043    1.000000    
     27 O2    c    0.893430 *  0.174340 *  0.633800 *   0.87073    1.000000    
     28 O2    c    0.606570 *  0.825660 *  0.633800 *   0.87073    1.000000    
     29 O2    c    0.893430 *  0.825660 *  0.633800 *   0.87073    1.000000    
     30 O2    c    0.606570 *  0.174340 *  0.633800 *   0.87073    1.000000    
     31 O3    c    0.106570 *  0.825660 *  0.366200 *   1.33043    1.000000    
     32 O2    c    0.393430 *  0.174340 *  0.366200 *   0.87073    1.000000    
     33 O3    c    0.000000 *  0.000000 *  0.500000 *   1.33043    1.000000    
     34 O2    c    0.500000 *  0.000000 *  0.500000 *   0.87073    1.000000    
     35 O3    c    0.994520 *  0.000000 *  0.250840 *   1.33043    1.000000    
     36 O2    c    0.505480 *  0.000000 *  0.250840 *   0.87073    1.000000    
     37 O2    c    0.005480 *  0.000000 *  0.749160 *   0.87073    1.000000    
     38 O2    c    0.494520 *  0.000000 *  0.749160 *   0.87073    1.000000    
     39 O2    c    0.610230 *  0.175520 *  0.115390 *   0.87073    1.000000    
     40 O2    c    0.889770 *  0.824480 *  0.115390 *   0.87073    1.000000    
     41 O3    c    0.389770 *  0.175520 *  0.884610 *   1.33043    1.000000    
     42 O2    c    0.110230 *  0.824480 *  0.884610 *   0.87073    1.000000    
     43 O2    c    0.389770 *  0.824480 *  0.884610 *   0.87073    1.000000    
     44 O2    c    0.110230 *  0.175520 *  0.884610 *   0.87073    1.000000    
     45 O2    c    0.610230 *  0.824480 *  0.115390 *   0.87073    1.000000    
     46 O2    c    0.889770 *  0.175520 *  0.115390 *   0.87073    1.000000    
     47 O2    c    0.500000 *  0.000000 *  0.000000 *   0.87073    1.000000    
     48 O2    c    0.000000 *  0.000000 *  0.000000 *   0.87073    1.000000    
     49 O2    c    0.151750 *  0.500000 *  0.313330 *   0.87073    1.000000    
     50 O3    c    0.348250 *  0.500000 *  0.313330 *   1.33043    1.000000    
     51 O2    c    0.848250 *  0.500000 *  0.686670 *   0.87073    1.000000    
     52 O2    c    0.651750 *  0.500000 *  0.686670 *   0.87073    1.000000    
     53 O2    c    0.250000 *  0.234950 *  0.285720 *   0.87073    1.000000    
     54 O3    c    0.250000 *  0.765050 *  0.285720 *   1.33043    1.000000    
     55 O2    c    0.750000 *  0.234950 *  0.714280 *   0.87073    1.000000    
     56 O2    c    0.750000 *  0.765050 *  0.714280 *   0.87073    1.000000    
     57 O2    c    0.131410 *  0.268650 *  0.127790 *   0.87073    1.000000    
     58 O3    c    0.368590 *  0.731350 *  0.127790 *   1.33043    1.000000    
     59 O2    c    0.868590 *  0.268650 *  0.872210 *   0.87073    1.000000    
     60 O2    c    0.631410 *  0.731350 *  0.872210 *   0.87073    1.000000    
     61 O2    c    0.868590 *  0.731350 *  0.872210 *   0.87073    1.000000    
     62 O2    c    0.631410 *  0.268650 *  0.872210 *   0.87073    1.000000    
     63 O2    c    0.131410 *  0.731350 *  0.127790 *   0.87073    1.000000    
     64 O3    c    0.368590 *  0.268650 *  0.127790 *   1.33043    1.000000    
     65 O2    c    0.653920 *  0.500000 *  0.058200 *   0.87073    1.000000    
     66 O2    c    0.846080 *  0.500000 *  0.058200 *   0.87073    1.000000    
     67 O3    c    0.346080 *  0.500000 *  0.941800 *   1.33043    1.000000    
     68 O2    c    0.153920 *  0.500000 *  0.941800 *   0.87073    1.000000    
     69 O2    c    0.750000 *  0.231060 *  0.027050 *   0.87073    1.000000    
     70 O2    c    0.750000 *  0.768940 *  0.027050 *   0.87073    1.000000    
     71 O3    c    0.250000 *  0.231060 *  0.972950 *   1.33043    1.000000    
     72 O2    c    0.250000 *  0.768940 *  0.972950 *   0.87073    1.000000    
     73 O3    s    0.106570 *  0.174340 *  0.366200 *  -3.33043    1.000000    
     74 O3    s    0.393430 *  0.825660 *  0.366200 *  -3.33043    1.000000    
     75 O2    s    0.893430 *  0.174340 *  0.633800 *  -2.87073    1.000000    
     76 O2    s    0.606570 *  0.825660 *  0.633800 *  -2.87073    1.000000    
     77 O2    s    0.893430 *  0.825660 *  0.633800 *  -2.87073    1.000000    
     78 O2    s    0.606570 *  0.174340 *  0.633800 *  -2.87073    1.000000    
     79 O3    s    0.106570 *  0.825660 *  0.366200 *  -3.33043    1.000000    
     80 O2    s    0.393430 *  0.174340 *  0.366200 *  -2.87073    1.000000    
     81 O3    s    0.000000 *  0.000000 *  0.500000 *  -3.33043    1.000000    
     82 O2    s    0.500000 *  0.000000 *  0.500000 *  -2.87073    1.000000    
     83 O3    s    0.994520 *  0.000000 *  0.250840 *  -3.33043    1.000000    
     84 O2    s    0.505480 *  0.000000 *  0.250840 *  -2.87073    1.000000    
     85 O2    s    0.005480 *  0.000000 *  0.749160 *  -2.87073    1.000000    
     86 O2    s    0.494520 *  0.000000 *  0.749160 *  -2.87073    1.000000    
     87 O2    s    0.610230 *  0.175520 *  0.115390 *  -2.87073    1.000000    
     88 O2    s    0.889770 *  0.824480 *  0.115390 *  -2.87073    1.000000    
     89 O3    s    0.389770 *  0.175520 *  0.884610 *  -3.33043    1.000000    
     90 O2    s    0.110230 *  0.824480 *  0.884610 *  -2.87073    1.000000    
     91 O2    s    0.389770 *  0.824480 *  0.884610 *  -2.87073    1.000000    
     92 O2    s    0.110230 *  0.175520 *  0.884610 *  -2.87073    1.000000    
     93 O2    s    0.610230 *  0.824480 *  0.115390 *  -2.87073    1.000000    
     94 O2    s    0.889770 *  0.175520 *  0.115390 *  -2.87073    1.000000    
     95 O2    s    0.500000 *  0.000000 *  0.000000 *  -2.87073    1.000000    
     96 O2    s    0.000000 *  0.000000 *  0.000000 *  -2.87073    1.000000    
     97 O2    s    0.151750 *  0.500000 *  0.313330 *  -2.87073    1.000000    
     98 O3    s    0.348250 *  0.500000 *  0.313330 *  -3.33043    1.000000    
     99 O2    s    0.848250 *  0.500000 *  0.686670 *  -2.87073    1.000000    
    100 O2    s    0.651750 *  0.500000 *  0.686670 *  -2.87073    1.000000    
    101 O2    s    0.250000 *  0.234950 *  0.285720 *  -2.87073    1.000000    
    102 O3    s    0.250000 *  0.765050 *  0.285720 *  -3.33043    1.000000    
    103 O2    s    0.750000 *  0.234950 *  0.714280 *  -2.87073    1.000000    
    104 O2    s    0.750000 *  0.765050 *  0.714280 *  -2.87073    1.000000    
    105 O2    s    0.131410 *  0.268650 *  0.127790 *  -2.87073    1.000000    
    106 O3    s    0.368590 *  0.731350 *  0.127790 *  -3.33043    1.000000    
    107 O2    s    0.868590 *  0.268650 *  0.872210 *  -2.87073    1.000000    
    108 O2    s    0.631410 *  0.731350 *  0.872210 *  -2.87073    1.000000    
    109 O2    s    0.868590 *  0.731350 *  0.872210 *  -2.87073    1.000000    
    110 O2    s    0.631410 *  0.268650 *  0.872210 *  -2.87073    1.000000    
    111 O2    s    0.131410 *  0.731350 *  0.127790 *  -2.87073    1.000000    
    112 O3    s    0.368590 *  0.268650 *  0.127790 *  -3.33043    1.000000    
    113 O2    s    0.653920 *  0.500000 *  0.058200 *  -2.87073    1.000000    
    114 O2    s    0.846080 *  0.500000 *  0.058200 *  -2.87073    1.000000    
    115 O3    s    0.346080 *  0.500000 *  0.941800 *  -3.33043    1.000000    
    116 O2    s    0.153920 *  0.500000 *  0.941800 *  -2.87073    1.000000    
    117 O2    s    0.750000 *  0.231060 *  0.027050 *  -2.87073    1.000000    
    118 O2    s    0.750000 *  0.768940 *  0.027050 *  -2.87073    1.000000    
    119 O3    s    0.250000 *  0.231060 *  0.972950 *  -3.33043    1.000000    
    120 O2    s    0.250000 *  0.768940 *  0.972950 *  -2.87073    1.000000    
--------------------------------------------------------------------------------



********************************************************************************
*  General input information                                                   *
********************************************************************************

  Species output for all configurations : 

--------------------------------------------------------------------------------
  Species    Type    Atomic    Atomic    Charge       Radii (Angs)     Library
                     Number     Mass       (e)     Cova   Ionic  VDW   Symbol
--------------------------------------------------------------------------------
    Ge       Core       32      72.61   4.000000   1.170  0.000  1.750 Ge       
    Si       Core       14      28.09   4.000000   1.200  0.000  2.100 Si       
    O1       Core        8      16.00   1.733957   0.730  0.000  0.000 O1       
    O2       Core        8      16.00   0.870733   0.730  0.000  1.360 O2       
    O3       Core        8      16.00   1.330431   0.730  0.000  1.360 O3       
    O1       Shell       8       0.00  -3.733957   0.730  0.000  0.000 O1       
    O2       Shell       8       0.00  -2.870733   0.730  0.000  0.000 O2       
    O3       Shell       8       0.00  -3.330431   0.730  0.000  0.000 O3       
--------------------------------------------------------------------------------


  Lattice summation method               =    Ewald          (3-D)
                                         =    Parry          (2-D)
                                         =    Saunders et al (1-D)
  Accuracy factor for lattice sums       =   12.000


  Analytic derivatives to be used

  Time limit = Infinity

  Maximum range for interatomic potentials =    100000.000000 Angstroms

  General interatomic potentials :

--------------------------------------------------------------------------------
Atom  Types   Potential      Parameter       Value         Units   Cutoffs(Ang)
  1     2                                                            Min /  Max 
--------------------------------------------------------------------------------
Si   c O1   s Buckingham    Buckingham A     1315.2478    eV        0.000 16.000
                            Buckingham rho  0.31775900    Ang       
                            Buckingham C     10.141118    eV*Ang^6  
--------------------------------------------------------------------------------
Si   c O2   s Buckingham    Buckingham A     1315.2478    eV        0.000 16.000
                            Buckingham rho  0.31775900    Ang       
                            Buckingham C     10.141118    eV*Ang^6  
--------------------------------------------------------------------------------
Si   c O3   s Buckingham    Buckingham A     1315.2478    eV        0.000 16.000
                            Buckingham rho  0.31775900    Ang       
                            Buckingham C     10.141118    eV*Ang^6  
--------------------------------------------------------------------------------
Ge   c O1   s Buckingham    Buckingham A     1497.3996    eV        0.000 16.000
                            Buckingham rho  0.32564600    Ang       
                            Buckingham C     16.808599    eV*Ang^6  
--------------------------------------------------------------------------------
Ge   c O2   s Buckingham    Buckingham A     1497.3996    eV        0.000 16.000
                            Buckingham rho  0.32564600    Ang       
                            Buckingham C     16.808599    eV*Ang^6  
--------------------------------------------------------------------------------
Ge   c O3   s Buckingham    Buckingham A     1497.3996    eV        0.000 16.000
                            Buckingham rho  0.32564600    Ang       
                            Buckingham C     16.808599    eV*Ang^6  
--------------------------------------------------------------------------------
O1   s O1   s Buckingham    Buckingham A     22764.000    eV        0.000 16.000
                            Buckingham rho  0.14900000    Ang       
                            Buckingham C     10.937044    eV*Ang^6  
--------------------------------------------------------------------------------
O1   s O2   s Buckingham    Buckingham A     22764.000    eV        0.000 16.000
                            Buckingham rho  0.14900000    Ang       
                            Buckingham C     10.937044    eV*Ang^6  
--------------------------------------------------------------------------------
O1   s O3   s Buckingham    Buckingham A     22764.000    eV        0.000 16.000
                            Buckingham rho  0.14900000    Ang       
                            Buckingham C     10.937044    eV*Ang^6  
--------------------------------------------------------------------------------
O2   s O2   s Buckingham    Buckingham A     22764.000    eV        0.000 16.000
                            Buckingham rho  0.14900000    Ang       
                            Buckingham C     10.937044    eV*Ang^6  
--------------------------------------------------------------------------------
O2   s O3   s Buckingham    Buckingham A     22764.000    eV        0.000 16.000
                            Buckingham rho  0.14900000    Ang       
                            Buckingham C     10.937044    eV*Ang^6  
--------------------------------------------------------------------------------
O3   s O3   s Buckingham    Buckingham A     22764.000    eV        0.000 16.000
                            Buckingham rho  0.14900000    Ang       
                            Buckingham C     10.937044    eV*Ang^6  
--------------------------------------------------------------------------------
O1   c O1   s Spring (c-s)  Spring k 2       180.31577    eV*Ang^-2 0.000  0.800
                            Spring k 4       0.0000000    eV*Ang^-4 
--------------------------------------------------------------------------------
O2   c O2   s Spring (c-s)  Spring k 2       75.969800    eV*Ang^-2 0.000  0.800
                            Spring k 4       0.0000000    eV*Ang^-4 
--------------------------------------------------------------------------------
O3   c O3   s Spring (c-s)  Spring k 2       128.14270    eV*Ang^-2 0.000  0.800
                            Spring k 4       0.0000000    eV*Ang^-4 
--------------------------------------------------------------------------------

  General Three-body potentials :

--------------------------------------------------------------------------------
  Atoms       Potential      Parameter       Value         Units   Cutoffs(Ang)
  1 / 2 / 3                                                          Min /  Max 
--------------------------------------------------------------------------------
Si    core    Harmonic      Three-body cnst  1.2614000    eV*rad^-2 0.000  1.900
O1    shel                  Three-body angl  109.47000    degrees   0.000  1.900
O1    shel                  Three-body k4    0.0000000    eV*rad^-4 0.000  3.500
                            Three-body k3    0.0000000    eV*rad^-3 
--------------------------------------------------------------------------------
Si    core    Harmonic      Three-body cnst  1.2614000    eV*rad^-2 0.000  1.900
O1    shel                  Three-body angl  109.47000    degrees   0.000  1.900
õ(1   shel                  Three-body k4    0.0000000    eV*rad^-4 0.000  3.500
                            Three-body k3    0.0000000    eV*rad^-3 
--------------------------------------------------------------------------------
Si    core    Harmonic      Three-body cnst  1.2614000    eV*rad^-2 0.000  1.900
õ(1   shel                  Three-body angl  109.47000    degrees   0.000  1.900
õ(1   shel                  Three-body k4    0.0000000    eV*rad^-4 0.000  3.500
                            Three-body k3    0.0000000    eV*rad^-3 
--------------------------------------------------------------------------------
Si    core    Harmonic      Three-body cnst  1.2614000    eV*rad^-2 0.000  1.900
O1    shel                  Three-body angl  109.47000    degrees   0.000  1.900
O2    shel                  Three-body k4    0.0000000    eV*rad^-4 0.000  3.500
                            Three-body k3    0.0000000    eV*rad^-3 
--------------------------------------------------------------------------------
Si    core    Harmonic      Three-body cnst  1.2614000    eV*rad^-2 0.000  1.900
O1    shel                  Three-body angl  109.47000    degrees   0.000  1.900
õ(2   shel                  Three-body k4    0.0000000    eV*rad^-4 0.000  3.500
                            Three-body k3    0.0000000    eV*rad^-3 
--------------------------------------------------------------------------------
Si    core    Harmonic      Three-body cnst  1.2614000    eV*rad^-2 0.000  1.900
O2    shel                  Three-body angl  109.47000    degrees   0.000  1.900
õ(1   shel                  Three-body k4    0.0000000    eV*rad^-4 0.000  3.500
                            Three-body k3    0.0000000    eV*rad^-3 
--------------------------------------------------------------------------------
Si    core    Harmonic      Three-body cnst  1.2614000    eV*rad^-2 0.000  1.900
õ(1   shel                  Three-body angl  109.47000    degrees   0.000  1.900
õ(2   shel                  Three-body k4    0.0000000    eV*rad^-4 0.000  3.500
                            Three-body k3    0.0000000    eV*rad^-3 
--------------------------------------------------------------------------------
Si    core    Harmonic      Three-body cnst  1.2614000    eV*rad^-2 0.000  1.900
O2    shel                  Three-body angl  109.47000    degrees   0.000  1.900
O2    shel                  Three-body k4    0.0000000    eV*rad^-4 0.000  3.500
                            Three-body k3    0.0000000    eV*rad^-3 
--------------------------------------------------------------------------------
Si    core    Harmonic      Three-body cnst  1.2614000    eV*rad^-2 0.000  1.900
O2    shel                  Three-body angl  109.47000    degrees   0.000  1.900
õ(2   shel                  Three-body k4    0.0000000    eV*rad^-4 0.000  3.500
                            Three-body k3    0.0000000    eV*rad^-3 
--------------------------------------------------------------------------------
Si    core    Harmonic      Three-body cnst  1.2614000    eV*rad^-2 0.000  1.900
õ(2   shel                  Three-body angl  109.47000    degrees   0.000  1.900
õ(2   shel                  Three-body k4    0.0000000    eV*rad^-4 0.000  3.500
                            Three-body k3    0.0000000    eV*rad^-3 
--------------------------------------------------------------------------------

********************************************************************************
*  Output for configuration   1 : c00080.vasp                                  *
********************************************************************************


  Components of energy : 

--------------------------------------------------------------------------------
  Interatomic potentials     =         760.30861002 eV    
  Three-body potentials      =           0.01404174 eV    
  Monopole - monopole (real) =       -2676.00317478 eV    
  Monopole - monopole (recip)=       -1115.35404472 eV    
  Monopole - monopole (total)=       -3791.35721950 eV    
--------------------------------------------------------------------------------
  Total lattice energy       =       -3031.03456775 eV    
--------------------------------------------------------------------------------
  Total lattice energy       =         -292448.5022 kJ/(mole unit cells)
--------------------------------------------------------------------------------


  Number of variables =      363

  Maximum number of calculations  =          1000
  Maximum Hessian update interval =            10
  Maximum step size               =   0.100000000
  Maximum parameter tolerance     =   0.000010000
  Maximum function  tolerance     =   0.000010000
  Maximum gradient  tolerance     =   0.001000000
  Maximum gradient  component     =   0.010000000

  Symmetry not applied to optimisation

  Cell parameters to be optimised using strains

  Newton-Raphson optimiser to be used

  BFGS hessian update to be used

  Lower half triangular hessian to be used

  Minimiser to switch to RFO
  When gradient norm is less than     0.050000

  Dumpfile to be written after every cycle

  Start of bulk optimisation :

  Cycle:      0 Energy:     -3031.034568  Gnorm:      4.405155  CPU:    0.100
  ** Hessian calculated **
  Cycle:      1 Energy:     -3061.954933  Gnorm:      0.978249  CPU:    0.216
  ** Hessian calculated **
  Cycle:      2 Energy:     -3065.774062  Gnorm:      0.509995  CPU:    0.423
  ** Hessian calculated **
  Cycle:      3 Energy:     -3067.168358  Gnorm:      0.323086  CPU:    0.612
  ** Hessian calculated **
  Cycle:      4 Energy:     -3067.796171  Gnorm:      0.195738  CPU:    0.784
  Cycle:      5 Energy:     -3068.012587  Gnorm:      0.106648  CPU:    0.875
  Cycle:      6 Energy:     -3068.095747  Gnorm:      0.061348  CPU:    0.965
  Cycle:      7 Energy:     -3068.134582  Gnorm:      0.032973  CPU:    1.071
  ** Hessian has wrong structure
  ** Imaginary eigenvectors =   1
  Cycle:      8 Energy:     -3068.143490  Gnorm:      0.047233  CPU:    1.325
  ** Hessian has wrong structure
  ** Imaginary eigenvectors =   1
  ** Hessian has required structure
  Cycle:      9 Energy:     -3068.207346  Gnorm:      0.029273  CPU:    1.830
  ** Hessian has required structure
  Cycle:     10 Energy:     -3068.227390  Gnorm:      0.018083  CPU:    1.986
  ** Hessian has required structure
  Cycle:     11 Energy:     -3068.241640  Gnorm:      0.016746  CPU:    2.142
  ** Hessian has required structure
  Cycle:     12 Energy:     -3068.251290  Gnorm:      0.010469  CPU:    2.315
  ** Hessian has required structure
  Cycle:     13 Energy:     -3068.257673  Gnorm:      0.012726  CPU:    2.487
  ** Hessian has required structure
  Cycle:     14 Energy:     -3068.263882  Gnorm:      0.012080  CPU:    2.642
  ** Hessian has required structure
  Cycle:     15 Energy:     -3068.271620  Gnorm:      0.014541  CPU:    2.814
  ** Hessian has required structure
  Cycle:     16 Energy:     -3068.278418  Gnorm:      0.012545  CPU:    2.969
  ** Hessian has required structure
  Cycle:     17 Energy:     -3068.282693  Gnorm:      0.017134  CPU:    3.124
  ** Hessian has required structure
  Cycle:     18 Energy:     -3068.286644  Gnorm:      0.018827  CPU:    3.261
  ** Hessian has required structure
  Cycle:     19 Energy:     -3068.303788  Gnorm:      0.012545  CPU:    3.513
  ** Hessian has required structure
  Cycle:     20 Energy:     -3068.311154  Gnorm:      0.006928  CPU:    3.659
  ** Hessian has required structure
  Cycle:     21 Energy:     -3068.313495  Gnorm:      0.003315  CPU:    3.826
  ** Hessian has required structure
  Cycle:     22 Energy:     -3068.314023  Gnorm:      0.002438  CPU:    3.977
  ** Hessian has required structure
  Cycle:     23 Energy:     -3068.314263  Gnorm:      0.000916  CPU:    4.123
  ** Hessian has required structure
  Cycle:     24 Energy:     -3068.314356  Gnorm:      0.000749  CPU:    4.265
  ** Hessian has required structure
  Cycle:     25 Energy:     -3068.314382  Gnorm:      0.000450  CPU:    4.407
  ** Hessian has required structure
  Cycle:     26 Energy:     -3068.314395  Gnorm:      0.000411  CPU:    4.582
  ** Hessian has required structure
  Cycle:     27 Energy:     -3068.314401  Gnorm:      0.000159  CPU:    4.725
  ** Hessian has required structure
  Cycle:     28 Energy:     -3068.314401  Gnorm:      0.000158  CPU:    4.850
  ** Hessian has required structure
  Cycle:     29 Energy:     -3068.314401  Gnorm:      0.000158  CPU:    5.101
  ** Hessian calculated **


  **** Optimisation achieved ****


  Final energy =   -3068.31440095 eV      
  Final Gnorm  =       0.00015823

  Components of energy : 

--------------------------------------------------------------------------------
  Interatomic potentials     =         815.31118579 eV    
  Three-body potentials      =           0.20335988 eV    
  Monopole - monopole (real) =       -2208.15336660 eV    
  Monopole - monopole (recip)=       -1675.67558002 eV    
  Monopole - monopole (total)=       -3883.82894662 eV    
--------------------------------------------------------------------------------
  Total lattice energy       =       -3068.31440095 eV    
--------------------------------------------------------------------------------
  Total lattice energy       =         -296045.4362 kJ/(mole unit cells)
--------------------------------------------------------------------------------

  Final fractional coordinates of atoms :

--------------------------------------------------------------------------------
   No.  Atomic        x           y          z          Radius
        Label       (Frac)      (Frac)     (Frac)       (Angs) 
--------------------------------------------------------------------------------
     1  Ge    c     0.052090    0.000000    0.372270    0.000000
     2  Ge    c     0.354685    0.673020    0.288365    0.000000
     3  Ge    c     0.331327    0.282239    0.970040    0.000000
     4  Si    c     0.456387    0.978963    0.374340    0.000000
     5  Si    c     0.952494    0.001363    0.636014    0.000000
     6  Si    c     0.554885    0.998719    0.632381    0.000000
     7  Si    c     0.552607    0.000791    0.115612    0.000000
     8  Si    c     0.942894    0.991464    0.115046    0.000000
     9  Si    c     0.441185    0.995714    0.874095    0.000000
    10  Si    c     0.056303    0.012951    0.882469    0.000000
    11  Si    c     0.158382    0.308240    0.286737    0.000000
    12  Si    c     0.845620    0.303317    0.731564    0.000000
    13  Si    c     0.661069    0.693932    0.716934    0.000000
    14  Si    c     0.839881    0.705840    0.729788    0.000000
    15  Si    c     0.665987    0.290848    0.722833    0.000000
    16  Si    c     0.171592    0.710692    0.296206    0.000000
    17  Si    c     0.337541    0.261077    0.277606    0.000000
    18  Si    c     0.663100    0.290722    0.026092    0.000000
    19  Si    c     0.832439    0.703357    0.034295    0.000000
    20  Si    c     0.167351    0.721938    0.993356    0.000000
    21  Si    c     0.349269    0.686736    0.982412    0.000000
    22  Si    c     0.149216    0.324614    0.983517    0.000000
    23  Si    c     0.653344    0.690074    0.020751    0.000000
    24  Si    c     0.843040    0.305561    0.035488    0.000000
    25  O3    c     0.100127    0.197172    0.372565    0.000000
    26  O3    c     0.421292    0.785996    0.380229    0.000000
    27  O2    c     0.903442    0.180925    0.652027    0.000000
    28  O2    c     0.605189    0.818666    0.629676    0.000000
    29  O2    c     0.896591    0.834884    0.654149    0.000000
    30  O2    c     0.612906    0.162902    0.639238    0.000000
    31  O3    c     0.121045    0.834164    0.386258    0.000000
    32  O2    c     0.384111    0.115687    0.362792    0.000000
    33  O3    c     0.984446    0.994998    0.492570    0.000000
    34  O2    c     0.504933    0.019862    0.502669    0.000000
    35  O3    c     0.003064    0.966322    0.229112    0.000000
    36  O2    c     0.514449    0.003177    0.254975    0.000000
    37  O2    c     0.026012    0.995603    0.735103    0.000000
    38  O2    c     0.496439    0.994754    0.751698    0.000000
    39  O2    c     0.615606    0.155205    0.112901    0.000000
    40  O2    c     0.878992    0.837916    0.122318    0.000000
    41  O3    c     0.376228    0.146528    0.861363    0.000000
    42  O2    c     0.125422    0.870772    0.905530    0.000000
    43  O2    c     0.399467    0.807962    0.886026    0.000000
    44  O2    c     0.087140    0.210200    0.903683    0.000000
    45  O2    c     0.593377    0.811513    0.097041    0.000000
    46  O2    c     0.898503    0.179879    0.123017    0.000000
    47  O2    c     0.488968    0.041742    0.004560    0.000000
    48  O2    c     0.985798    0.972264    0.977864    0.000000
    49  O2    c     0.141236    0.512294    0.310399    0.000000
    50  O3    c     0.373768    0.451214    0.297921    0.000000
    51  O2    c     0.865031    0.505812    0.700278    0.000000
    52  O2    c     0.641921    0.491586    0.688620    0.000000
    53  O2    c     0.247887    0.263708    0.325203    0.000000
    54  O3    c     0.261279    0.717809    0.338838    0.000000
    55  O2    c     0.756835    0.261267    0.690048    0.000000
    56  O2    c     0.750571    0.735553    0.682458    0.000000
    57  O2    c     0.145622    0.263757    0.134539    0.000000
    58  O3    c     0.365947    0.742790    0.129146    0.000000
    59  O2    c     0.857632    0.264581    0.884537    0.000000
    60  O2    c     0.645390    0.734168    0.867810    0.000000
    61  O2    c     0.845061    0.744234    0.882462    0.000000
    62  O2    c     0.652496    0.247109    0.874397    0.000000
    63  O2    c     0.163004    0.773327    0.144800    0.000000
    64  O3    c     0.339731    0.206719    0.128066    0.000000
    65  O2    c     0.631991    0.488101    0.050511    0.000000
    66  O2    c     0.862829    0.506353    0.067527    0.000000
    67  O3    c     0.372520    0.487160    0.959744    0.000000
    68  O2    c     0.127898    0.532382    0.970238    0.000000
    69  O2    c     0.753103    0.270862    0.068276    0.000000
    70  O2    c     0.741400    0.724426    0.068002    0.000000
    71  O3    c     0.234079    0.291713    0.927161    0.000000
    72  O2    c     0.257074    0.711232    0.951207    0.000000
    73  O3    s     0.102271    0.192574    0.363588    0.000000
    74  O3    s     0.419358    0.795968    0.372205    0.000000
    75  O2    s     0.902146    0.175472    0.659394    0.000000
    76  O2    s     0.606019    0.824016    0.639621    0.000000
    77  O2    s     0.896131    0.838135    0.660932    0.000000
    78  O2    s     0.612635    0.159571    0.648002    0.000000
    79  O3    s     0.120640    0.834888    0.375847    0.000000
    80  O2    s     0.386703    0.117039    0.354645    0.000000
    81  O3    s     0.986998    0.996155    0.497478    0.000000
    82  O2    s     0.505213    0.012568    0.503169    0.000000
    83  O3    s     0.000448    0.972133    0.228530    0.000000
    84  O2    s     0.512403    0.000162    0.251841    0.000000
    85  O2    s     0.021523    0.998126    0.740640    0.000000
    86  O2    s     0.496627    0.995354    0.752489    0.000000
    87  O2    s     0.614175    0.153876    0.103188    0.000000
    88  O2    s     0.880502    0.838980    0.111568    0.000000
    89  O3    s     0.379038    0.142672    0.871622    0.000000
    90  O2    s     0.122650    0.869589    0.912876    0.000000
    91  O2    s     0.398524    0.814901    0.895153    0.000000
    92  O2    s     0.090559    0.201802    0.910055    0.000000
    93  O2    s     0.595766    0.818103    0.090336    0.000000
    94  O2    s     0.897037    0.174226    0.112640    0.000000
    95  O2    s     0.490942    0.032390    0.003037    0.000000
    96  O2    s     0.989065    0.978908    0.982030    0.000000
    97  O2    s     0.146351    0.511136    0.306266    0.000000
    98  O3    s     0.368603    0.450566    0.295152    0.000000
    99  O2    s     0.860261    0.505389    0.706762    0.000000
   100  O2    s     0.646558    0.491940    0.695307    0.000000
   101  O2    s     0.247747    0.268166    0.316174    0.000000
   102  O3    s     0.259984    0.713403    0.330444    0.000000
   103  O2    s     0.756506    0.268952    0.697984    0.000000
   104  O2    s     0.750481    0.727920    0.691152    0.000000
   105  O2    s     0.147284    0.274570    0.134512    0.000000
   106  O3    s     0.363433    0.731780    0.127335    0.000000
   107  O2    s     0.854767    0.273095    0.884227    0.000000
   108  O2    s     0.647917    0.725199    0.868167    0.000000
   109  O2    s     0.843086    0.735567    0.882279    0.000000
   110  O2    s     0.655083    0.256435    0.874409    0.000000
   111  O2    s     0.164301    0.761718    0.144163    0.000000
   112  O3    s     0.338833    0.218217    0.129924    0.000000
   113  O2    s     0.637554    0.488742    0.044746    0.000000
   114  O2    s     0.857486    0.505579    0.060567    0.000000
   115  O3    s     0.366816    0.490929    0.962878    0.000000
   116  O2    s     0.134093    0.530677    0.973986    0.000000
   117  O2    s     0.753052    0.276925    0.060019    0.000000
   118  O2    s     0.741661    0.718353    0.059202    0.000000
   119  O3    s     0.233380    0.294313    0.936440    0.000000
   120  O2    s     0.256892    0.709751    0.959104    0.000000
--------------------------------------------------------------------------------

  Final Cartesian lattice vectors (Angstroms) :

       17.149740    0.098541   -0.079609
        0.043478    7.627200    0.054215
       -0.049264    0.076348   10.286871


  Final cell parameters and derivatives :

--------------------------------------------------------------------------------
       a           17.150208 Angstrom     dE/de1(xx)     0.010192 eV/strain
       b            7.627516 Angstrom     dE/de2(yy)     0.001525 eV/strain
       c           10.287272 Angstrom     dE/de3(zz)     0.015824 eV/strain
       alpha       89.169089 Degrees      dE/de4(yz)     0.000216 eV/strain
       beta        90.537885 Degrees      dE/de5(xz)    -0.000302 eV/strain
       gamma       89.346099 Degrees      dE/de6(xy)    -0.001290 eV/strain
--------------------------------------------------------------------------------

  Primitive cell volume =          1345.423525 Angs**3

  Density of cell =      1.944805 g/cm**3

  Non-primitive cell volume =          1345.423525 Angs**3


  Final internal derivatives :

--------------------------------------------------------------------------------
   No.  Atomic          a             b             c           Radius
        Label          (eV)          (eV)          (eV)        (eV/Angs)
--------------------------------------------------------------------------------
      1 Ge    c       0.000000      0.000000      0.000000      0.000000
      2 Ge    c       0.001081     -0.002788     -0.000672      0.000000
      3 Ge    c       0.003413      0.003055      0.003541      0.000000
      4 Si    c      -0.019013     -0.004461     -0.004482      0.000000
      5 Si    c      -0.000583     -0.000090      0.000349      0.000000
      6 Si    c       0.024039     -0.001399      0.000807      0.000000
      7 Si    c       0.011206     -0.000087     -0.001827      0.000000
      8 Si    c      -0.000493     -0.000156     -0.000544      0.000000
      9 Si    c      -0.013377     -0.002486      0.003413      0.000000
     10 Si    c       0.000021      0.000268      0.000290      0.000000
     11 Si    c       0.000933      0.000392      0.000426      0.000000
     12 Si    c      -0.000242      0.000375     -0.000192      0.000000
     13 Si    c      -0.003150     -0.000136     -0.001151      0.000000
     14 Si    c       0.001447     -0.000131     -0.001285      0.000000
     15 Si    c      -0.001962      0.000432     -0.000621      0.000000
     16 Si    c       0.002617     -0.000708      0.000558      0.000000
     17 Si    c      -0.000877      0.002177     -0.002471      0.000000
     18 Si    c      -0.003576     -0.000136      0.000838      0.000000
     19 Si    c       0.001775      0.000210      0.000230      0.000000
     20 Si    c       0.000556     -0.000108     -0.000555      0.000000
     21 Si    c       0.002371     -0.001965     -0.000126      0.000000
     22 Si    c       0.000042     -0.000018     -0.000494      0.000000
     23 Si    c      -0.002871     -0.001153      0.001359      0.000000
     24 Si    c       0.000266      0.000162     -0.000058      0.000000
     25 O3    c      -0.001167     -0.000880      0.000152      0.000000
     26 O3    c       0.004494      0.001872      0.001356      0.000000
     27 O2    c      -0.000110     -0.000050     -0.000015      0.000000
     28 O2    c      -0.000228     -0.001346     -0.000182      0.000000
     29 O2    c      -0.000304     -0.000009      0.000138      0.000000
     30 O2    c       0.001521      0.001846     -0.000480      0.000000
     31 O3    c      -0.000813      0.000514      0.000515      0.000000
     32 O2    c      -0.001234      0.000941      0.001842      0.000000
     33 O3    c       0.000438      0.000012     -0.000412      0.000000
     34 O2    c      -0.009476      0.004851     -0.000503      0.000000
     35 O3    c       0.001695      0.000167      0.001644      0.000000
     36 O2    c       0.016848      0.001647      0.000027      0.000000
     37 O2    c      -0.000330     -0.000018     -0.000147      0.000000
     38 O2    c       0.003802     -0.000230      0.001417      0.000000
     39 O2    c       0.001300      0.001541     -0.000033      0.000000
     40 O2    c      -0.000115     -0.000144      0.000033      0.000000
     41 O3    c      -0.001387      0.001860     -0.001198      0.000000
     42 O2    c      -0.000380      0.000103     -0.000207      0.000000
     43 O2    c       0.000542     -0.000483     -0.000466      0.000000
     44 O2    c      -0.000479     -0.000560     -0.000293      0.000000
     45 O2    c       0.001034     -0.002427      0.000010      0.000000
     46 O2    c      -0.000359      0.000176      0.000018      0.000000
     47 O2    c      -0.011286      0.003471     -0.000643      0.000000
     48 O2    c      -0.000376      0.000106      0.000287      0.000000
     49 O2    c       0.000760      0.000849     -0.000831      0.000000
     50 O3    c      -0.002144      0.001100     -0.002109      0.000000
     51 O2    c       0.000184     -0.000774     -0.000233      0.000000
     52 O2    c      -0.000820     -0.000259     -0.000465      0.000000
     53 O2    c       0.004323      0.000228     -0.000526      0.000000
     54 O3    c      -0.002625     -0.000829     -0.000290      0.000000
     55 O2    c       0.000187     -0.000175     -0.000177      0.000000
     56 O2    c      -0.002011      0.000291     -0.000873      0.000000
     57 O2    c       0.000242     -0.000240      0.000513      0.000000
     58 O3    c      -0.002589     -0.001108      0.000605      0.000000
     59 O2    c       0.000650     -0.000024      0.000255      0.000000
     60 O2    c      -0.001669      0.000202     -0.001490      0.000000
     61 O2    c       0.001278      0.000400      0.001814      0.000000
     62 O2    c       0.000153      0.000410     -0.000970      0.000000
     63 O2    c      -0.000479      0.000127      0.000180      0.000000
     64 O3    c      -0.006813      0.001364     -0.001003      0.000000
     65 O2    c      -0.001610      0.000952      0.000583      0.000000
     66 O2    c       0.000664     -0.000893      0.000498      0.000000
     67 O3    c      -0.005151     -0.001914      0.002321      0.000000
     68 O2    c       0.001029      0.000621      0.000147      0.000000
     69 O2    c       0.002590     -0.000315      0.000491      0.000000
     70 O2    c      -0.000072      0.000460      0.001206      0.000000
     71 O3    c       0.003180     -0.000165      0.000132      0.000000
     72 O2    c       0.000124      0.000100      0.000302      0.000000
     73 O3    s       0.000604      0.000333     -0.000127      0.000000
     74 O3    s      -0.009213     -0.003614     -0.001453      0.000000
     75 O2    s       0.000511     -0.000081     -0.000285      0.000000
     76 O2    s       0.009491     -0.001601     -0.000896      0.000000
     77 O2    s       0.001407      0.000274     -0.000730      0.000000
     78 O2    s       0.009219      0.001072      0.000652      0.000000
     79 O3    s       0.000728     -0.000631     -0.000366      0.000000
     80 O2    s      -0.010168      0.001334     -0.000674      0.000000
     81 O3    s       0.000081      0.000011      0.000119      0.000000
     82 O2    s      -0.001092     -0.000711     -0.001719      0.000000
     83 O3    s       0.000030      0.000085     -0.000468      0.000000
     84 O2    s       0.000487     -0.001056      0.001424      0.000000
     85 O2    s       0.000667      0.000087     -0.000019      0.000000
     86 O2    s      -0.000987     -0.000013      0.000447      0.000000
     87 O2    s       0.006731      0.000130     -0.000054      0.000000
     88 O2    s       0.001047      0.000199      0.000137      0.000000
     89 O3    s      -0.008122      0.000880      0.000335      0.000000
     90 O2    s       0.000053     -0.000394     -0.000012      0.000000
     91 O2    s      -0.006401     -0.001461      0.001664      0.000000
     92 O2    s      -0.000022      0.000082     -0.000021      0.000000
     93 O2    s       0.006149     -0.000823     -0.000237      0.000000
     94 O2    s      -0.000121     -0.000094      0.000157      0.000000
     95 O2    s      -0.003598      0.000749      0.001333      0.000000
     96 O2    s       0.000791      0.000022     -0.000142      0.000000
     97 O2    s       0.000785      0.000302     -0.000912      0.000000
     98 O3    s      -0.003271     -0.001075     -0.001750      0.000000
     99 O2    s       0.002086     -0.000310     -0.001256      0.000000
    100 O2    s       0.000048     -0.000135     -0.000478      0.000000
    101 O2    s       0.000415      0.001615     -0.001099      0.000000
    102 O3    s       0.001085     -0.000956     -0.001799      0.000000
    103 O2    s       0.000195     -0.000693     -0.000388      0.000000
    104 O2    s       0.000094      0.000956     -0.000745      0.000000
    105 O2    s       0.000749      0.000678      0.000185      0.000000
    106 O3    s      -0.002271      0.000421      0.000178      0.000000
    107 O2    s       0.001042     -0.000469     -0.000139      0.000000
    108 O2    s      -0.000687      0.001570      0.000578      0.000000
    109 O2    s       0.001025      0.000909     -0.000216      0.000000
    110 O2    s      -0.002757     -0.002149     -0.000458      0.000000
    111 O2    s       0.002123     -0.001347      0.000066      0.000000
    112 O3    s       0.002571      0.000312      0.000729      0.000000
    113 O2    s      -0.000746     -0.000045      0.001087      0.000000
    114 O2    s       0.001598     -0.000052      0.000921      0.000000
    115 O3    s      -0.001680      0.000768      0.001138      0.000000
    116 O2    s       0.000441      0.000266      0.000422      0.000000
    117 O2    s       0.000861     -0.000857      0.000781      0.000000
    118 O2    s       0.000319      0.000778      0.000784      0.000000
    119 O3    s       0.001140      0.000474      0.001555      0.000000
    120 O2    s       0.000516     -0.000808      0.001525      0.000000
--------------------------------------------------------------------------------
  Maximum abs         0.024039      0.004851      0.004482      0.000000
--------------------------------------------------------------------------------


  Born effective charge tensors : 

-------------------------------------------------------------------------------
  Atom             x           y             z
-------------------------------------------------------------------------------
    1 Ge    x       4.2455      0.1645     -0.0672
            y      -0.0954      3.8892     -0.0105
            z      -0.8230      0.0561      4.5602
-------------------------------------------------------------------------------
    2 Ge    x       3.9420      0.2945      0.0760
            y       0.3686      4.1895      0.2931
            z       0.1644      0.0343      3.4345
-------------------------------------------------------------------------------
    3 Ge    x       4.0380     -0.4462     -0.2255
            y      -0.1127      4.1492      0.3120
            z      -0.2105      0.0418      3.3328
-------------------------------------------------------------------------------
    4 Si    x       3.5391      0.3737      0.1813
            y      -0.0023      3.4643     -0.0294
            z       0.4539      0.1722      3.8728
-------------------------------------------------------------------------------
    5 Si    x       3.5419     -0.0221     -0.4929
            y       0.0653      3.3222      0.0311
            z      -0.4253      0.0682      4.3006
-------------------------------------------------------------------------------
    6 Si    x       3.4389     -0.0352      0.1423
            y       0.0755      3.2518      0.0259
            z       0.4905     -0.0850      3.7344
-------------------------------------------------------------------------------
    7 Si    x       3.4757     -0.1002     -0.2435
            y       0.1371      3.2823      0.0427
            z      -0.4426     -0.0070      3.1312
-------------------------------------------------------------------------------
    8 Si    x       3.7526     -0.1481      0.2552
            y       0.0863      3.3052     -0.0473
            z       0.8183     -0.1057      3.2849
-------------------------------------------------------------------------------
    9 Si    x       3.7293     -0.0685     -0.1375
            y      -0.2930      3.4030     -0.0557
            z      -0.5667      0.0485      3.1219
-------------------------------------------------------------------------------
   10 Si    x       3.5095      0.1696      0.3750
            y      -0.1844      3.2583      0.0076
            z       0.3806      0.0557      3.0818
-------------------------------------------------------------------------------
   11 Si    x       3.4166      0.3716     -0.2161
            y       0.3840      3.5138     -0.3346
            z      -0.2738     -0.1691      3.0026
-------------------------------------------------------------------------------
   12 Si    x       3.1970     -0.2253     -0.0558
            y      -0.2554      3.4256      0.1545
            z      -0.0936      0.0863      2.7923
-------------------------------------------------------------------------------
   13 Si    x       3.1672     -0.2432      0.0970
            y      -0.2542      3.4328     -0.1705
            z       0.1156     -0.0745      2.8041
-------------------------------------------------------------------------------
   14 Si    x       3.2025      0.2723     -0.0678
            y       0.2388      3.4535     -0.1291
            z      -0.1293     -0.0720      2.7808
-------------------------------------------------------------------------------
   15 Si    x       3.1784      0.2843      0.1243
            y       0.2290      3.4622      0.1575
            z       0.1289      0.0834      2.8034
-------------------------------------------------------------------------------
   16 Si    x       3.7314     -0.4376     -0.1505
            y      -0.2702      3.6250      0.3751
            z      -0.1534      0.1776      3.0658
-------------------------------------------------------------------------------
   17 Si    x       3.3503     -0.2898      0.0994
            y      -0.0159      3.8190     -0.0168
            z       0.1578      0.0840      3.1429
-------------------------------------------------------------------------------
   18 Si    x       3.2113      0.2994     -0.1562
            y       0.1474      3.4415     -0.1717
            z      -0.1298     -0.0729      2.7235
-------------------------------------------------------------------------------
   19 Si    x       3.2188      0.2980      0.1472
            y       0.1404      3.4219      0.1586
            z       0.1108      0.0768      2.6966
-------------------------------------------------------------------------------
   20 Si    x       3.2360     -0.3897      0.1497
            y      -0.0608      3.4552     -0.2013
            z       0.1234     -0.0612      2.7261
-------------------------------------------------------------------------------
   21 Si    x       3.4659      0.2620     -0.1420
            y       0.1442      3.8130     -0.0472
            z      -0.1477      0.1074      3.0561
-------------------------------------------------------------------------------
   22 Si    x       3.6135      0.2390     -0.0307
            y       0.2315      3.5344      0.2721
            z       0.0859      0.0705      2.7915
-------------------------------------------------------------------------------
   23 Si    x       3.2563     -0.2585     -0.1186
            y      -0.2691      3.4073      0.1489
            z      -0.1903      0.0703      2.7246
-------------------------------------------------------------------------------
   24 Si    x       3.2475     -0.2689      0.1239
            y      -0.2497      3.3914     -0.1473
            z       0.1165     -0.0500      2.6825
-------------------------------------------------------------------------------
   25 O3    x      -2.0432     -0.9657      0.4700
            y      -0.9209     -2.3502      0.4863
            z       0.5735      0.4817     -1.6121
-------------------------------------------------------------------------------
   26 O3    x      -1.9183     -0.9117     -0.3670
            y      -0.8455     -2.5286     -0.3494
            z      -0.4226     -0.3387     -1.5506
-------------------------------------------------------------------------------
   27 O2    x      -1.6756      0.7029      0.3352
            y       0.6923     -2.0001     -0.3486
            z       0.3381     -0.3434     -1.3496
-------------------------------------------------------------------------------
   28 O2    x      -1.6529      0.7067     -0.2965
            y       0.6869     -1.9815      0.3050
            z      -0.3515      0.3113     -1.3500
-------------------------------------------------------------------------------
   29 O2    x      -1.7346     -0.7378      0.3329
            y      -0.7592     -2.0020      0.3295
            z       0.3597      0.3330     -1.3256
-------------------------------------------------------------------------------
   30 O2    x      -1.7136     -0.7316     -0.3241
            y      -0.7525     -1.9855     -0.3554
            z      -0.3866     -0.3446     -1.3465
-------------------------------------------------------------------------------
   31 O3    x      -2.0782      0.9346      0.4237
            y       0.9630     -2.2829     -0.4777
            z       0.5082     -0.4591     -1.6420
-------------------------------------------------------------------------------
   32 O2    x      -1.8287      0.6616     -0.3180
            y       0.7000     -1.8422      0.3184
            z      -0.3658      0.2862     -1.3630
-------------------------------------------------------------------------------
   33 O3    x      -1.9374     -0.0043      1.1098
            y      -0.0020     -1.2082     -0.0060
            z       1.3530     -0.0309     -3.5359
-------------------------------------------------------------------------------
   34 O2    x      -1.6138     -0.0519     -0.7943
            y      -0.0145     -1.0968     -0.0431
            z      -1.0231     -0.0740     -2.7052
-------------------------------------------------------------------------------
   35 O3    x      -2.1453      0.0210     -1.0609
            y       0.0213     -1.2593      0.0045
            z      -1.0648     -0.0075     -2.7296
-------------------------------------------------------------------------------
   36 O2    x      -1.6475     -0.0265      0.7217
            y      -0.0168     -1.1193      0.0199
            z       0.6815      0.0216     -2.3212
-------------------------------------------------------------------------------
   37 O2    x      -1.7528     -0.0508     -0.6744
            y       0.0082     -1.1176     -0.0387
            z      -0.6315     -0.0729     -2.1783
-------------------------------------------------------------------------------
   38 O2    x      -1.7916     -0.0282      0.7421
            y      -0.0015     -1.1070      0.0202
            z       0.7482      0.0397     -2.1577
-------------------------------------------------------------------------------
   39 O2    x      -1.7543     -0.7292      0.3341
            y      -0.7082     -1.9400      0.3294
            z       0.3446      0.3267     -1.2375
-------------------------------------------------------------------------------
   40 O2    x      -1.7322     -0.7091     -0.2455
            y      -0.6866     -1.9384     -0.2873
            z      -0.3189     -0.2842     -1.2271
-------------------------------------------------------------------------------
   41 O3    x      -2.1542      0.9715      0.3483
            y       0.9255     -2.2861     -0.3944
            z       0.3677     -0.3426     -1.4590
-------------------------------------------------------------------------------
   42 O2    x      -1.7796      0.7347     -0.4108
            y       0.6827     -1.9497      0.4262
            z      -0.3543      0.3665     -1.2564
-------------------------------------------------------------------------------
   43 O2    x      -1.6845     -0.6669      0.3430
            y      -0.5931     -1.9376      0.3707
            z       0.3705      0.3260     -1.2849
-------------------------------------------------------------------------------
   44 O2    x      -1.6651     -0.7024     -0.3850
            y      -0.5661     -2.0661     -0.4053
            z      -0.3481     -0.3589     -1.2428
-------------------------------------------------------------------------------
   45 O2    x      -1.6980      0.7107      0.3548
            y       0.6487     -2.0273     -0.3729
            z       0.3896     -0.3680     -1.2318
-------------------------------------------------------------------------------
   46 O2    x      -1.6557      0.6876     -0.2590
            y       0.6184     -2.0126      0.2747
            z      -0.3250      0.2750     -1.2237
-------------------------------------------------------------------------------
   47 O2    x      -1.7935     -0.0002     -0.5880
            y       0.0055     -1.2083     -0.0367
            z      -0.3232     -0.0515     -1.7318
-------------------------------------------------------------------------------
   48 O2    x      -1.8630     -0.0620      0.5791
            y      -0.0329     -1.1815      0.0361
            z       0.3274      0.0264     -1.6508
-------------------------------------------------------------------------------
   49 O2    x      -1.1917     -0.0375      0.0538
            y      -0.0768     -2.4607     -0.0470
            z       0.0754     -0.0335     -1.0958
-------------------------------------------------------------------------------
   50 O3    x      -1.3894     -0.1823     -0.0642
            y      -0.2586     -3.1762     -0.0903
            z      -0.0961     -0.0562     -1.1646
-------------------------------------------------------------------------------
   51 O2    x      -1.1623      0.0262      0.0531
            y       0.0379     -2.5567     -0.0041
            z       0.0740      0.0058     -1.0629
-------------------------------------------------------------------------------
   52 O2    x      -1.1474      0.0189     -0.0666
            y       0.0324     -2.5565      0.0202
            z      -0.0810     -0.0015     -1.0718
-------------------------------------------------------------------------------
   53 O2    x      -2.3839      0.1806      0.0034
            y       0.1315     -1.2637      0.0606
            z       0.0008      0.0290     -1.1072
-------------------------------------------------------------------------------
   54 O3    x      -3.0111      0.1032     -0.0514
            y       0.0049     -1.3672     -0.0917
            z      -0.0814     -0.0386     -1.2466
-------------------------------------------------------------------------------
   55 O2    x      -2.3838     -0.0506     -0.0378
            y      -0.0190     -1.2472     -0.0677
            z      -0.0291     -0.0518     -1.0646
-------------------------------------------------------------------------------
   56 O2    x      -2.3680     -0.0480     -0.0520
            y      -0.0177     -1.2419      0.0657
            z      -0.0458      0.0469     -1.0772
-------------------------------------------------------------------------------
   57 O2    x      -1.2125     -0.1199     -0.1129
            y      -0.1032     -1.3100      0.0111
            z      -0.1095      0.0231     -2.0607
-------------------------------------------------------------------------------
   58 O3    x      -1.3792     -0.1768     -0.0580
            y      -0.1511     -1.4426     -0.0395
            z      -0.0417     -0.0168     -2.5751
-------------------------------------------------------------------------------
   59 O2    x      -1.1977      0.1280     -0.0063
            y       0.1172     -1.2632      0.0011
            z      -0.0104     -0.0064     -2.0470
-------------------------------------------------------------------------------
   60 O2    x      -1.1831      0.1211      0.0586
            y       0.1173     -1.2710     -0.0027
            z       0.0707      0.0089     -2.0702
-------------------------------------------------------------------------------
   61 O2    x      -1.1741     -0.1208      0.0126
            y      -0.0904     -1.2715      0.0043
            z       0.0288     -0.0137     -2.0492
-------------------------------------------------------------------------------
   62 O2    x      -1.1712     -0.1266      0.0454
            y      -0.0992     -1.2817     -0.0260
            z       0.0383     -0.0067     -2.0577
-------------------------------------------------------------------------------
   63 O2    x      -1.1971      0.1329     -0.0250
            y       0.0651     -1.3259      0.0184
            z      -0.0271      0.0271     -2.0590
-------------------------------------------------------------------------------
   64 O3    x      -1.3401      0.1582      0.0090
            y       0.0863     -1.4531     -0.0252
            z      -0.0006     -0.0138     -2.5958
-------------------------------------------------------------------------------
   65 O2    x      -1.2188      0.0324      0.0809
            y       0.0791     -2.5174      0.0174
            z       0.1042     -0.0032     -1.0201
-------------------------------------------------------------------------------
   66 O2    x      -1.2098      0.0312     -0.0855
            y       0.0854     -2.4894     -0.0067
            z      -0.0935     -0.0017     -1.0249
-------------------------------------------------------------------------------
   67 O3    x      -1.4395      0.0035      0.0960
            y      -0.0912     -3.1509     -0.1051
            z       0.1188     -0.0735     -1.1122
-------------------------------------------------------------------------------
   68 O2    x      -1.2653     -0.0963     -0.0720
            y      -0.1809     -2.5372     -0.0470
            z      -0.0948     -0.0301     -1.0123
-------------------------------------------------------------------------------
   69 O2    x      -2.4075     -0.0505     -0.0321
            y      -0.0410     -1.2348      0.0598
            z      -0.0133      0.0357     -1.0375
-------------------------------------------------------------------------------
   70 O2    x      -2.3949     -0.0398     -0.0475
            y      -0.0223     -1.2344     -0.0663
            z      -0.0166     -0.0443     -1.0481
-------------------------------------------------------------------------------
   71 O3    x      -3.0551      0.1762      0.1737
            y       0.1297     -1.3823     -0.1122
            z       0.1467     -0.0474     -1.2244
-------------------------------------------------------------------------------
   72 O2    x      -2.5079      0.0877      0.0865
            y       0.0272     -1.2471      0.0499
            z       0.0755      0.0092     -1.0495
-------------------------------------------------------------------------------




  Elastic Constant Matrix: (Units=GPa)

-------------------------------------------------------------------------------
  Indices      1         2         3         4         5         6    
-------------------------------------------------------------------------------
       1     50.4209   26.2677   25.2096    0.4628   -3.4934    7.5423
       2     26.2677   76.0012   22.5496    0.5166   -4.6173    7.0983
       3     25.2096   22.5496   32.2193    0.2782   -3.1088    5.2563
       4      0.4628    0.5166    0.2782   11.1943    0.8744    0.9903
       5     -3.4934   -4.6173   -3.1088    0.8744   23.2449    1.7712
       6      7.5423    7.0983    5.2563    0.9903    1.7712   23.4397
-------------------------------------------------------------------------------


  Elastic Compliance Matrix: (Units=1/GPa)

-------------------------------------------------------------------------------
  Indices      1         2         3         4         5         6    
-------------------------------------------------------------------------------
       1    0.034451 -0.004602 -0.022816 -0.000354  0.001582 -0.004680
       2   -0.004602  0.017463 -0.008092 -0.000373  0.001870 -0.002119
       3   -0.022816 -0.008092  0.055256 -0.000010  0.002567 -0.002793
       4   -0.000354 -0.000373 -0.000010  0.089912 -0.003258 -0.003323
       5    0.001582  0.001870  0.002567 -0.003258  0.044467 -0.004874
       6   -0.004680 -0.002119 -0.002793 -0.003323 -0.004874  0.045945
-------------------------------------------------------------------------------

  Mechanical properties :

-------------------------------------------------------------------------------
  Convention :                    Reuss         Voigt         Hill
-------------------------------------------------------------------------------
  Bulk  Modulus (GPa)     =      27.66198      34.07724      30.86961
  Shear Modulus (GPa)     =      13.49296      17.21673      15.35485
-------------------------------------------------------------------------------
  Velocity S-wave (km/s)  =       2.63400       2.97535       2.80986
  Velocity P-wave (km/s)  =       4.84501       5.41533       5.13809
-------------------------------------------------------------------------------
  Compressibility (1/GPa) =    0.03615071
-------------------------------------------------------------------------------
  Stress axis :                     x             y             z
-------------------------------------------------------------------------------
  Youngs Moduli (GPa)     =      29.02680      57.26340      18.09758
-------------------------------------------------------------------------------
  Poissons Ratio (x)      =                     0.26353       0.41291
  Poissons Ratio (y)      =       0.13358                     0.14645
  Poissons Ratio (z)      =       0.66227       0.46337
-------------------------------------------------------------------------------


  Piezoelectric Strain Matrix: (Units=C/m**2)

-------------------------------------------------------------------------------
  Indices      1         2         3         4         5         6    
-------------------------------------------------------------------------------
       x    -0.25390   0.05388   0.35965  -0.03610   0.37761   0.26224
       y     0.44741   0.58249   0.06458   0.30190  -0.16163   0.23556
       z     0.07527  -0.20457   0.17808   0.11935  -0.45400  -0.15675
-------------------------------------------------------------------------------


  Piezoelectric Stress Matrix: (Units=10**-11 C/N)

-------------------------------------------------------------------------------
  Indices      1         2         3         4         5         6    
-------------------------------------------------------------------------------
       x    -1.78180  -0.06368   2.54674  -0.52808   1.62531   1.03978
       y     0.97946   0.66764  -1.24287   2.65116  -0.73554   0.70990
       z    -0.05553  -0.59215   0.90490   1.27791  -1.96192  -0.58022
-------------------------------------------------------------------------------


  Static dielectric constant tensor : 

-------------------------------------------------------------------------------
              x         y         z
-------------------------------------------------------------------------------
       x     3.97965  -0.01258  -0.08455
       y    -0.01258   4.14293   0.00867
       z    -0.08455   0.00867   3.36710
--------------------------------------------------------------------------------

  High frequency dielectric constant tensor : 

-------------------------------------------------------------------------------
              x         y         z
-------------------------------------------------------------------------------
       x     1.67566   0.00101   0.00008
       y     0.00101   1.68254   0.00152
       z     0.00008   0.00152   1.61437
-------------------------------------------------------------------------------

  Static refractive indices : 

-------------------------------------------------------------------------------
    1 =    1.83182      2 =    1.99747      3 =    2.03573
-------------------------------------------------------------------------------

  High frequency refractive indices : 

-------------------------------------------------------------------------------
    1 =    1.27057      2 =    1.29442      3 =    1.29720
-------------------------------------------------------------------------------


  Time to end of optimisation =       5.4709 seconds


  Peak dynamic memory used =       5.01 MB 


  Timing analysis for GULP :

--------------------------------------------------------------------------------
  Task / Subroutine                                          Time (Seconds)
--------------------------------------------------------------------------------
  Calculation of reciprocal space energy and derivatives          0.3657
  Calculation of real space energy and derivatives                3.4065
  Calculation of three-body energy and derivatives                0.3059
  Calculation and manipulation of Hessian matrix                  1.5306
  Calculation of matrix inversion                                 0.0322
--------------------------------------------------------------------------------
  Total CPU time                                                  5.4709
--------------------------------------------------------------------------------


  Dump file written as c00080.vasp.grs
  CIF file written as c00080.vasp.cif


  Job Finished at 11:40.27  7th October    2025                               

