********************************************************************************
*                       GENERAL UTILITY LATTICE PROGRAM                        *
*                                 Julian Gale                                  *
*                       Curtin Institute for Computation                       *
*                    School of Molecular and Life Sciences                     *
*                    Curtin University, Western Australia                      *
********************************************************************************
* Version = 6.1.2 * Last modified =   3rd November 2022                        *
********************************************************************************
*  optimise     - perform optimisation run                                     *
*  conp         - constant pressure calculation                                *
*  property     - calculate properties for final geometry                      *
********************************************************************************

  Job Started  at 11:35.29  7th October    2025                               

  Number of CPUs =     1


  Total number of configurations input =      1

********************************************************************************
*  Input for Configuration =   1 : c00053.vasp                                 *
********************************************************************************

  Formula = Ge3Si21O48                                                  

  Number of irreducible atoms/shells =     120


  Total number atoms/shells =     120

  Dimensionality = 3               :  Bulk   



  Cartesian lattice vectors (Angstroms) :

       17.182800    0.000000    0.000000
        0.000000    7.513760    0.000000
        0.000000    0.000000   10.447700

  Cell parameters (Angstroms/Degrees):

  a =      17.1828    alpha =  90.0000
  b =       7.5138    beta  =  90.0000
  c =      10.4477    gamma =  90.0000

  Initial cell volume =        1348.875752 Angs**3

  Temperature of configuration =   0.00     K 

  Pressure of configuration =         0.000 GPa 

  Fractional coordinates of asymmetric unit :

--------------------------------------------------------------------------------
   No.  Atomic       x           y          z         Charge      Occupancy
        Label      (Frac)      (Frac)     (Frac)        (e)         (Frac)  
--------------------------------------------------------------------------------
      1 Ge    c    0.052090    0.000000    0.372270     4.00000    1.000000    
      2 Ge    c    0.056730 *  0.000000 *  0.877870 *   4.00000    1.000000    
      3 Ge    c    0.660190 *  0.706090 *  0.726560 *   4.00000    1.000000    
      4 Si    c    0.447910 *  0.000000 *  0.372270 *   4.00000    1.000000    
      5 Si    c    0.947910 *  0.000000 *  0.627730 *   4.00000    1.000000    
      6 Si    c    0.552090 *  0.000000 *  0.627730 *   4.00000    1.000000    
      7 Si    c    0.556730 *  0.000000 *  0.122130 *   4.00000    1.000000    
      8 Si    c    0.943270 *  0.000000 *  0.122130 *   4.00000    1.000000    
      9 Si    c    0.443270 *  0.000000 *  0.877870 *   4.00000    1.000000    
     10 Si    c    0.160190 *  0.293910 *  0.273440 *   4.00000    1.000000    
     11 Si    c    0.339810 *  0.706090 *  0.273440 *   4.00000    1.000000    
     12 Si    c    0.839810 *  0.293910 *  0.726560 *   4.00000    1.000000    
     13 Si    c    0.839810 *  0.706090 *  0.726560 *   4.00000    1.000000    
     14 Si    c    0.660190 *  0.293910 *  0.726560 *   4.00000    1.000000    
     15 Si    c    0.160190 *  0.706090 *  0.273440 *   4.00000    1.000000    
     16 Si    c    0.339810 *  0.293910 *  0.273440 *   4.00000    1.000000    
     17 Si    c    0.660660 *  0.294090 *  0.017440 *   4.00000    1.000000    
     18 Si    c    0.839340 *  0.705910 *  0.017440 *   4.00000    1.000000    
     19 Si    c    0.339340 *  0.294090 *  0.982560 *   4.00000    1.000000    
     20 Si    c    0.160660 *  0.705910 *  0.982560 *   4.00000    1.000000    
     21 Si    c    0.339340 *  0.705910 *  0.982560 *   4.00000    1.000000    
     22 Si    c    0.160660 *  0.294090 *  0.982560 *   4.00000    1.000000    
     23 Si    c    0.660660 *  0.705910 *  0.017440 *   4.00000    1.000000    
     24 Si    c    0.839340 *  0.294090 *  0.017440 *   4.00000    1.000000    
     25 O3    c    0.106570 *  0.174340 *  0.366200 *   1.33043    1.000000    
     26 O2    c    0.393430 *  0.825660 *  0.366200 *   0.87073    1.000000    
     27 O2    c    0.893430 *  0.174340 *  0.633800 *   0.87073    1.000000    
     28 O3    c    0.606570 *  0.825660 *  0.633800 *   1.33043    1.000000    
     29 O2    c    0.893430 *  0.825660 *  0.633800 *   0.87073    1.000000    
     30 O2    c    0.606570 *  0.174340 *  0.633800 *   0.87073    1.000000    
     31 O3    c    0.106570 *  0.825660 *  0.366200 *   1.33043    1.000000    
     32 O2    c    0.393430 *  0.174340 *  0.366200 *   0.87073    1.000000    
     33 O3    c    0.000000 *  0.000000 *  0.500000 *   1.33043    1.000000    
     34 O2    c    0.500000 *  0.000000 *  0.500000 *   0.87073    1.000000    
     35 O3    c    0.994520 *  0.000000 *  0.250840 *   1.33043    1.000000    
     36 O2    c    0.505480 *  0.000000 *  0.250840 *   0.87073    1.000000    
     37 O3    c    0.005480 *  0.000000 *  0.749160 *   1.33043    1.000000    
     38 O2    c    0.494520 *  0.000000 *  0.749160 *   0.87073    1.000000    
     39 O2    c    0.610230 *  0.175520 *  0.115390 *   0.87073    1.000000    
     40 O2    c    0.889770 *  0.824480 *  0.115390 *   0.87073    1.000000    
     41 O2    c    0.389770 *  0.175520 *  0.884610 *   0.87073    1.000000    
     42 O3    c    0.110230 *  0.824480 *  0.884610 *   1.33043    1.000000    
     43 O2    c    0.389770 *  0.824480 *  0.884610 *   0.87073    1.000000    
     44 O3    c    0.110230 *  0.175520 *  0.884610 *   1.33043    1.000000    
     45 O2    c    0.610230 *  0.824480 *  0.115390 *   0.87073    1.000000    
     46 O2    c    0.889770 *  0.175520 *  0.115390 *   0.87073    1.000000    
     47 O2    c    0.500000 *  0.000000 *  0.000000 *   0.87073    1.000000    
     48 O3    c    0.000000 *  0.000000 *  0.000000 *   1.33043    1.000000    
     49 O2    c    0.151750 *  0.500000 *  0.313330 *   0.87073    1.000000    
     50 O2    c    0.348250 *  0.500000 *  0.313330 *   0.87073    1.000000    
     51 O2    c    0.848250 *  0.500000 *  0.686670 *   0.87073    1.000000    
     52 O3    c    0.651750 *  0.500000 *  0.686670 *   1.33043    1.000000    
     53 O2    c    0.250000 *  0.234950 *  0.285720 *   0.87073    1.000000    
     54 O2    c    0.250000 *  0.765050 *  0.285720 *   0.87073    1.000000    
     55 O2    c    0.750000 *  0.234950 *  0.714280 *   0.87073    1.000000    
     56 O3    c    0.750000 *  0.765050 *  0.714280 *   1.33043    1.000000    
     57 O2    c    0.131410 *  0.268650 *  0.127790 *   0.87073    1.000000    
     58 O2    c    0.368590 *  0.731350 *  0.127790 *   0.87073    1.000000    
     59 O2    c    0.868590 *  0.268650 *  0.872210 *   0.87073    1.000000    
     60 O3    c    0.631410 *  0.731350 *  0.872210 *   1.33043    1.000000    
     61 O2    c    0.868590 *  0.731350 *  0.872210 *   0.87073    1.000000    
     62 O2    c    0.631410 *  0.268650 *  0.872210 *   0.87073    1.000000    
     63 O2    c    0.131410 *  0.731350 *  0.127790 *   0.87073    1.000000    
     64 O2    c    0.368590 *  0.268650 *  0.127790 *   0.87073    1.000000    
     65 O2    c    0.653920 *  0.500000 *  0.058200 *   0.87073    1.000000    
     66 O2    c    0.846080 *  0.500000 *  0.058200 *   0.87073    1.000000    
     67 O2    c    0.346080 *  0.500000 *  0.941800 *   0.87073    1.000000    
     68 O2    c    0.153920 *  0.500000 *  0.941800 *   0.87073    1.000000    
     69 O2    c    0.750000 *  0.231060 *  0.027050 *   0.87073    1.000000    
     70 O2    c    0.750000 *  0.768940 *  0.027050 *   0.87073    1.000000    
     71 O2    c    0.250000 *  0.231060 *  0.972950 *   0.87073    1.000000    
     72 O2    c    0.250000 *  0.768940 *  0.972950 *   0.87073    1.000000    
     73 O3    s    0.106570 *  0.174340 *  0.366200 *  -3.33043    1.000000    
     74 O2    s    0.393430 *  0.825660 *  0.366200 *  -2.87073    1.000000    
     75 O2    s    0.893430 *  0.174340 *  0.633800 *  -2.87073    1.000000    
     76 O3    s    0.606570 *  0.825660 *  0.633800 *  -3.33043    1.000000    
     77 O2    s    0.893430 *  0.825660 *  0.633800 *  -2.87073    1.000000    
     78 O2    s    0.606570 *  0.174340 *  0.633800 *  -2.87073    1.000000    
     79 O3    s    0.106570 *  0.825660 *  0.366200 *  -3.33043    1.000000    
     80 O2    s    0.393430 *  0.174340 *  0.366200 *  -2.87073    1.000000    
     81 O3    s    0.000000 *  0.000000 *  0.500000 *  -3.33043    1.000000    
     82 O2    s    0.500000 *  0.000000 *  0.500000 *  -2.87073    1.000000    
     83 O3    s    0.994520 *  0.000000 *  0.250840 *  -3.33043    1.000000    
     84 O2    s    0.505480 *  0.000000 *  0.250840 *  -2.87073    1.000000    
     85 O3    s    0.005480 *  0.000000 *  0.749160 *  -3.33043    1.000000    
     86 O2    s    0.494520 *  0.000000 *  0.749160 *  -2.87073    1.000000    
     87 O2    s    0.610230 *  0.175520 *  0.115390 *  -2.87073    1.000000    
     88 O2    s    0.889770 *  0.824480 *  0.115390 *  -2.87073    1.000000    
     89 O2    s    0.389770 *  0.175520 *  0.884610 *  -2.87073    1.000000    
     90 O3    s    0.110230 *  0.824480 *  0.884610 *  -3.33043    1.000000    
     91 O2    s    0.389770 *  0.824480 *  0.884610 *  -2.87073    1.000000    
     92 O3    s    0.110230 *  0.175520 *  0.884610 *  -3.33043    1.000000    
     93 O2    s    0.610230 *  0.824480 *  0.115390 *  -2.87073    1.000000    
     94 O2    s    0.889770 *  0.175520 *  0.115390 *  -2.87073    1.000000    
     95 O2    s    0.500000 *  0.000000 *  0.000000 *  -2.87073    1.000000    
     96 O3    s    0.000000 *  0.000000 *  0.000000 *  -3.33043    1.000000    
     97 O2    s    0.151750 *  0.500000 *  0.313330 *  -2.87073    1.000000    
     98 O2    s    0.348250 *  0.500000 *  0.313330 *  -2.87073    1.000000    
     99 O2    s    0.848250 *  0.500000 *  0.686670 *  -2.87073    1.000000    
    100 O3    s    0.651750 *  0.500000 *  0.686670 *  -3.33043    1.000000    
    101 O2    s    0.250000 *  0.234950 *  0.285720 *  -2.87073    1.000000    
    102 O2    s    0.250000 *  0.765050 *  0.285720 *  -2.87073    1.000000    
    103 O2    s    0.750000 *  0.234950 *  0.714280 *  -2.87073    1.000000    
    104 O3    s    0.750000 *  0.765050 *  0.714280 *  -3.33043    1.000000    
    105 O2    s    0.131410 *  0.268650 *  0.127790 *  -2.87073    1.000000    
    106 O2    s    0.368590 *  0.731350 *  0.127790 *  -2.87073    1.000000    
    107 O2    s    0.868590 *  0.268650 *  0.872210 *  -2.87073    1.000000    
    108 O3    s    0.631410 *  0.731350 *  0.872210 *  -3.33043    1.000000    
    109 O2    s    0.868590 *  0.731350 *  0.872210 *  -2.87073    1.000000    
    110 O2    s    0.631410 *  0.268650 *  0.872210 *  -2.87073    1.000000    
    111 O2    s    0.131410 *  0.731350 *  0.127790 *  -2.87073    1.000000    
    112 O2    s    0.368590 *  0.268650 *  0.127790 *  -2.87073    1.000000    
    113 O2    s    0.653920 *  0.500000 *  0.058200 *  -2.87073    1.000000    
    114 O2    s    0.846080 *  0.500000 *  0.058200 *  -2.87073    1.000000    
    115 O2    s    0.346080 *  0.500000 *  0.941800 *  -2.87073    1.000000    
    116 O2    s    0.153920 *  0.500000 *  0.941800 *  -2.87073    1.000000    
    117 O2    s    0.750000 *  0.231060 *  0.027050 *  -2.87073    1.000000    
    118 O2    s    0.750000 *  0.768940 *  0.027050 *  -2.87073    1.000000    
    119 O2    s    0.250000 *  0.231060 *  0.972950 *  -2.87073    1.000000    
    120 O2    s    0.250000 *  0.768940 *  0.972950 *  -2.87073    1.000000    
--------------------------------------------------------------------------------



********************************************************************************
*  General input information                                                   *
********************************************************************************

  Species output for all configurations : 

--------------------------------------------------------------------------------
  Species    Type    Atomic    Atomic    Charge       Radii (Angs)     Library
                     Number     Mass       (e)     Cova   Ionic  VDW   Symbol
--------------------------------------------------------------------------------
    Ge       Core       32      72.61   4.000000   1.170  0.000  1.750 Ge       
    Si       Core       14      28.09   4.000000   1.200  0.000  2.100 Si       
    O1       Core        8      16.00   1.733957   0.730  0.000  0.000 O1       
    O2       Core        8      16.00   0.870733   0.730  0.000  1.360 O2       
    O3       Core        8      16.00   1.330431   0.730  0.000  1.360 O3       
    O1       Shell       8       0.00  -3.733957   0.730  0.000  0.000 O1       
    O2       Shell       8       0.00  -2.870733   0.730  0.000  0.000 O2       
    O3       Shell       8       0.00  -3.330431   0.730  0.000  0.000 O3       
--------------------------------------------------------------------------------


  Lattice summation method               =    Ewald          (3-D)
                                         =    Parry          (2-D)
                                         =    Saunders et al (1-D)
  Accuracy factor for lattice sums       =   12.000


  Analytic derivatives to be used

  Time limit = Infinity

  Maximum range for interatomic potentials =    100000.000000 Angstroms

  General interatomic potentials :

--------------------------------------------------------------------------------
Atom  Types   Potential      Parameter       Value         Units   Cutoffs(Ang)
  1     2                                                            Min /  Max 
--------------------------------------------------------------------------------
Si   c O1   s Buckingham    Buckingham A     1315.2478    eV        0.000 16.000
                            Buckingham rho  0.31775900    Ang       
                            Buckingham C     10.141118    eV*Ang^6  
--------------------------------------------------------------------------------
Si   c O2   s Buckingham    Buckingham A     1315.2478    eV        0.000 16.000
                            Buckingham rho  0.31775900    Ang       
                            Buckingham C     10.141118    eV*Ang^6  
--------------------------------------------------------------------------------
Si   c O3   s Buckingham    Buckingham A     1315.2478    eV        0.000 16.000
                            Buckingham rho  0.31775900    Ang       
                            Buckingham C     10.141118    eV*Ang^6  
--------------------------------------------------------------------------------
Ge   c O1   s Buckingham    Buckingham A     1497.3996    eV        0.000 16.000
                            Buckingham rho  0.32564600    Ang       
                            Buckingham C     16.808599    eV*Ang^6  
--------------------------------------------------------------------------------
Ge   c O2   s Buckingham    Buckingham A     1497.3996    eV        0.000 16.000
                            Buckingham rho  0.32564600    Ang       
                            Buckingham C     16.808599    eV*Ang^6  
--------------------------------------------------------------------------------
Ge   c O3   s Buckingham    Buckingham A     1497.3996    eV        0.000 16.000
                            Buckingham rho  0.32564600    Ang       
                            Buckingham C     16.808599    eV*Ang^6  
--------------------------------------------------------------------------------
O1   s O1   s Buckingham    Buckingham A     22764.000    eV        0.000 16.000
                            Buckingham rho  0.14900000    Ang       
                            Buckingham C     10.937044    eV*Ang^6  
--------------------------------------------------------------------------------
O1   s O2   s Buckingham    Buckingham A     22764.000    eV        0.000 16.000
                            Buckingham rho  0.14900000    Ang       
                            Buckingham C     10.937044    eV*Ang^6  
--------------------------------------------------------------------------------
O1   s O3   s Buckingham    Buckingham A     22764.000    eV        0.000 16.000
                            Buckingham rho  0.14900000    Ang       
                            Buckingham C     10.937044    eV*Ang^6  
--------------------------------------------------------------------------------
O2   s O2   s Buckingham    Buckingham A     22764.000    eV        0.000 16.000
                            Buckingham rho  0.14900000    Ang       
                            Buckingham C     10.937044    eV*Ang^6  
--------------------------------------------------------------------------------
O2   s O3   s Buckingham    Buckingham A     22764.000    eV        0.000 16.000
                            Buckingham rho  0.14900000    Ang       
                            Buckingham C     10.937044    eV*Ang^6  
--------------------------------------------------------------------------------
O3   s O3   s Buckingham    Buckingham A     22764.000    eV        0.000 16.000
                            Buckingham rho  0.14900000    Ang       
                            Buckingham C     10.937044    eV*Ang^6  
--------------------------------------------------------------------------------
O1   c O1   s Spring (c-s)  Spring k 2       180.31577    eV*Ang^-2 0.000  0.800
                            Spring k 4       0.0000000    eV*Ang^-4 
--------------------------------------------------------------------------------
O2   c O2   s Spring (c-s)  Spring k 2       75.969800    eV*Ang^-2 0.000  0.800
                            Spring k 4       0.0000000    eV*Ang^-4 
--------------------------------------------------------------------------------
O3   c O3   s Spring (c-s)  Spring k 2       128.14270    eV*Ang^-2 0.000  0.800
                            Spring k 4       0.0000000    eV*Ang^-4 
--------------------------------------------------------------------------------

  General Three-body potentials :

--------------------------------------------------------------------------------
  Atoms       Potential      Parameter       Value         Units   Cutoffs(Ang)
  1 / 2 / 3                                                          Min /  Max 
--------------------------------------------------------------------------------
Si    core    Harmonic      Three-body cnst  1.2614000    eV*rad^-2 0.000  1.900
O1    shel                  Three-body angl  109.47000    degrees   0.000  1.900
O1    shel                  Three-body k4    0.0000000    eV*rad^-4 0.000  3.500
                            Three-body k3    0.0000000    eV*rad^-3 
--------------------------------------------------------------------------------
Si    core    Harmonic      Three-body cnst  1.2614000    eV*rad^-2 0.000  1.900
O1    shel                  Three-body angl  109.47000    degrees   0.000  1.900
õ(1   shel                  Three-body k4    0.0000000    eV*rad^-4 0.000  3.500
                            Three-body k3    0.0000000    eV*rad^-3 
--------------------------------------------------------------------------------
Si    core    Harmonic      Three-body cnst  1.2614000    eV*rad^-2 0.000  1.900
õ(1   shel                  Three-body angl  109.47000    degrees   0.000  1.900
õ(1   shel                  Three-body k4    0.0000000    eV*rad^-4 0.000  3.500
                            Three-body k3    0.0000000    eV*rad^-3 
--------------------------------------------------------------------------------
Si    core    Harmonic      Three-body cnst  1.2614000    eV*rad^-2 0.000  1.900
O1    shel                  Three-body angl  109.47000    degrees   0.000  1.900
O2    shel                  Three-body k4    0.0000000    eV*rad^-4 0.000  3.500
                            Three-body k3    0.0000000    eV*rad^-3 
--------------------------------------------------------------------------------
Si    core    Harmonic      Three-body cnst  1.2614000    eV*rad^-2 0.000  1.900
O1    shel                  Three-body angl  109.47000    degrees   0.000  1.900
õ(2   shel                  Three-body k4    0.0000000    eV*rad^-4 0.000  3.500
                            Three-body k3    0.0000000    eV*rad^-3 
--------------------------------------------------------------------------------
Si    core    Harmonic      Three-body cnst  1.2614000    eV*rad^-2 0.000  1.900
O2    shel                  Three-body angl  109.47000    degrees   0.000  1.900
õ(1   shel                  Three-body k4    0.0000000    eV*rad^-4 0.000  3.500
                            Three-body k3    0.0000000    eV*rad^-3 
--------------------------------------------------------------------------------
Si    core    Harmonic      Three-body cnst  1.2614000    eV*rad^-2 0.000  1.900
õ(1   shel                  Three-body angl  109.47000    degrees   0.000  1.900
õ(2   shel                  Three-body k4    0.0000000    eV*rad^-4 0.000  3.500
                            Three-body k3    0.0000000    eV*rad^-3 
--------------------------------------------------------------------------------
Si    core    Harmonic      Three-body cnst  1.2614000    eV*rad^-2 0.000  1.900
O2    shel                  Three-body angl  109.47000    degrees   0.000  1.900
O2    shel                  Three-body k4    0.0000000    eV*rad^-4 0.000  3.500
                            Three-body k3    0.0000000    eV*rad^-3 
--------------------------------------------------------------------------------
Si    core    Harmonic      Three-body cnst  1.2614000    eV*rad^-2 0.000  1.900
O2    shel                  Three-body angl  109.47000    degrees   0.000  1.900
õ(2   shel                  Three-body k4    0.0000000    eV*rad^-4 0.000  3.500
                            Three-body k3    0.0000000    eV*rad^-3 
--------------------------------------------------------------------------------
Si    core    Harmonic      Three-body cnst  1.2614000    eV*rad^-2 0.000  1.900
õ(2   shel                  Three-body angl  109.47000    degrees   0.000  1.900
õ(2   shel                  Three-body k4    0.0000000    eV*rad^-4 0.000  3.500
                            Three-body k3    0.0000000    eV*rad^-3 
--------------------------------------------------------------------------------

********************************************************************************
*  Output for configuration   1 : c00053.vasp                                  *
********************************************************************************


  Components of energy : 

--------------------------------------------------------------------------------
  Interatomic potentials     =         760.33974970 eV    
  Three-body potentials      =           0.01224037 eV    
  Monopole - monopole (real) =       -2676.00317479 eV    
  Monopole - monopole (recip)=       -1115.35404472 eV    
  Monopole - monopole (total)=       -3791.35721950 eV    
--------------------------------------------------------------------------------
  Total lattice energy       =       -3031.00522943 eV    
--------------------------------------------------------------------------------
  Total lattice energy       =         -292445.6715 kJ/(mole unit cells)
--------------------------------------------------------------------------------


  Number of variables =      363

  Maximum number of calculations  =          1000
  Maximum Hessian update interval =            10
  Maximum step size               =   0.100000000
  Maximum parameter tolerance     =   0.000010000
  Maximum function  tolerance     =   0.000010000
  Maximum gradient  tolerance     =   0.001000000
  Maximum gradient  component     =   0.010000000

  Symmetry not applied to optimisation

  Cell parameters to be optimised using strains

  Newton-Raphson optimiser to be used

  BFGS hessian update to be used

  Lower half triangular hessian to be used

  Minimiser to switch to RFO
  When gradient norm is less than     0.050000

  Dumpfile to be written after every cycle

  Start of bulk optimisation :

  Cycle:      0 Energy:     -3031.005229  Gnorm:      4.346924  CPU:    0.121
  ** Hessian calculated **
  Cycle:      1 Energy:     -3061.902990  Gnorm:      0.979438  CPU:    0.281
  ** Hessian calculated **
  Cycle:      2 Energy:     -3064.406606  Gnorm:      0.545086  CPU:    0.510
  Cycle:      3 Energy:     -3065.215173  Gnorm:      0.354754  CPU:    0.640
  Cycle:      4 Energy:     -3065.906931  Gnorm:      0.277961  CPU:    0.793
  Cycle:      5 Energy:     -3066.542564  Gnorm:      0.209543  CPU:    0.946
  Cycle:      6 Energy:     -3066.916871  Gnorm:      0.168317  CPU:    1.074
  Cycle:      7 Energy:     -3067.141476  Gnorm:      0.123977  CPU:    1.205
  Cycle:      8 Energy:     -3067.265538  Gnorm:      0.097678  CPU:    1.334
  Cycle:      9 Energy:     -3067.335180  Gnorm:      0.074203  CPU:    1.486
  Cycle:     10 Energy:     -3067.379891  Gnorm:      0.067808  CPU:    1.639
  Cycle:     11 Energy:     -3067.427475  Gnorm:      0.067825  CPU:    1.792
  ** Hessian calculated **
  Cycle:     12 Energy:     -3067.479874  Gnorm:      0.065150  CPU:    2.047
  Cycle:     13 Energy:     -3067.563753  Gnorm:      0.060484  CPU:    2.224
  Cycle:     14 Energy:     -3067.657670  Gnorm:      0.054562  CPU:    2.377
  Cycle:     15 Energy:     -3067.765070  Gnorm:      0.046651  CPU:    2.554
  ** Hessian has wrong structure
  ** Imaginary eigenvectors =   3
  Cycle:     16 Energy:     -3067.801861  Gnorm:      0.085369  CPU:    2.938
  ** Hessian has wrong structure
  ** Imaginary eigenvectors =   2
  ** Hessian has wrong structure
  ** Imaginary eigenvectors =   1
  Cycle:     17 Energy:     -3067.847134  Gnorm:      0.091705  CPU:    3.553
  ** Hessian has required structure
  Cycle:     18 Energy:     -3068.046378  Gnorm:      0.070209  CPU:    3.776
  ** Hessian has required structure
  Cycle:     19 Energy:     -3068.173671  Gnorm:      0.029590  CPU:    3.967
  ** Hessian has required structure
  Cycle:     20 Energy:     -3068.228239  Gnorm:      0.034505  CPU:    4.179
  ** Hessian has required structure
  Cycle:     21 Energy:     -3068.274953  Gnorm:      0.037950  CPU:    4.345
  ** Hessian has required structure
  Cycle:     22 Energy:     -3068.294659  Gnorm:      0.036695  CPU:    4.534
  ** Hessian has required structure
  Cycle:     23 Energy:     -3068.313408  Gnorm:      0.021795  CPU:    4.721
  ** Hessian has required structure
  Cycle:     24 Energy:     -3068.328415  Gnorm:      0.019204  CPU:    4.908
  ** Hessian has required structure
  Cycle:     25 Energy:     -3068.340097  Gnorm:      0.017313  CPU:    5.096
  ** Hessian has required structure
  Cycle:     26 Energy:     -3068.347137  Gnorm:      0.012118  CPU:    5.286
  ** Hessian has wrong structure
  ** Imaginary eigenvectors =   1
  ** Hessian has required structure
  Cycle:     27 Energy:     -3068.355407  Gnorm:      0.009625  CPU:    5.887
  ** Hessian has required structure
  Cycle:     28 Energy:     -3068.357691  Gnorm:      0.005537  CPU:    6.077
  ** Hessian has required structure
  Cycle:     29 Energy:     -3068.358636  Gnorm:      0.003137  CPU:    6.289
  ** Hessian has required structure
  Cycle:     30 Energy:     -3068.358905  Gnorm:      0.001698  CPU:    6.478
  ** Hessian has required structure
  Cycle:     31 Energy:     -3068.359018  Gnorm:      0.001262  CPU:    6.668
  ** Hessian has required structure
  Cycle:     32 Energy:     -3068.359063  Gnorm:      0.000411  CPU:    6.858
  ** Hessian has required structure
  Cycle:     33 Energy:     -3068.359080  Gnorm:      0.000336  CPU:    7.073
  ** Hessian has required structure
  Cycle:     34 Energy:     -3068.359085  Gnorm:      0.000185  CPU:    7.287
  ** Hessian has required structure
  Cycle:     35 Energy:     -3068.359087  Gnorm:      0.000145  CPU:    7.452
  ** Hessian has required structure
  Cycle:     36 Energy:     -3068.359089  Gnorm:      0.000130  CPU:    7.618
  ** Hessian has wrong structure
  ** Imaginary eigenvectors =   1
  Cycle:     37 Energy:     -3068.359090  Gnorm:      0.000131  CPU:    7.947
  ** Hessian has wrong structure
  ** Imaginary eigenvectors =   1
  Cycle:     38 Energy:     -3068.359090  Gnorm:      0.000131  CPU:    8.474
  ** Hessian has wrong structure
  ** Imaginary eigenvectors =   1
  Cycle:     39 Energy:     -3068.359092  Gnorm:      0.000139  CPU:    8.876
  ** Hessian has wrong structure
  ** Imaginary eigenvectors =   1
  Cycle:     40 Energy:     -3068.359093  Gnorm:      0.000139  CPU:    9.230
  ** Hessian has wrong structure
  ** Imaginary eigenvectors =   1
  Cycle:     41 Energy:     -3068.359096  Gnorm:      0.000193  CPU:    9.658
  ** Hessian has wrong structure
  ** Imaginary eigenvectors =   1
  Cycle:     42 Energy:     -3068.359097  Gnorm:      0.000194  CPU:   10.086
  ** Hessian has wrong structure
  ** Imaginary eigenvectors =   1
  Cycle:     43 Energy:     -3068.359103  Gnorm:      0.000354  CPU:   10.535
  ** Hessian has wrong structure
  ** Imaginary eigenvectors =   1
  Cycle:     44 Energy:     -3068.359104  Gnorm:      0.000125  CPU:   10.823
  ** Hessian has wrong structure
  ** Imaginary eigenvectors =   1
  Cycle:     45 Energy:     -3068.359129  Gnorm:      0.000669  CPU:   11.226
  ** Hessian has required structure
  Cycle:     46 Energy:     -3068.359151  Gnorm:      0.000657  CPU:   11.484
  ** Hessian has required structure
  Cycle:     47 Energy:     -3068.359175  Gnorm:      0.001020  CPU:   11.698
  ** Hessian has required structure
  Cycle:     48 Energy:     -3068.359211  Gnorm:      0.000898  CPU:   11.913
  ** Hessian has required structure
  Cycle:     49 Energy:     -3068.359241  Gnorm:      0.000453  CPU:   12.103
  ** Hessian has required structure
  Cycle:     50 Energy:     -3068.359255  Gnorm:      0.000667  CPU:   12.320
  ** Hessian has required structure
  Cycle:     51 Energy:     -3068.359273  Gnorm:      0.000700  CPU:   12.539
  ** Hessian has required structure
  Cycle:     52 Energy:     -3068.359294  Gnorm:      0.000342  CPU:   12.778
  ** Hessian has required structure
  Cycle:     53 Energy:     -3068.359299  Gnorm:      0.000325  CPU:   12.941
  ** Hessian has required structure
  Cycle:     54 Energy:     -3068.359302  Gnorm:      0.000230  CPU:   13.104
  ** Hessian has required structure
  Cycle:     55 Energy:     -3068.359303  Gnorm:      0.000232  CPU:   13.315
  ** Hessian has required structure
  Cycle:     56 Energy:     -3068.359303  Gnorm:      0.000232  CPU:   13.638
  ** Hessian calculated **
  Cycle:     57 Energy:     -3068.359304  Gnorm:      0.000168  CPU:   13.837
  ** Hessian has required structure
  Cycle:     58 Energy:     -3068.359304  Gnorm:      0.000259  CPU:   14.003
  ** Hessian has required structure
  Cycle:     59 Energy:     -3068.359304  Gnorm:      0.000222  CPU:   14.169
  ** Hessian has required structure
  Cycle:     60 Energy:     -3068.359304  Gnorm:      0.000190  CPU:   14.336
  ** Hessian has required structure
  Cycle:     61 Energy:     -3068.359304  Gnorm:      0.000173  CPU:   14.501
  ** Hessian has required structure
  Cycle:     62 Energy:     -3068.359304  Gnorm:      0.000167  CPU:   14.667
  ** Hessian has required structure
  Cycle:     63 Energy:     -3068.359304  Gnorm:      0.000174  CPU:   14.832
  ** Hessian has required structure
  Cycle:     64 Energy:     -3068.359304  Gnorm:      0.000172  CPU:   14.998
  ** Hessian has required structure
  Cycle:     65 Energy:     -3068.359304  Gnorm:      0.000160  CPU:   15.163
  ** Hessian has required structure
  Cycle:     66 Energy:     -3068.359304  Gnorm:      0.000173  CPU:   15.327
  ** Hessian has required structure
  Cycle:     67 Energy:     -3068.359305  Gnorm:      0.000171  CPU:   15.583
  ** Hessian has required structure
  Cycle:     68 Energy:     -3068.359305  Gnorm:      0.000169  CPU:   15.796
  ** Hessian has required structure
  Cycle:     69 Energy:     -3068.359305  Gnorm:      0.000169  CPU:   15.962
  ** Hessian has required structure
  Cycle:     70 Energy:     -3068.359305  Gnorm:      0.000169  CPU:   16.127
  ** Hessian has required structure
  Cycle:     71 Energy:     -3068.359305  Gnorm:      0.000169  CPU:   16.292
  ** Hessian has required structure
  Cycle:     72 Energy:     -3068.359305  Gnorm:      0.000169  CPU:   16.480
  ** Hessian has required structure
  Cycle:     73 Energy:     -3068.359305  Gnorm:      0.000168  CPU:   16.717
  ** Hessian has required structure
  Cycle:     74 Energy:     -3068.359305  Gnorm:      0.000168  CPU:   16.932
  ** Hessian has required structure
  Cycle:     75 Energy:     -3068.359305  Gnorm:      0.000168  CPU:   17.266
  ** Hessian calculated **
  Cycle:     76 Energy:     -3068.359305  Gnorm:      0.000090  CPU:   17.471
  ** Hessian has required structure
  Cycle:     77 Energy:     -3068.359305  Gnorm:      0.000123  CPU:   17.640
  ** Hessian has required structure
  Cycle:     78 Energy:     -3068.359305  Gnorm:      0.000127  CPU:   17.809
  ** Hessian has required structure
  Cycle:     79 Energy:     -3068.359305  Gnorm:      0.000120  CPU:   17.978
  ** Hessian has required structure
  Cycle:     80 Energy:     -3068.359305  Gnorm:      0.000125  CPU:   18.145
  ** Hessian has required structure
  Cycle:     81 Energy:     -3068.359305  Gnorm:      0.000130  CPU:   18.312
  ** Hessian has required structure
  Cycle:     82 Energy:     -3068.359305  Gnorm:      0.000149  CPU:   18.480
  ** Hessian has required structure
  Cycle:     83 Energy:     -3068.359305  Gnorm:      0.000153  CPU:   18.650
  ** Hessian has required structure
  Cycle:     84 Energy:     -3068.359305  Gnorm:      0.000127  CPU:   18.817
  ** Hessian has required structure
  Cycle:     85 Energy:     -3068.359305  Gnorm:      0.000137  CPU:   18.984
  ** Hessian has required structure
  Cycle:     86 Energy:     -3068.359305  Gnorm:      0.000136  CPU:   19.270
  ** Hessian has required structure
  Cycle:     87 Energy:     -3068.359305  Gnorm:      0.000136  CPU:   19.440
  ** Hessian has required structure
  Cycle:     88 Energy:     -3068.359305  Gnorm:      0.000136  CPU:   19.635
  ** Hessian has required structure
  Cycle:     89 Energy:     -3068.359305  Gnorm:      0.000136  CPU:   19.802
  ** Hessian has required structure
  Cycle:     90 Energy:     -3068.359305  Gnorm:      0.000136  CPU:   19.966
  ** Hessian has required structure
  Cycle:     91 Energy:     -3068.359305  Gnorm:      0.000136  CPU:   20.131
  ** Hessian has required structure
  Cycle:     92 Energy:     -3068.359305  Gnorm:      0.000136  CPU:   20.295
  ** Hessian has required structure
  Cycle:     93 Energy:     -3068.359305  Gnorm:      0.000136  CPU:   20.505
  ** Hessian has required structure
  Cycle:     94 Energy:     -3068.359305  Gnorm:      0.000136  CPU:   20.738
  ** Hessian has required structure
  Cycle:     95 Energy:     -3068.359305  Gnorm:      0.000136  CPU:   20.948
  ** Hessian has required structure
  Cycle:     96 Energy:     -3068.359305  Gnorm:      0.000136  CPU:   21.274
  ** Hessian calculated **


  **** Optimisation achieved ****


  Final energy =   -3068.35930512 eV      
  Final Gnorm  =       0.00013609

  Components of energy : 

--------------------------------------------------------------------------------
  Interatomic potentials     =         816.26431913 eV    
  Three-body potentials      =           0.20661790 eV    
  Monopole - monopole (real) =       -2208.24656347 eV    
  Monopole - monopole (recip)=       -1676.58367869 eV    
  Monopole - monopole (total)=       -3884.83024215 eV    
--------------------------------------------------------------------------------
  Total lattice energy       =       -3068.35930512 eV    
--------------------------------------------------------------------------------
  Total lattice energy       =         -296049.7688 kJ/(mole unit cells)
--------------------------------------------------------------------------------

  Final fractional coordinates of atoms :

--------------------------------------------------------------------------------
   No.  Atomic        x           y          z          Radius
        Label       (Frac)      (Frac)     (Frac)       (Angs) 
--------------------------------------------------------------------------------
     1  Ge    c     0.052090    0.000000    0.372270    0.000000
     2  Ge    c     0.058877    0.994814    0.891776    0.000000
     3  Ge    c     0.654242    0.665195    0.703780    0.000000
     4  Si    c     0.454341    0.988835    0.362724    0.000000
     5  Si    c     0.952548    0.984965    0.635179    0.000000
     6  Si    c     0.550386    0.972139    0.622220    0.000000
     7  Si    c     0.562780    0.988851    0.116149    0.000000
     8  Si    c     0.944029    0.997156    0.128366    0.000000
     9  Si    c     0.449335    0.985302    0.877846    0.000000
    10  Si    c     0.160124    0.302861    0.268716    0.000000
    11  Si    c     0.351601    0.680021    0.275510    0.000000
    12  Si    c     0.848315    0.292086    0.711315    0.000000
    13  Si    c     0.837052    0.694939    0.702325    0.000000
    14  Si    c     0.668489    0.255105    0.715145    0.000000
    15  Si    c     0.173058    0.712535    0.269571    0.000000
    16  Si    c     0.338880    0.276622    0.272683    0.000000
    17  Si    c     0.671563    0.275282    0.019563    0.000000
    18  Si    c     0.835615    0.705811    0.009172    0.000000
    19  Si    c     0.338870    0.275226    0.967756    0.000000
    20  Si    c     0.176084    0.710728    0.968517    0.000000
    21  Si    c     0.355057    0.671703    0.971033    0.000000
    22  Si    c     0.159585    0.309256    0.967555    0.000000
    23  Si    c     0.656076    0.675840    0.013866    0.000000
    24  Si    c     0.851112    0.307595    0.015287    0.000000
    25  O3    c     0.099615    0.198325    0.354721    0.000000
    26  O2    c     0.410689    0.800672    0.358502    0.000000
    27  O2    c     0.905063    0.168738    0.627057    0.000000
    28  O3    c     0.587202    0.780140    0.614308    0.000000
    29  O2    c     0.891894    0.822464    0.618860    0.000000
    30  O2    c     0.623224    0.105816    0.634610    0.000000
    31  O3    c     0.118690    0.832553    0.356490    0.000000
    32  O2    c     0.390806    0.143073    0.354288    0.000000
    33  O3    c     0.019722    0.983828    0.530627    0.000000
    34  O2    c     0.499380    0.013062    0.496953    0.000000
    35  O3    c     0.969486    0.985417    0.277429    0.000000
    36  O2    c     0.518371    0.003369    0.251066    0.000000
    37  O3    c     0.989506    0.963782    0.777176    0.000000
    38  O2    c     0.494041    0.998866    0.744043    0.000000
    39  O2    c     0.628712    0.140002    0.113858    0.000000
    40  O2    c     0.879852    0.849620    0.094977    0.000000
    41  O2    c     0.381875    0.131541    0.879366    0.000000
    42  O3    c     0.131547    0.839006    0.875071    0.000000
    43  O2    c     0.413099    0.790371    0.887682    0.000000
    44  O3    c     0.101794    0.199689    0.877903    0.000000
    45  O2    c     0.601384    0.796231    0.104885    0.000000
    46  O2    c     0.909341    0.190987    0.099719    0.000000
    47  O2    c     0.505391    0.027484    0.997847    0.000000
    48  O3    c     0.020164    0.964026    0.044215    0.000000
    49  O2    c     0.147392    0.510584    0.287243    0.000000
    50  O2    c     0.365998    0.475444    0.306576    0.000000
    51  O2    c     0.865140    0.494504    0.677612    0.000000
    52  O3    c     0.636167    0.444787    0.680513    0.000000
    53  O2    c     0.248401    0.252482    0.309405    0.000000
    54  O2    c     0.263401    0.732625    0.311201    0.000000
    55  O2    c     0.759377    0.244853    0.677238    0.000000
    56  O3    c     0.748475    0.713184    0.658602    0.000000
    57  O2    c     0.145876    0.249689    0.117283    0.000000
    58  O2    c     0.367979    0.715085    0.123446    0.000000
    59  O2    c     0.864629    0.258429    0.863996    0.000000
    60  O3    c     0.639931    0.722942    0.865196    0.000000
    61  O2    c     0.843366    0.744111    0.855902    0.000000
    62  O2    c     0.659712    0.219156    0.869237    0.000000
    63  O2    c     0.164595    0.770674    0.119193    0.000000
    64  O2    c     0.349963    0.233417    0.120036    0.000000
    65  O2    c     0.637571    0.471199    0.041020    0.000000
    66  O2    c     0.870536    0.513041    0.039998    0.000000
    67  O2    c     0.373959    0.468359    0.939355    0.000000
    68  O2    c     0.142113    0.514416    0.950388    0.000000
    69  O2    c     0.762499    0.269941    0.055628    0.000000
    70  O2    c     0.745723    0.713932    0.049091    0.000000
    71  O2    c     0.248587    0.268573    0.929227    0.000000
    72  O2    c     0.266897    0.713849    0.931967    0.000000
    73  O3    s     0.102083    0.193113    0.347137    0.000000
    74  O2    s     0.408834    0.807371    0.349863    0.000000
    75  O2    s     0.903715    0.163415    0.637078    0.000000
    76  O3    s     0.589041    0.789943    0.622432    0.000000
    77  O2    s     0.892182    0.825370    0.629494    0.000000
    78  O2    s     0.620598    0.108398    0.642376    0.000000
    79  O3    s     0.118987    0.833625    0.348420    0.000000
    80  O2    s     0.391848    0.141327    0.345936    0.000000
    81  O3    s     0.015180    0.985342    0.528761    0.000000
    82  O2    s     0.500073    0.005404    0.495842    0.000000
    83  O3    s     0.973637    0.987789    0.270024    0.000000
    84  O2    s     0.516280    0.999979    0.247870    0.000000
    85  O3    s     0.992128    0.968801    0.773261    0.000000
    86  O2    s     0.495137    0.994183    0.746234    0.000000
    87  O2    s     0.626467    0.138962    0.103565    0.000000
    88  O2    s     0.881751    0.849175    0.088707    0.000000
    89  O2    s     0.384332    0.131875    0.889214    0.000000
    90  O3    s     0.130526    0.837652    0.886396    0.000000
    91  O2    s     0.410526    0.797971    0.895948    0.000000
    92  O3    s     0.104375    0.194830    0.888277    0.000000
    93  O2    s     0.603205    0.803633    0.096187    0.000000
    94  O2    s     0.906450    0.183921    0.093250    0.000000
    95  O2    s     0.505514    0.018323    0.997602    0.000000
    96  O3    s     0.015556    0.969944    0.040328    0.000000
    97  O2    s     0.151550    0.509602    0.283327    0.000000
    98  O2    s     0.361575    0.476395    0.299676    0.000000
    99  O2    s     0.860378    0.493580    0.683864    0.000000
   100  O3    s     0.640963    0.443644    0.685941    0.000000
   101  O2    s     0.248913    0.260256    0.301310    0.000000
   102  O2    s     0.263338    0.724894    0.303050    0.000000
   103  O2    s     0.759341    0.251097    0.685007    0.000000
   104  O3    s     0.749791    0.707458    0.666661    0.000000
   105  O2    s     0.148705    0.260999    0.117646    0.000000
   106  O2    s     0.364858    0.706787    0.123345    0.000000
   107  O2    s     0.861489    0.267171    0.864057    0.000000
   108  O3    s     0.642690    0.713639    0.867178    0.000000
   109  O2    s     0.841876    0.734868    0.856441    0.000000
   110  O2    s     0.661929    0.228918    0.869159    0.000000
   111  O2    s     0.166650    0.758563    0.119330    0.000000
   112  O2    s     0.347571    0.242531    0.120076    0.000000
   113  O2    s     0.643113    0.472105    0.035889    0.000000
   114  O2    s     0.864880    0.511377    0.034181    0.000000
   115  O2    s     0.368268    0.469818    0.945724    0.000000
   116  O2    s     0.147644    0.512748    0.954208    0.000000
   117  O2    s     0.762292    0.274717    0.047282    0.000000
   118  O2    s     0.745959    0.708809    0.040845    0.000000
   119  O2    s     0.248995    0.273717    0.937607    0.000000
   120  O2    s     0.266785    0.708795    0.940277    0.000000
--------------------------------------------------------------------------------

  Final Cartesian lattice vectors (Angstroms) :

       17.201249   -0.017409   -0.015757
       -0.007445    7.611568   -0.039842
       -0.008695   -0.055301   10.259725


  Final cell parameters and derivatives :

--------------------------------------------------------------------------------
       a           17.201265 Angstrom     dE/de1(xx)     0.005686 eV/strain
       b            7.611676 Angstrom     dE/de2(yy)     0.003665 eV/strain
       c           10.259878 Angstrom     dE/de3(zz)     0.013077 eV/strain
       alpha       90.608688 Degrees      dE/de4(yz)    -0.000525 eV/strain
       beta        90.100729 Degrees      dE/de5(xz)    -0.000844 eV/strain
       gamma       90.113757 Degrees      dE/de6(xy)    -0.000187 eV/strain
--------------------------------------------------------------------------------

  Primitive cell volume =          1343.249914 Angs**3

  Density of cell =      1.947952 g/cm**3

  Non-primitive cell volume =          1343.249914 Angs**3


  Final internal derivatives :

--------------------------------------------------------------------------------
   No.  Atomic          a             b             c           Radius
        Label          (eV)          (eV)          (eV)        (eV/Angs)
--------------------------------------------------------------------------------
      1 Ge    c       0.000000      0.000000      0.000000      0.000000
      2 Ge    c       0.003027     -0.000137     -0.000533      0.000000
      3 Ge    c      -0.000988      0.002467     -0.002540      0.000000
      4 Si    c      -0.005760     -0.000663     -0.001711      0.000000
      5 Si    c      -0.004875     -0.000217      0.000294      0.000000
      6 Si    c       0.009937     -0.000727      0.002262      0.000000
      7 Si    c       0.000377      0.000653     -0.002635      0.000000
      8 Si    c      -0.006593      0.000034      0.000964      0.000000
      9 Si    c      -0.001256     -0.000162      0.001038      0.000000
     10 Si    c       0.003654      0.001522      0.000205      0.000000
     11 Si    c       0.000135     -0.000767      0.002851      0.000000
     12 Si    c      -0.000993      0.000876     -0.000639      0.000000
     13 Si    c      -0.001587     -0.000825      0.000789      0.000000
     14 Si    c      -0.002745     -0.002355     -0.004870      0.000000
     15 Si    c       0.003566     -0.001878      0.000695      0.000000
     16 Si    c      -0.002025      0.000830      0.003206      0.000000
     17 Si    c      -0.002730      0.001200      0.001703      0.000000
     18 Si    c       0.000338      0.000052     -0.001273      0.000000
     19 Si    c      -0.002282      0.001351     -0.003024      0.000000
     20 Si    c       0.002419     -0.001002      0.001307      0.000000
     21 Si    c      -0.001686     -0.002020     -0.003068      0.000000
     22 Si    c       0.003073      0.000642      0.001153      0.000000
     23 Si    c      -0.004128     -0.000809      0.002005      0.000000
     24 Si    c      -0.000404      0.000241     -0.001111      0.000000
     25 O3    c       0.001956     -0.000334      0.000891      0.000000
     26 O2    c      -0.002495     -0.001724     -0.002688      0.000000
     27 O2    c      -0.001046     -0.001046     -0.001143      0.000000
     28 O3    c      -0.000905      0.005311      0.002027      0.000000
     29 O2    c       0.000714      0.000716     -0.000015      0.000000
     30 O2    c       0.002922      0.001937      0.002767      0.000000
     31 O3    c       0.004401      0.000001      0.001206      0.000000
     32 O2    c      -0.005313      0.002868     -0.002749      0.000000
     33 O3    c       0.003744     -0.000727      0.001632      0.000000
     34 O2    c       0.001572      0.001051      0.002412      0.000000
     35 O3    c      -0.010546     -0.000437     -0.000719      0.000000
     36 O2    c       0.003883     -0.000635     -0.002943      0.000000
     37 O3    c       0.000786     -0.001658      0.002382      0.000000
     38 O2    c       0.000862      0.000249      0.003053      0.000000
     39 O2    c       0.001965      0.002741     -0.002584      0.000000
     40 O2    c      -0.001575      0.001770      0.000871      0.000000
     41 O2    c      -0.006005      0.002950      0.001801      0.000000
     42 O3    c       0.002876      0.001782      0.000156      0.000000
     43 O2    c      -0.001732     -0.002183      0.000647      0.000000
     44 O3    c       0.003033     -0.002095      0.000559      0.000000
     45 O2    c       0.002982     -0.002166     -0.003091      0.000000
     46 O2    c       0.000349     -0.001512      0.001680      0.000000
     47 O2    c       0.004321      0.000010      0.003433      0.000000
     48 O3    c       0.004033     -0.001677     -0.001262      0.000000
     49 O2    c       0.003882      0.000089      0.000519      0.000000
     50 O2    c       0.000881      0.000279     -0.001068      0.000000
     51 O2    c      -0.001968      0.000892      0.000118      0.000000
     52 O3    c      -0.005931     -0.001814      0.000678      0.000000
     53 O2    c      -0.001014     -0.000659     -0.000477      0.000000
     54 O2    c      -0.003412      0.000390     -0.000566      0.000000
     55 O2    c       0.003185     -0.000684      0.000128      0.000000
     56 O3    c       0.002419      0.002544      0.000819      0.000000
     57 O2    c       0.003581     -0.001004     -0.000738      0.000000
     58 O2    c       0.001196      0.001349     -0.000576      0.000000
     59 O2    c      -0.000739     -0.000801      0.001138      0.000000
     60 O3    c      -0.010344      0.003406      0.001473      0.000000
     61 O2    c      -0.000373      0.001041     -0.000253      0.000000
     62 O2    c      -0.003793     -0.001433      0.001746      0.000000
     63 O2    c       0.002911      0.000956     -0.001311      0.000000
     64 O2    c      -0.001198     -0.001078     -0.001893      0.000000
     65 O2    c      -0.003296     -0.000681     -0.000460      0.000000
     66 O2    c      -0.001028      0.000524      0.000986      0.000000
     67 O2    c       0.000262     -0.000462      0.000001      0.000000
     68 O2    c       0.003251      0.000407     -0.000947      0.000000
     69 O2    c      -0.000357     -0.000952      0.000441      0.000000
     70 O2    c       0.001493      0.001451      0.000936      0.000000
     71 O2    c       0.000468     -0.000619     -0.000024      0.000000
     72 O2    c      -0.000731      0.000808     -0.000586      0.000000
     73 O3    s      -0.005722     -0.000019      0.000991      0.000000
     74 O2    s       0.003119      0.001265      0.001510      0.000000
     75 O2    s       0.005256      0.000759     -0.000587      0.000000
     76 O3    s      -0.000639     -0.006435     -0.001925      0.000000
     77 O2    s       0.001399     -0.000229     -0.002465      0.000000
     78 O2    s      -0.002178     -0.001049     -0.001832      0.000000
     79 O3    s      -0.006895      0.000351      0.000567      0.000000
     80 O2    s       0.005718     -0.002874      0.000411      0.000000
     81 O3    s      -0.003299      0.000983     -0.002018      0.000000
     82 O2    s      -0.003373      0.000352     -0.000661      0.000000
     83 O3    s       0.010695      0.000380      0.000692      0.000000
     84 O2    s      -0.001665      0.000235      0.005221      0.000000
     85 O3    s       0.001179      0.001610     -0.002270      0.000000
     86 O2    s      -0.001377      0.000777      0.000497      0.000000
     87 O2    s       0.002143     -0.002842      0.002034      0.000000
     88 O2    s       0.003314     -0.001586      0.000378      0.000000
     89 O2    s       0.004046     -0.003300     -0.001285      0.000000
     90 O3    s      -0.004318     -0.001538     -0.002790      0.000000
     91 O2    s       0.001385      0.001613      0.000848      0.000000
     92 O3    s      -0.006266      0.003091     -0.002637      0.000000
     93 O2    s      -0.000941      0.000559      0.001553      0.000000
     94 O2    s       0.002407      0.001753     -0.000818      0.000000
     95 O2    s      -0.006206      0.001655      0.000516      0.000000
     96 O3    s      -0.002001      0.000913      0.001910      0.000000
     97 O2    s      -0.004045      0.000040     -0.000769      0.000000
     98 O2    s       0.001601      0.000276      0.000889      0.000000
     99 O2    s       0.000763     -0.000545      0.000431      0.000000
    100 O3    s       0.004808      0.002522     -0.001623      0.000000
    101 O2    s      -0.000046      0.000172      0.000708      0.000000
    102 O2    s       0.001126      0.000245      0.000931      0.000000
    103 O2    s      -0.002176      0.000968      0.000280      0.000000
    104 O3    s      -0.000903     -0.003302     -0.000660      0.000000
    105 O2    s      -0.006034      0.000711     -0.000131      0.000000
    106 O2    s       0.002867      0.000339     -0.001204      0.000000
    107 O2    s       0.002131      0.000715      0.001099      0.000000
    108 O3    s       0.010073     -0.002385     -0.002228      0.000000
    109 O2    s       0.000698     -0.001197      0.001526      0.000000
    110 O2    s       0.002940     -0.000776     -0.000412      0.000000
    111 O2    s      -0.004299     -0.000757      0.000206      0.000000
    112 O2    s       0.004943     -0.001108      0.000011      0.000000
    113 O2    s       0.002779      0.001131     -0.000265      0.000000
    114 O2    s      -0.000010     -0.000536     -0.000986      0.000000
    115 O2    s       0.002673      0.000829      0.000143      0.000000
    116 O2    s      -0.003440     -0.000262      0.001592      0.000000
    117 O2    s       0.001885      0.000818     -0.001318      0.000000
    118 O2    s       0.000112     -0.001344     -0.000735      0.000000
    119 O2    s      -0.002164      0.000311     -0.000030      0.000000
    120 O2    s      -0.000111     -0.000623      0.000705      0.000000
--------------------------------------------------------------------------------
  Maximum abs         0.010695      0.006435      0.005221      0.000000
--------------------------------------------------------------------------------


  Born effective charge tensors : 

-------------------------------------------------------------------------------
  Atom             x           y             z
-------------------------------------------------------------------------------
    1 Ge    x       4.3006      0.1133     -0.4619
            y      -0.1096      3.9209     -0.0544
            z      -0.3033     -0.1001      4.5853
-------------------------------------------------------------------------------
    2 Ge    x       4.3930      0.2005      0.0259
            y      -0.1493      3.9218      0.0346
            z       0.8046      0.0914      3.5743
-------------------------------------------------------------------------------
    3 Ge    x       3.9343     -0.2736      0.0851
            y      -0.3772      4.1955     -0.2420
            z       0.1611     -0.0664      3.4478
-------------------------------------------------------------------------------
    4 Si    x       3.4505      0.1190      0.1896
            y      -0.1152      3.2456     -0.0177
            z       0.4097      0.0756      3.7723
-------------------------------------------------------------------------------
    5 Si    x       3.7863     -0.0931     -0.0530
            y       0.0652      3.3264     -0.0063
            z      -0.8790     -0.0648      4.2803
-------------------------------------------------------------------------------
    6 Si    x       3.5543     -0.3593      0.1582
            y       0.0149      3.4696      0.0546
            z       0.5160     -0.1450      3.8559
-------------------------------------------------------------------------------
    7 Si    x       3.4837     -0.1295     -0.2222
            y       0.1499      3.2498      0.0031
            z      -0.4897     -0.0042      3.1007
-------------------------------------------------------------------------------
    8 Si    x       3.8999     -0.1892      0.3810
            y       0.1138      3.3600      0.0255
            z       0.3459     -0.0527      3.6904
-------------------------------------------------------------------------------
    9 Si    x       3.4412      0.1557     -0.1740
            y      -0.1616      3.2599     -0.0251
            z      -0.4942     -0.0322      3.1020
-------------------------------------------------------------------------------
   10 Si    x       3.4787      0.3393     -0.2459
            y       0.4393      3.5381     -0.3522
            z      -0.2805     -0.1645      2.9675
-------------------------------------------------------------------------------
   11 Si    x       3.1681      0.2191      0.0787
            y       0.3111      3.4432      0.1606
            z       0.0992      0.0842      2.8090
-------------------------------------------------------------------------------
   12 Si    x       3.1732     -0.2147     -0.0869
            y      -0.2302      3.3868      0.1507
            z      -0.0876      0.0691      2.8153
-------------------------------------------------------------------------------
   13 Si    x       3.5369      0.2526     -0.0115
            y       0.1522      3.5054     -0.1839
            z      -0.0266     -0.0720      2.8796
-------------------------------------------------------------------------------
   14 Si    x       3.2757      0.2525      0.1354
            y       0.0199      3.7496      0.0455
            z       0.1352      0.0101      2.8963
-------------------------------------------------------------------------------
   15 Si    x       3.4433     -0.4204     -0.2692
            y      -0.3548      3.6020      0.3388
            z      -0.2859      0.1836      2.9623
-------------------------------------------------------------------------------
   16 Si    x       3.1761     -0.2849      0.1187
            y      -0.2089      3.4756     -0.1393
            z       0.1199     -0.0841      2.8053
-------------------------------------------------------------------------------
   17 Si    x       3.2460      0.3307     -0.1836
            y       0.1150      3.4324     -0.1885
            z      -0.1304     -0.0567      2.7191
-------------------------------------------------------------------------------
   18 Si    x       3.1844      0.3059      0.1181
            y       0.0896      3.4573      0.1633
            z       0.1167      0.0965      2.7559
-------------------------------------------------------------------------------
   19 Si    x       3.1857     -0.3365     -0.1620
            y      -0.1226      3.4438      0.1603
            z      -0.1147      0.0813      2.7217
-------------------------------------------------------------------------------
   20 Si    x       3.4082     -0.4767      0.3069
            y      -0.2496      3.5825     -0.3847
            z       0.2311     -0.1757      2.8534
-------------------------------------------------------------------------------
   21 Si    x       3.2114      0.2429     -0.1359
            y       0.2707      3.3955     -0.1603
            z      -0.1577     -0.0717      2.7141
-------------------------------------------------------------------------------
   22 Si    x       3.5119      0.3951      0.3036
            y       0.3924      3.4908      0.3422
            z       0.2909      0.1208      2.8292
-------------------------------------------------------------------------------
   23 Si    x       3.3342     -0.2958     -0.0887
            y      -0.2848      3.5161      0.1065
            z      -0.1068     -0.0131      3.0064
-------------------------------------------------------------------------------
   24 Si    x       3.2568     -0.2341      0.1108
            y      -0.2464      3.4045     -0.1821
            z       0.1452     -0.0656      2.7301
-------------------------------------------------------------------------------
   25 O3    x      -2.1018     -0.9572      0.5887
            y      -0.9359     -2.3360      0.5609
            z       0.5795      0.5283     -1.6380
-------------------------------------------------------------------------------
   26 O2    x      -1.6467     -0.7046     -0.3141
            y      -0.6820     -2.0186     -0.3210
            z      -0.3531     -0.3238     -1.3493
-------------------------------------------------------------------------------
   27 O2    x      -1.6467      0.6925      0.2684
            y       0.6423     -1.9938     -0.2911
            z       0.3543     -0.2854     -1.3526
-------------------------------------------------------------------------------
   28 O3    x      -1.9211      0.8961     -0.3481
            y       0.8729     -2.5354      0.3286
            z      -0.4354      0.3398     -1.5418
-------------------------------------------------------------------------------
   29 O2    x      -1.7020     -0.6920      0.2395
            y      -0.6985     -1.9563      0.2753
            z       0.3176      0.2539     -1.3561
-------------------------------------------------------------------------------
   30 O2    x      -1.8208     -0.6559     -0.3294
            y      -0.7193     -1.8497     -0.3436
            z      -0.3683     -0.2977     -1.3651
-------------------------------------------------------------------------------
   31 O3    x      -2.1817      0.9803      0.5806
            y       1.0352     -2.3047     -0.5549
            z       0.6099     -0.5385     -1.6295
-------------------------------------------------------------------------------
   32 O2    x      -1.7481      0.7215     -0.3297
            y       0.7733     -1.9628      0.3514
            z      -0.3765      0.3406     -1.3438
-------------------------------------------------------------------------------
   33 O3    x      -2.1144     -0.0365      1.1373
            y       0.0046     -1.2197      0.0173
            z       1.3792      0.0833     -3.2683
-------------------------------------------------------------------------------
   34 O2    x      -1.5936      0.0301     -0.7789
            y       0.0207     -1.0966      0.0326
            z      -1.0159      0.0462     -2.7333
-------------------------------------------------------------------------------
   35 O3    x      -2.0224      0.0101     -0.8604
            y      -0.0256     -1.2226      0.0168
            z      -0.8811      0.0524     -2.7947
-------------------------------------------------------------------------------
   36 O2    x      -1.7518      0.0032      0.7334
            y      -0.0134     -1.1083      0.0016
            z       0.7477     -0.0135     -2.2011
-------------------------------------------------------------------------------
   37 O3    x      -2.0742     -0.0369     -0.9742
            y      -0.0162     -1.2831     -0.0014
            z      -0.9181     -0.0082     -2.6903
-------------------------------------------------------------------------------
   38 O2    x      -1.6638     -0.0043      0.7094
            y       0.0007     -1.1197     -0.0008
            z       0.7070      0.0128     -2.2785
-------------------------------------------------------------------------------
   39 O2    x      -1.7504     -0.7151      0.3429
            y      -0.6797     -1.9109      0.3673
            z       0.3405      0.3386     -1.2715
-------------------------------------------------------------------------------
   40 O2    x      -1.7125     -0.6969     -0.4237
            y      -0.6563     -1.9762     -0.4486
            z      -0.3656     -0.3892     -1.3011
-------------------------------------------------------------------------------
   41 O2    x      -1.7445      0.7134      0.3081
            y       0.6932     -1.9312     -0.3369
            z       0.3304     -0.3259     -1.2405
-------------------------------------------------------------------------------
   42 O3    x      -2.1385      0.9555     -0.4185
            y       0.9406     -2.2771      0.4878
            z      -0.4917      0.4518     -1.4889
-------------------------------------------------------------------------------
   43 O2    x      -1.6413     -0.6857      0.3339
            y      -0.5964     -2.0241      0.3567
            z       0.3653      0.3496     -1.2347
-------------------------------------------------------------------------------
   44 O3    x      -2.0758     -0.9542     -0.4681
            y      -0.8504     -2.3444     -0.4383
            z      -0.5342     -0.4265     -1.4607
-------------------------------------------------------------------------------
   45 O2    x      -1.6568      0.6977      0.3334
            y       0.5998     -2.0324     -0.3562
            z       0.3548     -0.3415     -1.2391
-------------------------------------------------------------------------------
   46 O2    x      -1.6550      0.6565     -0.3957
            y       0.5584     -2.0352      0.4191
            z      -0.3659      0.3906     -1.2997
-------------------------------------------------------------------------------
   47 O2    x      -1.8074     -0.0077     -0.6172
            y      -0.0022     -1.1842      0.0014
            z      -0.3498      0.0041     -1.6972
-------------------------------------------------------------------------------
   48 O3    x      -2.3726      0.0769      0.8173
            y       0.0645     -1.3178     -0.0234
            z       0.4470     -0.0021     -1.9537
-------------------------------------------------------------------------------
   49 O2    x      -1.1963     -0.0570      0.0577
            y      -0.1004     -2.5229      0.0055
            z       0.0761     -0.0113     -1.0687
-------------------------------------------------------------------------------
   50 O2    x      -1.1461     -0.0518     -0.0631
            y      -0.1063     -2.5598     -0.0086
            z      -0.0748      0.0080     -1.0770
-------------------------------------------------------------------------------
   51 O2    x      -1.1578      0.0235      0.0637
            y       0.0650     -2.5425      0.0425
            z       0.0697      0.0403     -1.0839
-------------------------------------------------------------------------------
   52 O3    x      -1.3441      0.1653     -0.0976
            y       0.2218     -3.1629      0.1345
            z      -0.1203      0.1207     -1.2130
-------------------------------------------------------------------------------
   53 O2    x      -2.3739      0.0960     -0.0293
            y       0.0595     -1.2629      0.0808
            z       0.0022      0.0531     -1.0841
-------------------------------------------------------------------------------
   54 O2    x      -2.3630      0.0845     -0.0401
            y       0.0350     -1.2543     -0.0735
            z      -0.0145     -0.0505     -1.0829
-------------------------------------------------------------------------------
   55 O2    x      -2.4047     -0.1492      0.0237
            y      -0.0979     -1.2434     -0.0536
            z       0.0121     -0.0360     -1.0817
-------------------------------------------------------------------------------
   56 O3    x      -3.0044     -0.0806     -0.0726
            y      -0.0009     -1.3801      0.0934
            z      -0.1131      0.0549     -1.2352
-------------------------------------------------------------------------------
   57 O2    x      -1.2438     -0.1504     -0.0299
            y      -0.1394     -1.3192      0.0022
            z      -0.0373      0.0096     -1.9926
-------------------------------------------------------------------------------
   58 O2    x      -1.1885     -0.1208      0.0394
            y      -0.1268     -1.2655     -0.0078
            z       0.0505     -0.0160     -2.0697
-------------------------------------------------------------------------------
   59 O2    x      -1.2012      0.1183     -0.0264
            y       0.1118     -1.2618     -0.0283
            z      -0.0364     -0.0382     -2.0764
-------------------------------------------------------------------------------
   60 O3    x      -1.3484      0.1622     -0.0463
            y       0.1553     -1.4447      0.0636
            z      -0.0202      0.0312     -2.6028
-------------------------------------------------------------------------------
   61 O2    x      -1.1662     -0.1112      0.0347
            y      -0.0666     -1.2958     -0.0017
            z       0.0278     -0.0177     -2.1005
-------------------------------------------------------------------------------
   62 O2    x      -1.1923     -0.1306      0.0150
            y      -0.0831     -1.2760     -0.0663
            z       0.0144     -0.0599     -2.0755
-------------------------------------------------------------------------------
   63 O2    x      -1.2188      0.1472     -0.0175
            y       0.1036     -1.3368      0.0016
            z      -0.0058      0.0134     -1.9837
-------------------------------------------------------------------------------
   64 O2    x      -1.1672      0.1261      0.0287
            y       0.0909     -1.2815      0.0168
            z       0.0186     -0.0034     -2.0669
-------------------------------------------------------------------------------
   65 O2    x      -1.2415      0.0667      0.0770
            y       0.1285     -2.5304      0.0077
            z       0.0940     -0.0086     -1.0096
-------------------------------------------------------------------------------
   66 O2    x      -1.2343      0.0540     -0.0777
            y       0.1252     -2.5191      0.0359
            z      -0.0967      0.0156     -1.0256
-------------------------------------------------------------------------------
   67 O2    x      -1.2175     -0.0629      0.0874
            y      -0.1281     -2.4818     -0.0104
            z       0.1027      0.0033     -1.0242
-------------------------------------------------------------------------------
   68 O2    x      -1.2612     -0.0628     -0.0856
            y      -0.1202     -2.4128      0.0056
            z      -0.1017      0.0012     -1.0175
-------------------------------------------------------------------------------
   69 O2    x      -2.4332     -0.0986      0.0215
            y      -0.0670     -1.2338      0.0667
            z       0.0128      0.0336     -1.0425
-------------------------------------------------------------------------------
   70 O2    x      -2.4220     -0.0917      0.0577
            y      -0.0435     -1.2554     -0.0559
            z       0.0515     -0.0325     -1.0345
-------------------------------------------------------------------------------
   71 O2    x      -2.3915      0.1222      0.0137
            y       0.0801     -1.2475     -0.0694
            z      -0.0069     -0.0333     -1.0494
-------------------------------------------------------------------------------
   72 O2    x      -2.3730      0.0959      0.0138
            y       0.0490     -1.2414      0.0692
            z      -0.0013      0.0389     -1.0467
-------------------------------------------------------------------------------




  Elastic Constant Matrix: (Units=GPa)

-------------------------------------------------------------------------------
  Indices      1         2         3         4         5         6    
-------------------------------------------------------------------------------
       1     49.3754   21.4639   25.6313   -0.8664   -3.2519    1.9852
       2     21.4639   62.5161   25.2878   -1.6348   -5.6701   -0.2428
       3     25.6313   25.2878   31.7822    0.3270    1.1013    1.2686
       4     -0.8664   -1.6348    0.3270   10.7051   -0.1982   -0.1886
       5     -3.2519   -5.6701    1.1013   -0.1982   21.9976   -3.2067
       6      1.9852   -0.2428    1.2686   -0.1886   -3.2067   24.1734
-------------------------------------------------------------------------------


  Elastic Compliance Matrix: (Units=1/GPa)

-------------------------------------------------------------------------------
  Indices      1         2         3         4         5         6    
-------------------------------------------------------------------------------
       1    0.035986  0.000313 -0.029530  0.003981  0.006847 -0.000463
       2    0.000313  0.025085 -0.020630  0.004675  0.007937  0.002398
       3   -0.029530 -0.020630  0.072398 -0.008070 -0.013889 -0.003487
       4    0.003981  0.004675 -0.008070  0.094779  0.003243  0.001313
       5    0.006847  0.007937 -0.013889  0.003243  0.050253  0.006938
       6   -0.000463  0.002398 -0.003487  0.001313  0.006938  0.042543
-------------------------------------------------------------------------------

  Mechanical properties :

-------------------------------------------------------------------------------
  Convention :                    Reuss         Voigt         Hill
-------------------------------------------------------------------------------
  Bulk  Modulus (GPa)     =      29.60927      32.04888      30.82907
  Shear Modulus (GPa)     =      11.57415      16.12792      13.85103
-------------------------------------------------------------------------------
  Velocity S-wave (km/s)  =       2.43756       2.87740       2.66656
  Velocity P-wave (km/s)  =       4.80858       5.24327       5.03062
-------------------------------------------------------------------------------
  Compressibility (1/GPa) =    0.03377321
-------------------------------------------------------------------------------
  Stress axis :                     x             y             z
-------------------------------------------------------------------------------
  Youngs Moduli (GPa)     =      27.78878      39.86478      13.81261
-------------------------------------------------------------------------------
  Poissons Ratio (x)      =                    -0.01249       0.40789
  Poissons Ratio (y)      =      -0.00870                     0.28496
  Poissons Ratio (z)      =       0.82061       0.82243
-------------------------------------------------------------------------------


  Piezoelectric Strain Matrix: (Units=C/m**2)

-------------------------------------------------------------------------------
  Indices      1         2         3         4         5         6    
-------------------------------------------------------------------------------
       x     0.10598   0.83452  -1.14157   0.10118   0.00729   0.40227
       y     0.20513  -0.25514   0.60725  -0.20631  -0.21256   0.42732
       z    -0.69540  -1.91570   2.92056  -0.09662  -0.94861  -0.41575
-------------------------------------------------------------------------------


  Piezoelectric Stress Matrix: (Units=10**-11 C/N)

-------------------------------------------------------------------------------
  Indices      1         2         3         4         5         6    
-------------------------------------------------------------------------------
       x     3.80525   4.60138 -10.53135   2.36780   2.66892   2.32300
       y    -1.31050  -2.04906   4.62968  -2.49594  -1.74404   1.36097
       z   -11.85571 -11.75028  28.69030  -4.80745 -11.13971  -3.88512
-------------------------------------------------------------------------------


  Static dielectric constant tensor : 

-------------------------------------------------------------------------------
              x         y         z
-------------------------------------------------------------------------------
       x     3.94515  -0.03937  -0.13534
       y    -0.03937   4.04846   0.02373
       z    -0.13534   0.02373   3.86853
--------------------------------------------------------------------------------

  High frequency dielectric constant tensor : 

-------------------------------------------------------------------------------
              x         y         z
-------------------------------------------------------------------------------
       x     1.67577  -0.00001  -0.00103
       y    -0.00001   1.68385  -0.00093
       z    -0.00103  -0.00093   1.61476
-------------------------------------------------------------------------------

  Static refractive indices : 

-------------------------------------------------------------------------------
    1 =    1.94064      2 =    2.00058      3 =    2.02330
-------------------------------------------------------------------------------

  High frequency refractive indices : 

-------------------------------------------------------------------------------
    1 =    1.27072      2 =    1.29452      3 =    1.29764
-------------------------------------------------------------------------------


  Time to end of optimisation =      21.7425 seconds


  Peak dynamic memory used =       5.01 MB 


  Timing analysis for GULP :

--------------------------------------------------------------------------------
  Task / Subroutine                                          Time (Seconds)
--------------------------------------------------------------------------------
  Calculation of reciprocal space energy and derivatives          1.1162
  Calculation of real space energy and derivatives               14.3927
  Calculation of three-body energy and derivatives                1.0467
  Calculation and manipulation of Hessian matrix                  6.5732
  Calculation of matrix inversion                                 0.0439
  Global summation overhead                                       0.0002
--------------------------------------------------------------------------------
  Total CPU time                                                 21.7425
--------------------------------------------------------------------------------


  Dump file written as c00053.vasp.grs
  CIF file written as c00053.vasp.cif


  Job Finished at 11:35.51  7th October    2025                               

