********************************************************************************
*                       GENERAL UTILITY LATTICE PROGRAM                        *
*                                 Julian Gale                                  *
*                       Curtin Institute for Computation                       *
*                    School of Molecular and Life Sciences                     *
*                    Curtin University, Western Australia                      *
********************************************************************************
* Version = 6.1.2 * Last modified =   3rd November 2022                        *
********************************************************************************
*  optimise     - perform optimisation run                                     *
*  conp         - constant pressure calculation                                *
*  property     - calculate properties for final geometry                      *
********************************************************************************

  Job Started  at 11:39.10  7th October    2025                               

  Number of CPUs =     1


  Total number of configurations input =      1

********************************************************************************
*  Input for Configuration =   1 : c00072.vasp                                 *
********************************************************************************

  Formula = Ge3Si21O48                                                  

  Number of irreducible atoms/shells =     120


  Total number atoms/shells =     120

  Dimensionality = 3               :  Bulk   



  Cartesian lattice vectors (Angstroms) :

       17.182800    0.000000    0.000000
        0.000000    7.513760    0.000000
        0.000000    0.000000   10.447700

  Cell parameters (Angstroms/Degrees):

  a =      17.1828    alpha =  90.0000
  b =       7.5138    beta  =  90.0000
  c =      10.4477    gamma =  90.0000

  Initial cell volume =        1348.875752 Angs**3

  Temperature of configuration =   0.00     K 

  Pressure of configuration =         0.000 GPa 

  Fractional coordinates of asymmetric unit :

--------------------------------------------------------------------------------
   No.  Atomic       x           y          z         Charge      Occupancy
        Label      (Frac)      (Frac)     (Frac)        (e)         (Frac)  
--------------------------------------------------------------------------------
      1 Ge    c    0.052090    0.000000    0.372270     4.00000    1.000000    
      2 Ge    c    0.160190 *  0.293910 *  0.273440 *   4.00000    1.000000    
      3 Ge    c    0.839340 *  0.294090 *  0.017440 *   4.00000    1.000000    
      4 Si    c    0.447910 *  0.000000 *  0.372270 *   4.00000    1.000000    
      5 Si    c    0.947910 *  0.000000 *  0.627730 *   4.00000    1.000000    
      6 Si    c    0.552090 *  0.000000 *  0.627730 *   4.00000    1.000000    
      7 Si    c    0.556730 *  0.000000 *  0.122130 *   4.00000    1.000000    
      8 Si    c    0.943270 *  0.000000 *  0.122130 *   4.00000    1.000000    
      9 Si    c    0.443270 *  0.000000 *  0.877870 *   4.00000    1.000000    
     10 Si    c    0.056730 *  0.000000 *  0.877870 *   4.00000    1.000000    
     11 Si    c    0.339810 *  0.706090 *  0.273440 *   4.00000    1.000000    
     12 Si    c    0.839810 *  0.293910 *  0.726560 *   4.00000    1.000000    
     13 Si    c    0.660190 *  0.706090 *  0.726560 *   4.00000    1.000000    
     14 Si    c    0.839810 *  0.706090 *  0.726560 *   4.00000    1.000000    
     15 Si    c    0.660190 *  0.293910 *  0.726560 *   4.00000    1.000000    
     16 Si    c    0.160190 *  0.706090 *  0.273440 *   4.00000    1.000000    
     17 Si    c    0.339810 *  0.293910 *  0.273440 *   4.00000    1.000000    
     18 Si    c    0.660660 *  0.294090 *  0.017440 *   4.00000    1.000000    
     19 Si    c    0.839340 *  0.705910 *  0.017440 *   4.00000    1.000000    
     20 Si    c    0.339340 *  0.294090 *  0.982560 *   4.00000    1.000000    
     21 Si    c    0.160660 *  0.705910 *  0.982560 *   4.00000    1.000000    
     22 Si    c    0.339340 *  0.705910 *  0.982560 *   4.00000    1.000000    
     23 Si    c    0.160660 *  0.294090 *  0.982560 *   4.00000    1.000000    
     24 Si    c    0.660660 *  0.705910 *  0.017440 *   4.00000    1.000000    
     25 O1    c    0.106570 *  0.174340 *  0.366200 *   1.73396    1.000000    
     26 O2    c    0.393430 *  0.825660 *  0.366200 *   0.87073    1.000000    
     27 O2    c    0.893430 *  0.174340 *  0.633800 *   0.87073    1.000000    
     28 O2    c    0.606570 *  0.825660 *  0.633800 *   0.87073    1.000000    
     29 O2    c    0.893430 *  0.825660 *  0.633800 *   0.87073    1.000000    
     30 O2    c    0.606570 *  0.174340 *  0.633800 *   0.87073    1.000000    
     31 O3    c    0.106570 *  0.825660 *  0.366200 *   1.33043    1.000000    
     32 O2    c    0.393430 *  0.174340 *  0.366200 *   0.87073    1.000000    
     33 O3    c    0.000000 *  0.000000 *  0.500000 *   1.33043    1.000000    
     34 O2    c    0.500000 *  0.000000 *  0.500000 *   0.87073    1.000000    
     35 O3    c    0.994520 *  0.000000 *  0.250840 *   1.33043    1.000000    
     36 O2    c    0.505480 *  0.000000 *  0.250840 *   0.87073    1.000000    
     37 O2    c    0.005480 *  0.000000 *  0.749160 *   0.87073    1.000000    
     38 O2    c    0.494520 *  0.000000 *  0.749160 *   0.87073    1.000000    
     39 O2    c    0.610230 *  0.175520 *  0.115390 *   0.87073    1.000000    
     40 O2    c    0.889770 *  0.824480 *  0.115390 *   0.87073    1.000000    
     41 O2    c    0.389770 *  0.175520 *  0.884610 *   0.87073    1.000000    
     42 O2    c    0.110230 *  0.824480 *  0.884610 *   0.87073    1.000000    
     43 O2    c    0.389770 *  0.824480 *  0.884610 *   0.87073    1.000000    
     44 O2    c    0.110230 *  0.175520 *  0.884610 *   0.87073    1.000000    
     45 O2    c    0.610230 *  0.824480 *  0.115390 *   0.87073    1.000000    
     46 O3    c    0.889770 *  0.175520 *  0.115390 *   1.33043    1.000000    
     47 O2    c    0.500000 *  0.000000 *  0.000000 *   0.87073    1.000000    
     48 O2    c    0.000000 *  0.000000 *  0.000000 *   0.87073    1.000000    
     49 O3    c    0.151750 *  0.500000 *  0.313330 *   1.33043    1.000000    
     50 O2    c    0.348250 *  0.500000 *  0.313330 *   0.87073    1.000000    
     51 O2    c    0.848250 *  0.500000 *  0.686670 *   0.87073    1.000000    
     52 O2    c    0.651750 *  0.500000 *  0.686670 *   0.87073    1.000000    
     53 O3    c    0.250000 *  0.234950 *  0.285720 *   1.33043    1.000000    
     54 O2    c    0.250000 *  0.765050 *  0.285720 *   0.87073    1.000000    
     55 O2    c    0.750000 *  0.234950 *  0.714280 *   0.87073    1.000000    
     56 O2    c    0.750000 *  0.765050 *  0.714280 *   0.87073    1.000000    
     57 O3    c    0.131410 *  0.268650 *  0.127790 *   1.33043    1.000000    
     58 O2    c    0.368590 *  0.731350 *  0.127790 *   0.87073    1.000000    
     59 O3    c    0.868590 *  0.268650 *  0.872210 *   1.33043    1.000000    
     60 O2    c    0.631410 *  0.731350 *  0.872210 *   0.87073    1.000000    
     61 O2    c    0.868590 *  0.731350 *  0.872210 *   0.87073    1.000000    
     62 O2    c    0.631410 *  0.268650 *  0.872210 *   0.87073    1.000000    
     63 O2    c    0.131410 *  0.731350 *  0.127790 *   0.87073    1.000000    
     64 O2    c    0.368590 *  0.268650 *  0.127790 *   0.87073    1.000000    
     65 O2    c    0.653920 *  0.500000 *  0.058200 *   0.87073    1.000000    
     66 O3    c    0.846080 *  0.500000 *  0.058200 *   1.33043    1.000000    
     67 O2    c    0.346080 *  0.500000 *  0.941800 *   0.87073    1.000000    
     68 O2    c    0.153920 *  0.500000 *  0.941800 *   0.87073    1.000000    
     69 O3    c    0.750000 *  0.231060 *  0.027050 *   1.33043    1.000000    
     70 O2    c    0.750000 *  0.768940 *  0.027050 *   0.87073    1.000000    
     71 O2    c    0.250000 *  0.231060 *  0.972950 *   0.87073    1.000000    
     72 O2    c    0.250000 *  0.768940 *  0.972950 *   0.87073    1.000000    
     73 O1    s    0.106570 *  0.174340 *  0.366200 *  -3.73396    1.000000    
     74 O2    s    0.393430 *  0.825660 *  0.366200 *  -2.87073    1.000000    
     75 O2    s    0.893430 *  0.174340 *  0.633800 *  -2.87073    1.000000    
     76 O2    s    0.606570 *  0.825660 *  0.633800 *  -2.87073    1.000000    
     77 O2    s    0.893430 *  0.825660 *  0.633800 *  -2.87073    1.000000    
     78 O2    s    0.606570 *  0.174340 *  0.633800 *  -2.87073    1.000000    
     79 O3    s    0.106570 *  0.825660 *  0.366200 *  -3.33043    1.000000    
     80 O2    s    0.393430 *  0.174340 *  0.366200 *  -2.87073    1.000000    
     81 O3    s    0.000000 *  0.000000 *  0.500000 *  -3.33043    1.000000    
     82 O2    s    0.500000 *  0.000000 *  0.500000 *  -2.87073    1.000000    
     83 O3    s    0.994520 *  0.000000 *  0.250840 *  -3.33043    1.000000    
     84 O2    s    0.505480 *  0.000000 *  0.250840 *  -2.87073    1.000000    
     85 O2    s    0.005480 *  0.000000 *  0.749160 *  -2.87073    1.000000    
     86 O2    s    0.494520 *  0.000000 *  0.749160 *  -2.87073    1.000000    
     87 O2    s    0.610230 *  0.175520 *  0.115390 *  -2.87073    1.000000    
     88 O2    s    0.889770 *  0.824480 *  0.115390 *  -2.87073    1.000000    
     89 O2    s    0.389770 *  0.175520 *  0.884610 *  -2.87073    1.000000    
     90 O2    s    0.110230 *  0.824480 *  0.884610 *  -2.87073    1.000000    
     91 O2    s    0.389770 *  0.824480 *  0.884610 *  -2.87073    1.000000    
     92 O2    s    0.110230 *  0.175520 *  0.884610 *  -2.87073    1.000000    
     93 O2    s    0.610230 *  0.824480 *  0.115390 *  -2.87073    1.000000    
     94 O3    s    0.889770 *  0.175520 *  0.115390 *  -3.33043    1.000000    
     95 O2    s    0.500000 *  0.000000 *  0.000000 *  -2.87073    1.000000    
     96 O2    s    0.000000 *  0.000000 *  0.000000 *  -2.87073    1.000000    
     97 O3    s    0.151750 *  0.500000 *  0.313330 *  -3.33043    1.000000    
     98 O2    s    0.348250 *  0.500000 *  0.313330 *  -2.87073    1.000000    
     99 O2    s    0.848250 *  0.500000 *  0.686670 *  -2.87073    1.000000    
    100 O2    s    0.651750 *  0.500000 *  0.686670 *  -2.87073    1.000000    
    101 O3    s    0.250000 *  0.234950 *  0.285720 *  -3.33043    1.000000    
    102 O2    s    0.250000 *  0.765050 *  0.285720 *  -2.87073    1.000000    
    103 O2    s    0.750000 *  0.234950 *  0.714280 *  -2.87073    1.000000    
    104 O2    s    0.750000 *  0.765050 *  0.714280 *  -2.87073    1.000000    
    105 O3    s    0.131410 *  0.268650 *  0.127790 *  -3.33043    1.000000    
    106 O2    s    0.368590 *  0.731350 *  0.127790 *  -2.87073    1.000000    
    107 O3    s    0.868590 *  0.268650 *  0.872210 *  -3.33043    1.000000    
    108 O2    s    0.631410 *  0.731350 *  0.872210 *  -2.87073    1.000000    
    109 O2    s    0.868590 *  0.731350 *  0.872210 *  -2.87073    1.000000    
    110 O2    s    0.631410 *  0.268650 *  0.872210 *  -2.87073    1.000000    
    111 O2    s    0.131410 *  0.731350 *  0.127790 *  -2.87073    1.000000    
    112 O2    s    0.368590 *  0.268650 *  0.127790 *  -2.87073    1.000000    
    113 O2    s    0.653920 *  0.500000 *  0.058200 *  -2.87073    1.000000    
    114 O3    s    0.846080 *  0.500000 *  0.058200 *  -3.33043    1.000000    
    115 O2    s    0.346080 *  0.500000 *  0.941800 *  -2.87073    1.000000    
    116 O2    s    0.153920 *  0.500000 *  0.941800 *  -2.87073    1.000000    
    117 O3    s    0.750000 *  0.231060 *  0.027050 *  -3.33043    1.000000    
    118 O2    s    0.750000 *  0.768940 *  0.027050 *  -2.87073    1.000000    
    119 O2    s    0.250000 *  0.231060 *  0.972950 *  -2.87073    1.000000    
    120 O2    s    0.250000 *  0.768940 *  0.972950 *  -2.87073    1.000000    
--------------------------------------------------------------------------------



********************************************************************************
*  General input information                                                   *
********************************************************************************

  Species output for all configurations : 

--------------------------------------------------------------------------------
  Species    Type    Atomic    Atomic    Charge       Radii (Angs)     Library
                     Number     Mass       (e)     Cova   Ionic  VDW   Symbol
--------------------------------------------------------------------------------
    Ge       Core       32      72.61   4.000000   1.170  0.000  1.750 Ge       
    Si       Core       14      28.09   4.000000   1.200  0.000  2.100 Si       
    O1       Core        8      16.00   1.733957   0.730  0.000  1.360 O1       
    O2       Core        8      16.00   0.870733   0.730  0.000  1.360 O2       
    O3       Core        8      16.00   1.330431   0.730  0.000  1.360 O3       
    O1       Shell       8       0.00  -3.733957   0.730  0.000  0.000 O1       
    O2       Shell       8       0.00  -2.870733   0.730  0.000  0.000 O2       
    O3       Shell       8       0.00  -3.330431   0.730  0.000  0.000 O3       
--------------------------------------------------------------------------------


  Lattice summation method               =    Ewald          (3-D)
                                         =    Parry          (2-D)
                                         =    Saunders et al (1-D)
  Accuracy factor for lattice sums       =   12.000


  Analytic derivatives to be used

  Time limit = Infinity

  Maximum range for interatomic potentials =    100000.000000 Angstroms

  General interatomic potentials :

--------------------------------------------------------------------------------
Atom  Types   Potential      Parameter       Value         Units   Cutoffs(Ang)
  1     2                                                            Min /  Max 
--------------------------------------------------------------------------------
Si   c O1   s Buckingham    Buckingham A     1315.2478    eV        0.000 16.000
                            Buckingham rho  0.31775900    Ang       
                            Buckingham C     10.141118    eV*Ang^6  
--------------------------------------------------------------------------------
Si   c O2   s Buckingham    Buckingham A     1315.2478    eV        0.000 16.000
                            Buckingham rho  0.31775900    Ang       
                            Buckingham C     10.141118    eV*Ang^6  
--------------------------------------------------------------------------------
Si   c O3   s Buckingham    Buckingham A     1315.2478    eV        0.000 16.000
                            Buckingham rho  0.31775900    Ang       
                            Buckingham C     10.141118    eV*Ang^6  
--------------------------------------------------------------------------------
Ge   c O1   s Buckingham    Buckingham A     1497.3996    eV        0.000 16.000
                            Buckingham rho  0.32564600    Ang       
                            Buckingham C     16.808599    eV*Ang^6  
--------------------------------------------------------------------------------
Ge   c O2   s Buckingham    Buckingham A     1497.3996    eV        0.000 16.000
                            Buckingham rho  0.32564600    Ang       
                            Buckingham C     16.808599    eV*Ang^6  
--------------------------------------------------------------------------------
Ge   c O3   s Buckingham    Buckingham A     1497.3996    eV        0.000 16.000
                            Buckingham rho  0.32564600    Ang       
                            Buckingham C     16.808599    eV*Ang^6  
--------------------------------------------------------------------------------
O1   s O1   s Buckingham    Buckingham A     22764.000    eV        0.000 16.000
                            Buckingham rho  0.14900000    Ang       
                            Buckingham C     10.937044    eV*Ang^6  
--------------------------------------------------------------------------------
O1   s O2   s Buckingham    Buckingham A     22764.000    eV        0.000 16.000
                            Buckingham rho  0.14900000    Ang       
                            Buckingham C     10.937044    eV*Ang^6  
--------------------------------------------------------------------------------
O1   s O3   s Buckingham    Buckingham A     22764.000    eV        0.000 16.000
                            Buckingham rho  0.14900000    Ang       
                            Buckingham C     10.937044    eV*Ang^6  
--------------------------------------------------------------------------------
O2   s O2   s Buckingham    Buckingham A     22764.000    eV        0.000 16.000
                            Buckingham rho  0.14900000    Ang       
                            Buckingham C     10.937044    eV*Ang^6  
--------------------------------------------------------------------------------
O2   s O3   s Buckingham    Buckingham A     22764.000    eV        0.000 16.000
                            Buckingham rho  0.14900000    Ang       
                            Buckingham C     10.937044    eV*Ang^6  
--------------------------------------------------------------------------------
O3   s O3   s Buckingham    Buckingham A     22764.000    eV        0.000 16.000
                            Buckingham rho  0.14900000    Ang       
                            Buckingham C     10.937044    eV*Ang^6  
--------------------------------------------------------------------------------
O1   c O1   s Spring (c-s)  Spring k 2       180.31577    eV*Ang^-2 0.000  0.800
                            Spring k 4       0.0000000    eV*Ang^-4 
--------------------------------------------------------------------------------
O2   c O2   s Spring (c-s)  Spring k 2       75.969800    eV*Ang^-2 0.000  0.800
                            Spring k 4       0.0000000    eV*Ang^-4 
--------------------------------------------------------------------------------
O3   c O3   s Spring (c-s)  Spring k 2       128.14270    eV*Ang^-2 0.000  0.800
                            Spring k 4       0.0000000    eV*Ang^-4 
--------------------------------------------------------------------------------

  General Three-body potentials :

--------------------------------------------------------------------------------
  Atoms       Potential      Parameter       Value         Units   Cutoffs(Ang)
  1 / 2 / 3                                                          Min /  Max 
--------------------------------------------------------------------------------
Si    core    Harmonic      Three-body cnst  1.2614000    eV*rad^-2 0.000  1.900
O1    shel                  Three-body angl  109.47000    degrees   0.000  1.900
O1    shel                  Three-body k4    0.0000000    eV*rad^-4 0.000  3.500
                            Three-body k3    0.0000000    eV*rad^-3 
--------------------------------------------------------------------------------
Si    core    Harmonic      Three-body cnst  1.2614000    eV*rad^-2 0.000  1.900
O1    shel                  Three-body angl  109.47000    degrees   0.000  1.900
õ(1   shel                  Three-body k4    0.0000000    eV*rad^-4 0.000  3.500
                            Three-body k3    0.0000000    eV*rad^-3 
--------------------------------------------------------------------------------
Si    core    Harmonic      Three-body cnst  1.2614000    eV*rad^-2 0.000  1.900
õ(1   shel                  Three-body angl  109.47000    degrees   0.000  1.900
õ(1   shel                  Three-body k4    0.0000000    eV*rad^-4 0.000  3.500
                            Three-body k3    0.0000000    eV*rad^-3 
--------------------------------------------------------------------------------
Si    core    Harmonic      Three-body cnst  1.2614000    eV*rad^-2 0.000  1.900
O1    shel                  Three-body angl  109.47000    degrees   0.000  1.900
O2    shel                  Three-body k4    0.0000000    eV*rad^-4 0.000  3.500
                            Three-body k3    0.0000000    eV*rad^-3 
--------------------------------------------------------------------------------
Si    core    Harmonic      Three-body cnst  1.2614000    eV*rad^-2 0.000  1.900
O1    shel                  Three-body angl  109.47000    degrees   0.000  1.900
õ(2   shel                  Three-body k4    0.0000000    eV*rad^-4 0.000  3.500
                            Three-body k3    0.0000000    eV*rad^-3 
--------------------------------------------------------------------------------
Si    core    Harmonic      Three-body cnst  1.2614000    eV*rad^-2 0.000  1.900
O2    shel                  Three-body angl  109.47000    degrees   0.000  1.900
õ(1   shel                  Three-body k4    0.0000000    eV*rad^-4 0.000  3.500
                            Three-body k3    0.0000000    eV*rad^-3 
--------------------------------------------------------------------------------
Si    core    Harmonic      Three-body cnst  1.2614000    eV*rad^-2 0.000  1.900
õ(1   shel                  Three-body angl  109.47000    degrees   0.000  1.900
õ(2   shel                  Three-body k4    0.0000000    eV*rad^-4 0.000  3.500
                            Three-body k3    0.0000000    eV*rad^-3 
--------------------------------------------------------------------------------
Si    core    Harmonic      Three-body cnst  1.2614000    eV*rad^-2 0.000  1.900
O2    shel                  Three-body angl  109.47000    degrees   0.000  1.900
O2    shel                  Three-body k4    0.0000000    eV*rad^-4 0.000  3.500
                            Three-body k3    0.0000000    eV*rad^-3 
--------------------------------------------------------------------------------
Si    core    Harmonic      Three-body cnst  1.2614000    eV*rad^-2 0.000  1.900
O2    shel                  Three-body angl  109.47000    degrees   0.000  1.900
õ(2   shel                  Three-body k4    0.0000000    eV*rad^-4 0.000  3.500
                            Three-body k3    0.0000000    eV*rad^-3 
--------------------------------------------------------------------------------
Si    core    Harmonic      Three-body cnst  1.2614000    eV*rad^-2 0.000  1.900
õ(2   shel                  Three-body angl  109.47000    degrees   0.000  1.900
õ(2   shel                  Three-body k4    0.0000000    eV*rad^-4 0.000  3.500
                            Three-body k3    0.0000000    eV*rad^-3 
--------------------------------------------------------------------------------

********************************************************************************
*  Output for configuration   1 : c00072.vasp                                  *
********************************************************************************


  Components of energy : 

--------------------------------------------------------------------------------
  Interatomic potentials     =         760.30861002 eV    
  Three-body potentials      =           0.01473998 eV    
  Monopole - monopole (real) =       -2676.00317478 eV    
  Monopole - monopole (recip)=       -1115.35404472 eV    
  Monopole - monopole (total)=       -3791.35721950 eV    
--------------------------------------------------------------------------------
  Total lattice energy       =       -3031.03386950 eV    
--------------------------------------------------------------------------------
  Total lattice energy       =         -292448.4348 kJ/(mole unit cells)
--------------------------------------------------------------------------------


  Number of variables =      363

  Maximum number of calculations  =          1000
  Maximum Hessian update interval =            10
  Maximum step size               =   0.100000000
  Maximum parameter tolerance     =   0.000010000
  Maximum function  tolerance     =   0.000010000
  Maximum gradient  tolerance     =   0.001000000
  Maximum gradient  component     =   0.010000000

  Symmetry not applied to optimisation

  Cell parameters to be optimised using strains

  Newton-Raphson optimiser to be used

  BFGS hessian update to be used

  Lower half triangular hessian to be used

  Minimiser to switch to RFO
  When gradient norm is less than     0.050000

  Dumpfile to be written after every cycle

  Start of bulk optimisation :

  Cycle:      0 Energy:     -3031.033870  Gnorm:      4.400329  CPU:    0.101
  ** Hessian calculated **
  Cycle:      1 Energy:     -3061.829996  Gnorm:      0.964953  CPU:    0.214
  ** Hessian calculated **
  Cycle:      2 Energy:     -3064.324156  Gnorm:      0.538382  CPU:    0.384
  Cycle:      3 Energy:     -3065.098666  Gnorm:      0.346350  CPU:    0.472
  Cycle:      4 Energy:     -3065.728527  Gnorm:      0.272238  CPU:    0.583
  Cycle:      5 Energy:     -3066.321861  Gnorm:      0.210956  CPU:    0.696
  Cycle:      6 Energy:     -3066.688528  Gnorm:      0.169550  CPU:    0.791
  Cycle:      7 Energy:     -3066.909497  Gnorm:      0.124151  CPU:    0.886
  Cycle:      8 Energy:     -3067.027644  Gnorm:      0.090404  CPU:    0.980
  Cycle:      9 Energy:     -3067.080684  Gnorm:      0.067233  CPU:    1.075
  Cycle:     10 Energy:     -3067.125131  Gnorm:      0.060509  CPU:    1.186
  Cycle:     11 Energy:     -3067.168161  Gnorm:      0.063223  CPU:    1.298
  ** Hessian calculated **
  Cycle:     12 Energy:     -3067.181743  Gnorm:      0.054715  CPU:    1.498
  Cycle:     13 Energy:     -3067.203317  Gnorm:      0.049070  CPU:    1.627
  ** Hessian has required structure
  Cycle:     14 Energy:     -3067.221032  Gnorm:      0.082258  CPU:    1.781
  ** Hessian has required structure
  Cycle:     15 Energy:     -3067.246721  Gnorm:      0.087464  CPU:    1.951
  ** Hessian has required structure
  Cycle:     16 Energy:     -3067.264602  Gnorm:      0.115765  CPU:    2.085
  ** Hessian has required structure
  Cycle:     17 Energy:     -3067.273666  Gnorm:      0.113004  CPU:    2.213
  ** Hessian has required structure
  Cycle:     18 Energy:     -3067.282737  Gnorm:      0.124227  CPU:    2.343
  ** Hessian has required structure
  Cycle:     19 Energy:     -3067.292450  Gnorm:      0.097220  CPU:    2.475
  ** Hessian has required structure
  Cycle:     20 Energy:     -3067.302641  Gnorm:      0.092266  CPU:    2.605
  ** Hessian has required structure
  Cycle:     21 Energy:     -3067.312815  Gnorm:      0.091573  CPU:    2.728
  ** Hessian has wrong structure
  ** Imaginary eigenvectors =   3
  Cycle:     22 Energy:     -3067.358096  Gnorm:      0.090937  CPU:    3.139
  ** Hessian has wrong structure
  ** Imaginary eigenvectors =   2
  Cycle:     23 Energy:     -3067.455954  Gnorm:      0.106968  CPU:    3.469
  ** Hessian has required structure
  Cycle:     24 Energy:     -3067.824333  Gnorm:      0.055600  CPU:    3.701
  ** Hessian has required structure
  Cycle:     25 Energy:     -3067.929833  Gnorm:      0.036144  CPU:    3.844
  ** Hessian has required structure
  Cycle:     26 Energy:     -3067.991909  Gnorm:      0.029569  CPU:    3.987
  ** Hessian has required structure
  Cycle:     27 Energy:     -3068.026346  Gnorm:      0.025892  CPU:    4.129
  ** Hessian has required structure
  Cycle:     28 Energy:     -3068.053946  Gnorm:      0.023441  CPU:    4.287
  ** Hessian has required structure
  Cycle:     29 Energy:     -3068.075805  Gnorm:      0.030193  CPU:    4.429
  ** Hessian has required structure
  Cycle:     30 Energy:     -3068.085277  Gnorm:      0.028357  CPU:    4.554
  ** Hessian has required structure
  Cycle:     31 Energy:     -3068.099770  Gnorm:      0.019797  CPU:    4.697
  ** Hessian has required structure
  Cycle:     32 Energy:     -3068.109982  Gnorm:      0.024594  CPU:    4.841
  ** Hessian has required structure
  Cycle:     33 Energy:     -3068.116507  Gnorm:      0.019629  CPU:    4.984
  ** Hessian has required structure
  Cycle:     34 Energy:     -3068.126119  Gnorm:      0.017075  CPU:    5.221
  ** Hessian has required structure
  Cycle:     35 Energy:     -3068.136953  Gnorm:      0.014863  CPU:    5.383
  ** Hessian has required structure
  Cycle:     36 Energy:     -3068.145503  Gnorm:      0.010784  CPU:    5.527
  ** Hessian has required structure
  Cycle:     37 Energy:     -3068.149520  Gnorm:      0.006918  CPU:    5.688
  ** Hessian has required structure
  Cycle:     38 Energy:     -3068.150729  Gnorm:      0.007752  CPU:    5.833
  ** Hessian has required structure
  Cycle:     39 Energy:     -3068.151918  Gnorm:      0.004152  CPU:    5.989
  ** Hessian has required structure
  Cycle:     40 Energy:     -3068.152336  Gnorm:      0.004565  CPU:    6.145
  ** Hessian has required structure
  Cycle:     41 Energy:     -3068.152761  Gnorm:      0.002554  CPU:    6.317
  ** Hessian has required structure
  Cycle:     42 Energy:     -3068.153043  Gnorm:      0.001954  CPU:    6.489
  ** Hessian has required structure
  Cycle:     43 Energy:     -3068.153318  Gnorm:      0.002077  CPU:    6.643
  ** Hessian has required structure
  Cycle:     44 Energy:     -3068.153576  Gnorm:      0.001176  CPU:    6.897
  ** Hessian has required structure
  Cycle:     45 Energy:     -3068.153664  Gnorm:      0.000756  CPU:    7.068
  ** Hessian has required structure
  Cycle:     46 Energy:     -3068.153694  Gnorm:      0.000502  CPU:    7.224
  ** Hessian has required structure
  Cycle:     47 Energy:     -3068.153705  Gnorm:      0.000373  CPU:    7.360
  ** Hessian has required structure
  Cycle:     48 Energy:     -3068.153718  Gnorm:      0.000213  CPU:    7.532
  ** Hessian has required structure
  Cycle:     49 Energy:     -3068.153719  Gnorm:      0.000191  CPU:    7.669
  ** Hessian has required structure
  Cycle:     50 Energy:     -3068.153719  Gnorm:      0.000190  CPU:    7.886
  ** Hessian has required structure
  Cycle:     51 Energy:     -3068.153719  Gnorm:      0.000190  CPU:    8.050
  ** Hessian has required structure
  Cycle:     52 Energy:     -3068.153719  Gnorm:      0.000190  CPU:    8.312
  ** Hessian calculated **


  **** Optimisation achieved ****


  Final energy =   -3068.15371868 eV      
  Final Gnorm  =       0.00019049

  Components of energy : 

--------------------------------------------------------------------------------
  Interatomic potentials     =         815.22171287 eV    
  Three-body potentials      =           0.22111606 eV    
  Monopole - monopole (real) =       -2206.35928624 eV    
  Monopole - monopole (recip)=       -1677.23726136 eV    
  Monopole - monopole (total)=       -3883.59654761 eV    
--------------------------------------------------------------------------------
  Total lattice energy       =       -3068.15371868 eV    
--------------------------------------------------------------------------------
  Total lattice energy       =         -296029.9328 kJ/(mole unit cells)
--------------------------------------------------------------------------------

  Final fractional coordinates of atoms :

--------------------------------------------------------------------------------
   No.  Atomic        x           y          z          Radius
        Label       (Frac)      (Frac)     (Frac)       (Angs) 
--------------------------------------------------------------------------------
     1  Ge    c     0.052090    0.000000    0.372270    0.000000
     2  Ge    c     0.157558    0.312936    0.287637    0.000000
     3  Ge    c     0.852040    0.312760    0.035440    0.000000
     4  Si    c     0.457062    0.986332    0.372151    0.000000
     5  Si    c     0.947785    0.989380    0.626846    0.000000
     6  Si    c     0.550027    0.982671    0.639806    0.000000
     7  Si    c     0.558812    0.991308    0.124293    0.000000
     8  Si    c     0.950230    0.996868    0.111773    0.000000
     9  Si    c     0.442204    0.985277    0.886408    0.000000
    10  Si    c     0.057741    0.996435    0.870551    0.000000
    11  Si    c     0.353883    0.679640    0.277719    0.000000
    12  Si    c     0.845364    0.294975    0.724243    0.000000
    13  Si    c     0.655560    0.677359    0.721111    0.000000
    14  Si    c     0.833816    0.699547    0.722602    0.000000
    15  Si    c     0.666628    0.273171    0.726026    0.000000
    16  Si    c     0.173859    0.723650    0.283440    0.000000
    17  Si    c     0.340285    0.277186    0.281171    0.000000
    18  Si    c     0.669201    0.281233    0.031252    0.000000
    19  Si    c     0.834159    0.715049    0.028456    0.000000
    20  Si    c     0.332398    0.276074    0.975233    0.000000
    21  Si    c     0.167788    0.709872    0.980695    0.000000
    22  Si    c     0.347575    0.673703    0.974966    0.000000
    23  Si    c     0.152976    0.306088    0.979458    0.000000
    24  Si    c     0.655257    0.679115    0.024714    0.000000
    25  O1    c     0.091252    0.205210    0.378896    0.000000
    26  O2    c     0.412846    0.800235    0.360940    0.000000
    27  O2    c     0.902769    0.175108    0.638675    0.000000
    28  O2    c     0.595277    0.796109    0.639156    0.000000
    29  O2    c     0.887554    0.830228    0.643977    0.000000
    30  O2    c     0.612908    0.139140    0.644684    0.000000
    31  O3    c     0.132601    0.861704    0.375791    0.000000
    32  O2    c     0.395460    0.144640    0.359577    0.000000
    33  O3    c     0.982346    0.968725    0.485566    0.000000
    34  O2    c     0.498141    0.999267    0.511461    0.000000
    35  O3    c     0.007156    0.945290    0.225945    0.000000
    36  O2    c     0.523193    0.002152    0.265811    0.000000
    37  O2    c     0.021449    0.980605    0.726258    0.000000
    38  O2    c     0.492759    0.000638    0.759790    0.000000
    39  O2    c     0.621654    0.145607    0.116041    0.000000
    40  O2    c     0.873720    0.873254    0.108194    0.000000
    41  O2    c     0.375625    0.135190    0.884956    0.000000
    42  O2    c     0.122105    0.843224    0.886982    0.000000
    43  O2    c     0.402439    0.793152    0.887543    0.000000
    44  O2    c     0.096216    0.189362    0.887153    0.000000
    45  O2    c     0.598783    0.801073    0.108096    0.000000
    46  O3    c     0.918546    0.194895    0.126517    0.000000
    47  O2    c     0.493394    0.021155    0.014869    0.000000
    48  O2    c     0.990621    0.968688    0.973165    0.000000
    49  O3    c     0.139695    0.532542    0.308729    0.000000
    50  O2    c     0.371250    0.475548    0.305999    0.000000
    51  O2    c     0.862398    0.500024    0.696760    0.000000
    52  O2    c     0.637716    0.471603    0.697278    0.000000
    53  O3    c     0.252804    0.261204    0.329119    0.000000
    54  O2    c     0.265877    0.723506    0.316868    0.000000
    55  O2    c     0.756046    0.251453    0.683606    0.000000
    56  O2    c     0.743532    0.719756    0.677879    0.000000
    57  O3    c     0.140231    0.249806    0.126773    0.000000
    58  O2    c     0.365129    0.721099    0.125714    0.000000
    59  O3    c     0.861422    0.253046    0.873973    0.000000
    60  O2    c     0.644683    0.725942    0.872815    0.000000
    61  O2    c     0.840523    0.746328    0.874456    0.000000
    62  O2    c     0.662816    0.229395    0.878693    0.000000
    63  O2    c     0.160738    0.771310    0.130632    0.000000
    64  O2    c     0.341935    0.230910    0.127412    0.000000
    65  O2    c     0.633624    0.476995    0.050480    0.000000
    66  O3    c     0.873997    0.530972    0.062223    0.000000
    67  O2    c     0.366734    0.469399    0.947086    0.000000
    68  O2    c     0.133109    0.513154    0.962897    0.000000
    69  O3    c     0.757492    0.275677    0.079850    0.000000
    70  O2    c     0.744207    0.711337    0.068863    0.000000
    71  O2    c     0.241442    0.271078    0.937249    0.000000
    72  O2    c     0.257612    0.712079    0.939783    0.000000
    73  O1    s     0.093336    0.197431    0.371327    0.000000
    74  O2    s     0.410996    0.806786    0.352801    0.000000
    75  O2    s     0.901343    0.168343    0.646675    0.000000
    76  O2    s     0.597118    0.802811    0.648239    0.000000
    77  O2    s     0.887975    0.832682    0.651109    0.000000
    78  O2    s     0.612175    0.137308    0.653384    0.000000
    79  O3    s     0.130541    0.858171    0.365912    0.000000
    80  O2    s     0.395955    0.142200    0.352039    0.000000
    81  O3    s     0.984837    0.973715    0.490680    0.000000
    82  O2    s     0.499466    0.995747    0.510276    0.000000
    83  O3    s     0.004492    0.955526    0.225253    0.000000
    84  O2    s     0.519803    0.999081    0.261402    0.000000
    85  O2    s     0.017652    0.983325    0.731674    0.000000
    86  O2    s     0.493305    0.996744    0.761191    0.000000
    87  O2    s     0.620092    0.143862    0.107248    0.000000
    88  O2    s     0.877251    0.868416    0.099563    0.000000
    89  O2    s     0.377937    0.134822    0.895209    0.000000
    90  O2    s     0.120292    0.844823    0.895708    0.000000
    91  O2    s     0.400629    0.800340    0.897037    0.000000
    92  O2    s     0.098273    0.181733    0.895342    0.000000
    93  O2    s     0.600842    0.807901    0.100335    0.000000
    94  O3    s     0.916210    0.185518    0.117797    0.000000
    95  O2    s     0.495049    0.013715    0.012788    0.000000
    96  O2    s     0.993865    0.974814    0.976502    0.000000
    97  O3    s     0.144658    0.533193    0.304403    0.000000
    98  O2    s     0.366114    0.476826    0.300310    0.000000
    99  O2    s     0.857557    0.499568    0.702365    0.000000
   100  O2    s     0.642713    0.472723    0.702887    0.000000
   101  O3    s     0.253943    0.266931    0.320998    0.000000
   102  O2    s     0.265665    0.718710    0.308983    0.000000
   103  O2    s     0.755866    0.258398    0.692382    0.000000
   104  O2    s     0.743798    0.713132    0.687103    0.000000
   105  O3    s     0.142803    0.260182    0.124612    0.000000
   106  O2    s     0.362063    0.711710    0.125761    0.000000
   107  O3    s     0.859045    0.262091    0.871884    0.000000
   108  O2    s     0.646955    0.715884    0.872886    0.000000
   109  O2    s     0.839050    0.737755    0.874195    0.000000
   110  O2    s     0.663896    0.239544    0.878439    0.000000
   111  O2    s     0.162822    0.760107    0.130206    0.000000
   112  O2    s     0.340736    0.240614    0.127257    0.000000
   113  O2    s     0.639647    0.478385    0.045666    0.000000
   114  O3    s     0.868250    0.531661    0.056702    0.000000
   115  O2    s     0.361077    0.470971    0.953040    0.000000
   116  O2    s     0.138771    0.512104    0.966469    0.000000
   117  O3    s     0.756225    0.279321    0.071175    0.000000
   118  O2    s     0.744229    0.708132    0.059618    0.000000
   119  O2    s     0.241846    0.275512    0.945983    0.000000
   120  O2    s     0.257615    0.707578    0.948088    0.000000
--------------------------------------------------------------------------------

  Final Cartesian lattice vectors (Angstroms) :

       17.181750    0.029313   -0.155768
        0.012488    7.608587   -0.039487
       -0.092359   -0.052304   10.271879


  Final cell parameters and derivatives :

--------------------------------------------------------------------------------
       a           17.182481 Angstrom     dE/de1(xx)     0.011262 eV/strain
       b            7.608700 Angstrom     dE/de2(yy)     0.003195 eV/strain
       c           10.272427 Angstrom     dE/de3(zz)     0.014535 eV/strain
       alpha       90.589921 Degrees      dE/de4(yz)    -0.000937 eV/strain
       beta        91.035067 Degrees      dE/de5(xz)     0.000316 eV/strain
       gamma       89.805523 Degrees      dE/de6(xy)     0.000051 eV/strain
--------------------------------------------------------------------------------

  Primitive cell volume =          1342.682365 Angs**3

  Density of cell =      1.948775 g/cm**3

  Non-primitive cell volume =          1342.682365 Angs**3


  Final internal derivatives :

--------------------------------------------------------------------------------
   No.  Atomic          a             b             c           Radius
        Label          (eV)          (eV)          (eV)        (eV/Angs)
--------------------------------------------------------------------------------
      1 Ge    c       0.000000      0.000000      0.000000      0.000000
      2 Ge    c      -0.000214      0.000265     -0.000039      0.000000
      3 Ge    c      -0.000276      0.001052     -0.000408      0.000000
      4 Si    c      -0.013179     -0.001033     -0.002775      0.000000
      5 Si    c      -0.000198      0.000430      0.000372      0.000000
      6 Si    c       0.023696     -0.002606      0.002074      0.000000
      7 Si    c       0.013564     -0.002335      0.004938      0.000000
      8 Si    c      -0.005827      0.001362     -0.003570      0.000000
      9 Si    c      -0.016702     -0.001827      0.003425      0.000000
     10 Si    c       0.002270      0.000361     -0.001815      0.000000
     11 Si    c       0.000785     -0.000487      0.000462      0.000000
     12 Si    c       0.001001      0.000076      0.000721      0.000000
     13 Si    c      -0.002987     -0.000043     -0.000052      0.000000
     14 Si    c       0.000459     -0.000545      0.002077      0.000000
     15 Si    c      -0.001067      0.000271     -0.000195      0.000000
     16 Si    c       0.002041     -0.000708      0.000175      0.000000
     17 Si    c      -0.002097      0.001782     -0.000149      0.000000
     18 Si    c       0.002511      0.001174      0.000704      0.000000
     19 Si    c      -0.001052     -0.001598     -0.001395      0.000000
     20 Si    c       0.001471      0.000743      0.001640      0.000000
     21 Si    c      -0.000575     -0.000364      0.000429      0.000000
     22 Si    c       0.002463     -0.000732     -0.000185      0.000000
     23 Si    c      -0.000783     -0.000387     -0.000102      0.000000
     24 Si    c      -0.001337      0.000085      0.000014      0.000000
     25 O1    c       0.000187      0.000540      0.000237      0.000000
     26 O2    c       0.000910     -0.000516      0.000408      0.000000
     27 O2    c      -0.000211      0.000207     -0.000082      0.000000
     28 O2    c      -0.000326     -0.001293     -0.000690      0.000000
     29 O2    c      -0.001253     -0.000736     -0.000033      0.000000
     30 O2    c       0.002786      0.002813     -0.000976      0.000000
     31 O3    c       0.002169     -0.001242      0.000029      0.000000
     32 O2    c      -0.001231      0.001597      0.000886      0.000000
     33 O3    c      -0.011730     -0.000729      0.004417      0.000000
     34 O2    c      -0.018218      0.001840     -0.005671      0.000000
     35 O3    c       0.014846     -0.002863      0.007847      0.000000
     36 O2    c       0.020495      0.000837     -0.002055      0.000000
     37 O2    c       0.003530     -0.000055      0.000885      0.000000
     38 O2    c       0.008420      0.002492     -0.006371      0.000000
     39 O2    c       0.004831      0.003026      0.000739      0.000000
     40 O2    c      -0.003568     -0.000944      0.000220      0.000000
     41 O2    c      -0.001407      0.001695     -0.001320      0.000000
     42 O2    c       0.000163     -0.000205     -0.000673      0.000000
     43 O2    c      -0.002770     -0.004204     -0.000756      0.000000
     44 O2    c       0.000362     -0.000074      0.000252      0.000000
     45 O2    c      -0.000547     -0.001378     -0.000240      0.000000
     46 O3    c      -0.001616      0.002414      0.000964      0.000000
     47 O2    c      -0.016936      0.004144      0.000031      0.000000
     48 O2    c      -0.003982     -0.000390     -0.000560      0.000000
     49 O3    c       0.001533      0.001229     -0.000794      0.000000
     50 O2    c      -0.000747     -0.001707     -0.000614      0.000000
     51 O2    c      -0.001154      0.000919      0.000848      0.000000
     52 O2    c      -0.000264     -0.000507      0.000199      0.000000
     53 O3    c       0.006751      0.000605     -0.001011      0.000000
     54 O2    c      -0.005481     -0.000319     -0.000527      0.000000
     55 O2    c      -0.002064      0.000141      0.000202      0.000000
     56 O2    c       0.002226     -0.000135      0.000240      0.000000
     57 O3    c       0.000844      0.000280      0.000747      0.000000
     58 O2    c      -0.000441     -0.000490     -0.000363      0.000000
     59 O3    c      -0.001232      0.000909      0.000446      0.000000
     60 O2    c       0.000109     -0.000671      0.000504      0.000000
     61 O2    c      -0.000755     -0.000582      0.000425      0.000000
     62 O2    c       0.000619      0.000711     -0.000458      0.000000
     63 O2    c       0.000209     -0.000223      0.000095      0.000000
     64 O2    c       0.000190      0.000065     -0.000813      0.000000
     65 O2    c       0.000733     -0.000818     -0.000499      0.000000
     66 O3    c      -0.003822      0.001791     -0.002536      0.000000
     67 O2    c       0.000018     -0.000535     -0.000034      0.000000
     68 O2    c      -0.000144      0.000439     -0.000131      0.000000
     69 O3    c      -0.004875      0.001175     -0.001141      0.000000
     70 O2    c       0.004541     -0.000468     -0.000869      0.000000
     71 O2    c       0.001619     -0.000055     -0.000134      0.000000
     72 O2    c       0.000381      0.000091     -0.000233      0.000000
     73 O1    s       0.001547      0.000420     -0.000551      0.000000
     74 O2    s      -0.006464     -0.001423     -0.000241      0.000000
     75 O2    s      -0.000547      0.000436      0.000505      0.000000
     76 O2    s       0.009319     -0.002035      0.001120      0.000000
     77 O2    s      -0.001253     -0.000502      0.000416      0.000000
     78 O2    s       0.011042      0.001256      0.000867      0.000000
     79 O3    s       0.001960     -0.000523     -0.000034      0.000000
     80 O2    s      -0.009460      0.000848     -0.000633      0.000000
     81 O3    s       0.004022      0.000255     -0.001798      0.000000
     82 O2    s       0.000410     -0.000619      0.000164      0.000000
     83 O3    s      -0.002825     -0.000086     -0.002528      0.000000
     84 O2    s      -0.002114     -0.001749      0.002653      0.000000
     85 O2    s      -0.000946      0.000340     -0.000185      0.000000
     86 O2    s      -0.001142      0.000782     -0.000880      0.000000
     87 O2    s       0.009853      0.001296     -0.001140      0.000000
     88 O2    s      -0.004673     -0.001817      0.000152      0.000000
     89 O2    s      -0.010991      0.001780     -0.001380      0.000000
     90 O2    s       0.001407     -0.000096      0.000429      0.000000
     91 O2    s      -0.011148     -0.002046      0.001782      0.000000
     92 O2    s       0.000423      0.000351     -0.000068      0.000000
     93 O2    s       0.008305     -0.002610      0.000725      0.000000
     94 O3    s      -0.002365      0.001192     -0.001197      0.000000
     95 O2    s       0.002790     -0.000514      0.003913      0.000000
     96 O2    s       0.002616      0.000390     -0.001892      0.000000
     97 O3    s       0.001574      0.000455     -0.000449      0.000000
     98 O2    s      -0.002463     -0.000130     -0.000977      0.000000
     99 O2    s      -0.002231      0.000430      0.001164      0.000000
    100 O2    s       0.003279     -0.000377      0.001271      0.000000
    101 O3    s      -0.002369      0.000378     -0.000671      0.000000
    102 O2    s      -0.000875     -0.000591     -0.000942      0.000000
    103 O2    s       0.000022      0.000689      0.001428      0.000000
    104 O2    s       0.001710     -0.000853      0.001926      0.000000
    105 O3    s      -0.000122     -0.000151     -0.000086      0.000000
    106 O2    s      -0.000103      0.000938      0.000415      0.000000
    107 O3    s      -0.000268      0.000073     -0.000246      0.000000
    108 O2    s       0.002194      0.000310      0.000344      0.000000
    109 O2    s      -0.004372     -0.001195      0.000529      0.000000
    110 O2    s       0.000244     -0.000194      0.000782      0.000000
    111 O2    s       0.001557     -0.000565      0.000737      0.000000
    112 O2    s      -0.002193      0.000651      0.002108      0.000000
    113 O2    s       0.003386     -0.000265     -0.001566      0.000000
    114 O3    s      -0.002182      0.000116     -0.001038      0.000000
    115 O2    s      -0.002313      0.000449      0.001214      0.000000
    116 O2    s       0.000912      0.000124      0.000398      0.000000
    117 O3    s       0.001811      0.000109     -0.001707      0.000000
    118 O2    s       0.001497     -0.000880     -0.002441      0.000000
    119 O2    s      -0.000869      0.000124      0.000585      0.000000
    120 O2    s      -0.000190     -0.000138      0.001145      0.000000
--------------------------------------------------------------------------------
  Maximum abs         0.023696      0.004204      0.007847      0.000000
--------------------------------------------------------------------------------


  Born effective charge tensors : 

-------------------------------------------------------------------------------
  Atom             x           y             z
-------------------------------------------------------------------------------
    1 Ge    x       4.2789      0.3336     -0.1314
            y      -0.1153      3.8820      0.0137
            z      -0.9055     -0.0217      4.4955
-------------------------------------------------------------------------------
    2 Ge    x       4.0400      0.2931     -0.1615
            y       0.3681      4.1372     -0.2771
            z      -0.2635     -0.0876      3.5227
-------------------------------------------------------------------------------
    3 Ge    x       4.0433     -0.3230      0.1339
            y      -0.3341      4.1657     -0.2194
            z       0.1977     -0.0332      3.2825
-------------------------------------------------------------------------------
    4 Si    x       3.3947      0.1066      0.2672
            y      -0.0943      3.2345     -0.0073
            z       0.3673      0.0388      3.8530
-------------------------------------------------------------------------------
    5 Si    x       3.6135     -0.0827     -0.4481
            y       0.0952      3.2742      0.0062
            z      -0.4383      0.1069      4.1984
-------------------------------------------------------------------------------
    6 Si    x       3.4705     -0.1170      0.1205
            y       0.0928      3.2469     -0.0080
            z       0.4952     -0.0645      3.8074
-------------------------------------------------------------------------------
    7 Si    x       3.4632     -0.1176     -0.2594
            y       0.1276      3.2521      0.0124
            z      -0.4196      0.0261      3.1349
-------------------------------------------------------------------------------
    8 Si    x       3.7958     -0.4212      0.2094
            y       0.0267      3.5327     -0.0406
            z       0.7459     -0.2560      3.3209
-------------------------------------------------------------------------------
    9 Si    x       3.4895      0.1534     -0.1716
            y      -0.1378      3.2567     -0.0083
            z      -0.5650     -0.0418      3.0898
-------------------------------------------------------------------------------
   10 Si    x       3.5344      0.1158      0.3453
            y      -0.1298      3.2593     -0.0083
            z       0.4060      0.0190      3.0703
-------------------------------------------------------------------------------
   11 Si    x       3.1542      0.2262      0.0878
            y       0.2639      3.4087      0.1690
            z       0.1181      0.0689      2.8272
-------------------------------------------------------------------------------
   12 Si    x       3.2928     -0.2678      0.0063
            y      -0.3048      3.5216      0.0976
            z      -0.0506      0.0002      3.0820
-------------------------------------------------------------------------------
   13 Si    x       3.2036     -0.2429      0.0449
            y      -0.2869      3.4476     -0.1839
            z       0.1188     -0.0654      2.8046
-------------------------------------------------------------------------------
   14 Si    x       3.2305      0.2924     -0.0920
            y       0.1990      3.4417     -0.1419
            z      -0.1450     -0.0679      2.7617
-------------------------------------------------------------------------------
   15 Si    x       3.1896      0.3077      0.0800
            y       0.1901      3.4781      0.1521
            z       0.1354      0.0653      2.7872
-------------------------------------------------------------------------------
   16 Si    x       3.4322     -0.3953     -0.2743
            y      -0.1165      3.8972      0.2956
            z      -0.2104      0.1504      3.0694
-------------------------------------------------------------------------------
   17 Si    x       3.5113     -0.2724     -0.0103
            y      -0.1672      3.5350     -0.1820
            z       0.0530     -0.1037      2.9125
-------------------------------------------------------------------------------
   18 Si    x       3.5688      0.3242     -0.0339
            y       0.1095      3.5062     -0.2167
            z      -0.0724     -0.0923      2.8212
-------------------------------------------------------------------------------
   19 Si    x       3.3250      0.2689      0.1477
            y      -0.0727      3.6875      0.0406
            z       0.1521      0.0025      2.7668
-------------------------------------------------------------------------------
   20 Si    x       3.2261     -0.3554     -0.1421
            y      -0.1111      3.4523      0.1731
            z      -0.1177      0.0678      2.7213
-------------------------------------------------------------------------------
   21 Si    x       3.2750     -0.3335      0.1879
            y      -0.1146      3.4453     -0.2125
            z       0.1462     -0.0484      2.7081
-------------------------------------------------------------------------------
   22 Si    x       3.2710      0.2634     -0.1270
            y       0.2477      3.4165     -0.1858
            z      -0.1265     -0.0660      2.7156
-------------------------------------------------------------------------------
   23 Si    x       3.3582      0.2980      0.0958
            y       0.2818      3.5399      0.1574
            z       0.1167     -0.0341      2.9734
-------------------------------------------------------------------------------
   24 Si    x       3.2372     -0.2619     -0.1420
            y      -0.2274      3.3686      0.1792
            z      -0.1886      0.0482      2.7370
-------------------------------------------------------------------------------
   25 O1    x      -2.1062     -0.9360      0.4438
            y      -0.9073     -2.5661      0.4263
            z       0.5826      0.4273     -1.7043
-------------------------------------------------------------------------------
   26 O2    x      -1.6432     -0.7087     -0.3366
            y      -0.6695     -2.0005     -0.3433
            z      -0.3553     -0.3411     -1.3609
-------------------------------------------------------------------------------
   27 O2    x      -1.6719      0.6925      0.3102
            y       0.6646     -2.0102     -0.3136
            z       0.3256     -0.3123     -1.3417
-------------------------------------------------------------------------------
   28 O2    x      -1.6684      0.7161     -0.2911
            y       0.6919     -2.0080      0.3053
            z      -0.3670      0.3159     -1.3426
-------------------------------------------------------------------------------
   29 O2    x      -1.7563     -0.7308      0.3434
            y      -0.7537     -1.9678      0.3488
            z       0.3713      0.3437     -1.3358
-------------------------------------------------------------------------------
   30 O2    x      -1.7622     -0.7336     -0.2955
            y      -0.7694     -1.9617     -0.3217
            z      -0.3630     -0.3087     -1.3250
-------------------------------------------------------------------------------
   31 O3    x      -2.1415      0.8795      0.4483
            y       0.9340     -2.1811     -0.5299
            z       0.4997     -0.4777     -1.6564
-------------------------------------------------------------------------------
   32 O2    x      -1.7254      0.7176     -0.3389
            y       0.7438     -1.9701      0.3570
            z      -0.3561      0.3391     -1.3556
-------------------------------------------------------------------------------
   33 O3    x      -1.9740     -0.0332      1.0547
            y      -0.0243     -1.1958      0.0149
            z       1.3696      0.0094     -3.3949
-------------------------------------------------------------------------------
   34 O2    x      -1.5814      0.0126     -0.8174
            y       0.0089     -1.0897      0.0138
            z      -1.0109      0.0258     -2.8247
-------------------------------------------------------------------------------
   35 O3    x      -2.0164      0.0981     -0.9490
            y       0.0811     -1.2748      0.0728
            z      -0.9291      0.0773     -2.7034
-------------------------------------------------------------------------------
   36 O2    x      -1.6919     -0.0117      0.7057
            y      -0.0214     -1.1095      0.0082
            z       0.6921      0.0041     -2.2372
-------------------------------------------------------------------------------
   37 O2    x      -1.8178     -0.0188     -0.7012
            y       0.0115     -1.1107     -0.0109
            z      -0.6803     -0.0352     -2.1486
-------------------------------------------------------------------------------
   38 O2    x      -1.7643     -0.0096      0.7660
            y       0.0017     -1.1148      0.0117
            z       0.7785      0.0209     -2.2217
-------------------------------------------------------------------------------
   39 O2    x      -1.7307     -0.7124      0.3530
            y      -0.6762     -1.9421      0.3691
            z       0.3446      0.3412     -1.2603
-------------------------------------------------------------------------------
   40 O2    x      -1.8280     -0.6418     -0.2344
            y      -0.6415     -1.8344     -0.2737
            z      -0.3108     -0.2529     -1.2184
-------------------------------------------------------------------------------
   41 O2    x      -1.7533      0.7161      0.2994
            y       0.6948     -1.9346     -0.3455
            z       0.3274     -0.3128     -1.2423
-------------------------------------------------------------------------------
   42 O2    x      -1.7793      0.7360     -0.4216
            y       0.6846     -1.9279      0.4218
            z      -0.3654      0.3604     -1.2756
-------------------------------------------------------------------------------
   43 O2    x      -1.6535     -0.7035      0.3250
            y      -0.6096     -2.0194      0.3441
            z       0.3616      0.3370     -1.2446
-------------------------------------------------------------------------------
   44 O2    x      -1.6958     -0.7142     -0.3740
            y      -0.6080     -2.0370     -0.3783
            z      -0.3505     -0.3389     -1.2415
-------------------------------------------------------------------------------
   45 O2    x      -1.6616      0.7007      0.3619
            y       0.6115     -2.0037     -0.3762
            z       0.3697     -0.3552     -1.2454
-------------------------------------------------------------------------------
   46 O3    x      -1.9367      0.8576     -0.3008
            y       0.7616     -2.5473      0.2764
            z      -0.3792      0.2735     -1.3687
-------------------------------------------------------------------------------
   47 O2    x      -1.8226      0.0004     -0.6136
            y       0.0141     -1.1712     -0.0074
            z      -0.3508     -0.0173     -1.7023
-------------------------------------------------------------------------------
   48 O2    x      -1.8259     -0.0239      0.5889
            y      -0.0314     -1.1791      0.0183
            z       0.3237      0.0270     -1.7030
-------------------------------------------------------------------------------
   49 O3    x      -1.3741     -0.1765      0.0872
            y      -0.2390     -3.0657      0.0800
            z       0.1124      0.0916     -1.2102
-------------------------------------------------------------------------------
   50 O2    x      -1.1530     -0.0255     -0.0564
            y      -0.0841     -2.5532      0.0174
            z      -0.0716      0.0265     -1.0793
-------------------------------------------------------------------------------
   51 O2    x      -1.1883      0.0514      0.0474
            y       0.0929     -2.5697     -0.0146
            z       0.0718     -0.0043     -1.0544
-------------------------------------------------------------------------------
   52 O2    x      -1.1620      0.0356     -0.0492
            y       0.0887     -2.5713      0.0333
            z      -0.0772      0.0061     -1.0600
-------------------------------------------------------------------------------
   53 O3    x      -2.9832      0.1132      0.1312
            y       0.0607     -1.3876      0.0874
            z       0.1424      0.0510     -1.2509
-------------------------------------------------------------------------------
   54 O2    x      -2.3730      0.1420      0.0116
            y       0.0875     -1.2442     -0.0641
            z       0.0207     -0.0377     -1.0961
-------------------------------------------------------------------------------
   55 O2    x      -2.3972     -0.0745      0.0462
            y      -0.0297     -1.2591     -0.0624
            z       0.0426     -0.0396     -1.0681
-------------------------------------------------------------------------------
   56 O2    x      -2.3912     -0.0708      0.0083
            y      -0.0376     -1.2390      0.0690
            z      -0.0049      0.0442     -1.0852
-------------------------------------------------------------------------------
   57 O3    x      -1.3647     -0.1661     -0.0184
            y      -0.1509     -1.4662      0.0636
            z      -0.0194      0.0492     -2.5603
-------------------------------------------------------------------------------
   58 O2    x      -1.1941     -0.1274     -0.0127
            y      -0.1185     -1.2691     -0.0063
            z      -0.0059     -0.0006     -2.0658
-------------------------------------------------------------------------------
   59 O3    x      -1.3541      0.1583     -0.1219
            y       0.1470     -1.4363      0.0567
            z      -0.1068      0.0092     -2.6013
-------------------------------------------------------------------------------
   60 O2    x      -1.1868      0.1231      0.0371
            y       0.1141     -1.2745     -0.0050
            z       0.0393      0.0049     -2.0729
-------------------------------------------------------------------------------
   61 O2    x      -1.1955     -0.1234     -0.0218
            y      -0.0714     -1.2596     -0.0401
            z       0.0030     -0.0583     -2.0539
-------------------------------------------------------------------------------
   62 O2    x      -1.1647     -0.1148      0.0613
            y      -0.0696     -1.3038     -0.0163
            z       0.0304     -0.0077     -2.0751
-------------------------------------------------------------------------------
   63 O2    x      -1.2189      0.1362     -0.0586
            y       0.0830     -1.2998     -0.0408
            z      -0.0648     -0.0348     -2.0441
-------------------------------------------------------------------------------
   64 O2    x      -1.1716      0.1187     -0.0533
            y       0.0709     -1.3013      0.0062
            z      -0.0432     -0.0037     -2.0904
-------------------------------------------------------------------------------
   65 O2    x      -1.2206      0.0261      0.0766
            y       0.0820     -2.4998      0.0331
            z       0.0996      0.0249     -1.0282
-------------------------------------------------------------------------------
   66 O3    x      -1.4531      0.1980     -0.1241
            y       0.2643     -3.0615      0.1005
            z      -0.1562      0.1154     -1.1534
-------------------------------------------------------------------------------
   67 O2    x      -1.2250     -0.0518      0.0805
            y      -0.1224     -2.5049      0.0111
            z       0.0941      0.0012     -1.0212
-------------------------------------------------------------------------------
   68 O2    x      -1.2645     -0.0668     -0.0704
            y      -0.1234     -2.5647     -0.0294
            z      -0.0888     -0.0170     -0.9939
-------------------------------------------------------------------------------
   69 O3    x      -3.0602     -0.1132     -0.0942
            y      -0.0551     -1.3757      0.0833
            z      -0.0849      0.0405     -1.2077
-------------------------------------------------------------------------------
   70 O2    x      -2.4000     -0.1433      0.0074
            y      -0.0827     -1.2330     -0.0511
            z       0.0060     -0.0239     -1.0670
-------------------------------------------------------------------------------
   71 O2    x      -2.4401      0.0972     -0.0058
            y       0.0411     -1.2520     -0.0676
            z      -0.0309     -0.0273     -1.0335
-------------------------------------------------------------------------------
   72 O2    x      -2.4548      0.1126      0.0330
            y       0.0707     -1.2381      0.0631
            z       0.0148      0.0282     -1.0358
-------------------------------------------------------------------------------




  Elastic Constant Matrix: (Units=GPa)

-------------------------------------------------------------------------------
  Indices      1         2         3         4         5         6    
-------------------------------------------------------------------------------
       1     52.2198   23.7290   26.6897   -1.1721   -0.3072    1.8183
       2     23.7290   67.1649   26.4223   -1.5674    0.6190    1.2990
       3     26.6897   26.4223   29.0524    0.3063   -1.4724    1.1442
       4     -1.1721   -1.5674    0.3063   11.3903    0.3988    1.0516
       5     -0.3072    0.6190   -1.4724    0.3988   23.6241   -1.2841
       6      1.8183    1.2990    1.1442    1.0516   -1.2841   25.3101
-------------------------------------------------------------------------------


  Elastic Compliance Matrix: (Units=1/GPa)

-------------------------------------------------------------------------------
  Indices      1         2         3         4         5         6    
-------------------------------------------------------------------------------
       1    0.036485  0.000766 -0.034305  0.004977 -0.001844 -0.001410
       2    0.000766  0.023463 -0.022169  0.004025 -0.002083 -0.000530
       3   -0.034305 -0.022169  0.086469 -0.009139  0.005698  0.000362
       4    0.004977  0.004025 -0.009139  0.089556 -0.002339 -0.003991
       5   -0.001844 -0.002083  0.005698 -0.002339  0.042877  0.002254
       6   -0.001410 -0.000530  0.000362 -0.003991  0.002254  0.039902
-------------------------------------------------------------------------------

  Mechanical properties :

-------------------------------------------------------------------------------
  Convention :                    Reuss         Voigt         Hill
-------------------------------------------------------------------------------
  Bulk  Modulus (GPa)     =      28.57155      33.56881      31.07018
  Shear Modulus (GPa)     =      11.31639      16.83796      14.07718
-------------------------------------------------------------------------------
  Velocity S-wave (km/s)  =       2.40976       2.93944       2.68768
  Velocity P-wave (km/s)  =       4.73327       5.36153       5.05716
-------------------------------------------------------------------------------
  Compressibility (1/GPa) =    0.03499985
-------------------------------------------------------------------------------
  Stress axis :                     x             y             z
-------------------------------------------------------------------------------
  Youngs Moduli (GPa)     =      27.40837      42.62039      11.56485
-------------------------------------------------------------------------------
  Poissons Ratio (x)      =                    -0.03264       0.39673
  Poissons Ratio (y)      =      -0.02099                     0.25639
  Poissons Ratio (z)      =       0.94024       0.94487
-------------------------------------------------------------------------------


  Piezoelectric Strain Matrix: (Units=C/m**2)

-------------------------------------------------------------------------------
  Indices      1         2         3         4         5         6    
-------------------------------------------------------------------------------
       x     0.05348   0.33025  -0.47874   0.10593   0.25994  -0.25810
       y    -0.76776   0.11917   0.08618  -0.03973   0.05635   0.08053
       z    -0.05685  -0.37217   0.21542  -0.23734  -0.47918   0.05635
-------------------------------------------------------------------------------


  Piezoelectric Stress Matrix: (Units=10**-11 C/N)

-------------------------------------------------------------------------------
  Indices      1         2         3         4         5         6    
-------------------------------------------------------------------------------
       x     1.90389   1.84247  -5.01328   1.58793   0.68012  -1.05591
       y    -3.12922  -0.00223   3.18610  -0.81405   0.43493   0.45497
       z    -1.01260  -1.35384   2.82871  -2.41092  -1.77562   0.24706
-------------------------------------------------------------------------------


  Static dielectric constant tensor : 

-------------------------------------------------------------------------------
              x         y         z
-------------------------------------------------------------------------------
       x     3.95098  -0.03785  -0.09066
       y    -0.03785   4.11257  -0.11935
       z    -0.09066  -0.11935   3.29840
--------------------------------------------------------------------------------

  High frequency dielectric constant tensor : 

-------------------------------------------------------------------------------
              x         y         z
-------------------------------------------------------------------------------
       x     1.67734  -0.00035  -0.00025
       y    -0.00035   1.68424  -0.00098
       z    -0.00025  -0.00098   1.61615
-------------------------------------------------------------------------------

  Static refractive indices : 

-------------------------------------------------------------------------------
    1 =    1.80776      2 =    1.99016      3 =    2.03303
-------------------------------------------------------------------------------

  High frequency refractive indices : 

-------------------------------------------------------------------------------
    1 =    1.27127      2 =    1.29512      3 =    1.29779
-------------------------------------------------------------------------------


  Time to end of optimisation =       8.6761 seconds


  Peak dynamic memory used =       5.01 MB 


  Timing analysis for GULP :

--------------------------------------------------------------------------------
  Task / Subroutine                                          Time (Seconds)
--------------------------------------------------------------------------------
  Calculation of reciprocal space energy and derivatives          0.4897
  Calculation of real space energy and derivatives                5.3918
  Calculation of three-body energy and derivatives                0.5355
  Calculation and manipulation of Hessian matrix                  2.4308
  Calculation of matrix inversion                                 0.0264
  Global summation overhead                                       0.0001
--------------------------------------------------------------------------------
  Total CPU time                                                  8.6761
--------------------------------------------------------------------------------


  Dump file written as c00072.vasp.grs
  CIF file written as c00072.vasp.cif


  Job Finished at 11:39.19  7th October    2025                               

