********************************************************************************
*                       GENERAL UTILITY LATTICE PROGRAM                        *
*                                 Julian Gale                                  *
*                       Curtin Institute for Computation                       *
*                    School of Molecular and Life Sciences                     *
*                    Curtin University, Western Australia                      *
********************************************************************************
* Version = 6.1.2 * Last modified =   3rd November 2022                        *
********************************************************************************
*  optimise     - perform optimisation run                                     *
*  conp         - constant pressure calculation                                *
*  property     - calculate properties for final geometry                      *
********************************************************************************

  Job Started  at 11:43.06  7th October    2025                               

  Number of CPUs =     1


  Total number of configurations input =      1

********************************************************************************
*  Input for Configuration =   1 : c00095.vasp                                 *
********************************************************************************

  Formula = Ge3Si21O48                                                  

  Number of irreducible atoms/shells =     120


  Total number atoms/shells =     120

  Dimensionality = 3               :  Bulk   



  Cartesian lattice vectors (Angstroms) :

       17.182800    0.000000    0.000000
        0.000000    7.513760    0.000000
        0.000000    0.000000   10.447700

  Cell parameters (Angstroms/Degrees):

  a =      17.1828    alpha =  90.0000
  b =       7.5138    beta  =  90.0000
  c =      10.4477    gamma =  90.0000

  Initial cell volume =        1348.875752 Angs**3

  Temperature of configuration =   0.00     K 

  Pressure of configuration =         0.000 GPa 

  Fractional coordinates of asymmetric unit :

--------------------------------------------------------------------------------
   No.  Atomic       x           y          z         Charge      Occupancy
        Label      (Frac)      (Frac)     (Frac)        (e)         (Frac)  
--------------------------------------------------------------------------------
      1 Ge    c    0.052090    0.000000    0.372270     4.00000    1.000000    
      2 Ge    c    0.839810 *  0.293910 *  0.726560 *   4.00000    1.000000    
      3 Ge    c    0.660660 *  0.705910 *  0.017440 *   4.00000    1.000000    
      4 Si    c    0.447910 *  0.000000 *  0.372270 *   4.00000    1.000000    
      5 Si    c    0.947910 *  0.000000 *  0.627730 *   4.00000    1.000000    
      6 Si    c    0.552090 *  0.000000 *  0.627730 *   4.00000    1.000000    
      7 Si    c    0.556730 *  0.000000 *  0.122130 *   4.00000    1.000000    
      8 Si    c    0.943270 *  0.000000 *  0.122130 *   4.00000    1.000000    
      9 Si    c    0.443270 *  0.000000 *  0.877870 *   4.00000    1.000000    
     10 Si    c    0.056730 *  0.000000 *  0.877870 *   4.00000    1.000000    
     11 Si    c    0.160190 *  0.293910 *  0.273440 *   4.00000    1.000000    
     12 Si    c    0.339810 *  0.706090 *  0.273440 *   4.00000    1.000000    
     13 Si    c    0.660190 *  0.706090 *  0.726560 *   4.00000    1.000000    
     14 Si    c    0.839810 *  0.706090 *  0.726560 *   4.00000    1.000000    
     15 Si    c    0.660190 *  0.293910 *  0.726560 *   4.00000    1.000000    
     16 Si    c    0.160190 *  0.706090 *  0.273440 *   4.00000    1.000000    
     17 Si    c    0.339810 *  0.293910 *  0.273440 *   4.00000    1.000000    
     18 Si    c    0.660660 *  0.294090 *  0.017440 *   4.00000    1.000000    
     19 Si    c    0.839340 *  0.705910 *  0.017440 *   4.00000    1.000000    
     20 Si    c    0.339340 *  0.294090 *  0.982560 *   4.00000    1.000000    
     21 Si    c    0.160660 *  0.705910 *  0.982560 *   4.00000    1.000000    
     22 Si    c    0.339340 *  0.705910 *  0.982560 *   4.00000    1.000000    
     23 Si    c    0.160660 *  0.294090 *  0.982560 *   4.00000    1.000000    
     24 Si    c    0.839340 *  0.294090 *  0.017440 *   4.00000    1.000000    
     25 O3    c    0.106570 *  0.174340 *  0.366200 *   1.33043    1.000000    
     26 O2    c    0.393430 *  0.825660 *  0.366200 *   0.87073    1.000000    
     27 O3    c    0.893430 *  0.174340 *  0.633800 *   1.33043    1.000000    
     28 O2    c    0.606570 *  0.825660 *  0.633800 *   0.87073    1.000000    
     29 O2    c    0.893430 *  0.825660 *  0.633800 *   0.87073    1.000000    
     30 O2    c    0.606570 *  0.174340 *  0.633800 *   0.87073    1.000000    
     31 O3    c    0.106570 *  0.825660 *  0.366200 *   1.33043    1.000000    
     32 O2    c    0.393430 *  0.174340 *  0.366200 *   0.87073    1.000000    
     33 O3    c    0.000000 *  0.000000 *  0.500000 *   1.33043    1.000000    
     34 O2    c    0.500000 *  0.000000 *  0.500000 *   0.87073    1.000000    
     35 O3    c    0.994520 *  0.000000 *  0.250840 *   1.33043    1.000000    
     36 O2    c    0.505480 *  0.000000 *  0.250840 *   0.87073    1.000000    
     37 O2    c    0.005480 *  0.000000 *  0.749160 *   0.87073    1.000000    
     38 O2    c    0.494520 *  0.000000 *  0.749160 *   0.87073    1.000000    
     39 O2    c    0.610230 *  0.175520 *  0.115390 *   0.87073    1.000000    
     40 O2    c    0.889770 *  0.824480 *  0.115390 *   0.87073    1.000000    
     41 O2    c    0.389770 *  0.175520 *  0.884610 *   0.87073    1.000000    
     42 O2    c    0.110230 *  0.824480 *  0.884610 *   0.87073    1.000000    
     43 O2    c    0.389770 *  0.824480 *  0.884610 *   0.87073    1.000000    
     44 O2    c    0.110230 *  0.175520 *  0.884610 *   0.87073    1.000000    
     45 O3    c    0.610230 *  0.824480 *  0.115390 *   1.33043    1.000000    
     46 O2    c    0.889770 *  0.175520 *  0.115390 *   0.87073    1.000000    
     47 O2    c    0.500000 *  0.000000 *  0.000000 *   0.87073    1.000000    
     48 O2    c    0.000000 *  0.000000 *  0.000000 *   0.87073    1.000000    
     49 O2    c    0.151750 *  0.500000 *  0.313330 *   0.87073    1.000000    
     50 O2    c    0.348250 *  0.500000 *  0.313330 *   0.87073    1.000000    
     51 O3    c    0.848250 *  0.500000 *  0.686670 *   1.33043    1.000000    
     52 O2    c    0.651750 *  0.500000 *  0.686670 *   0.87073    1.000000    
     53 O2    c    0.250000 *  0.234950 *  0.285720 *   0.87073    1.000000    
     54 O2    c    0.250000 *  0.765050 *  0.285720 *   0.87073    1.000000    
     55 O3    c    0.750000 *  0.234950 *  0.714280 *   1.33043    1.000000    
     56 O2    c    0.750000 *  0.765050 *  0.714280 *   0.87073    1.000000    
     57 O2    c    0.131410 *  0.268650 *  0.127790 *   0.87073    1.000000    
     58 O2    c    0.368590 *  0.731350 *  0.127790 *   0.87073    1.000000    
     59 O3    c    0.868590 *  0.268650 *  0.872210 *   1.33043    1.000000    
     60 O3    c    0.631410 *  0.731350 *  0.872210 *   1.33043    1.000000    
     61 O2    c    0.868590 *  0.731350 *  0.872210 *   0.87073    1.000000    
     62 O2    c    0.631410 *  0.268650 *  0.872210 *   0.87073    1.000000    
     63 O2    c    0.131410 *  0.731350 *  0.127790 *   0.87073    1.000000    
     64 O2    c    0.368590 *  0.268650 *  0.127790 *   0.87073    1.000000    
     65 O3    c    0.653920 *  0.500000 *  0.058200 *   1.33043    1.000000    
     66 O2    c    0.846080 *  0.500000 *  0.058200 *   0.87073    1.000000    
     67 O2    c    0.346080 *  0.500000 *  0.941800 *   0.87073    1.000000    
     68 O2    c    0.153920 *  0.500000 *  0.941800 *   0.87073    1.000000    
     69 O2    c    0.750000 *  0.231060 *  0.027050 *   0.87073    1.000000    
     70 O3    c    0.750000 *  0.768940 *  0.027050 *   1.33043    1.000000    
     71 O2    c    0.250000 *  0.231060 *  0.972950 *   0.87073    1.000000    
     72 O2    c    0.250000 *  0.768940 *  0.972950 *   0.87073    1.000000    
     73 O3    s    0.106570 *  0.174340 *  0.366200 *  -3.33043    1.000000    
     74 O2    s    0.393430 *  0.825660 *  0.366200 *  -2.87073    1.000000    
     75 O3    s    0.893430 *  0.174340 *  0.633800 *  -3.33043    1.000000    
     76 O2    s    0.606570 *  0.825660 *  0.633800 *  -2.87073    1.000000    
     77 O2    s    0.893430 *  0.825660 *  0.633800 *  -2.87073    1.000000    
     78 O2    s    0.606570 *  0.174340 *  0.633800 *  -2.87073    1.000000    
     79 O3    s    0.106570 *  0.825660 *  0.366200 *  -3.33043    1.000000    
     80 O2    s    0.393430 *  0.174340 *  0.366200 *  -2.87073    1.000000    
     81 O3    s    0.000000 *  0.000000 *  0.500000 *  -3.33043    1.000000    
     82 O2    s    0.500000 *  0.000000 *  0.500000 *  -2.87073    1.000000    
     83 O3    s    0.994520 *  0.000000 *  0.250840 *  -3.33043    1.000000    
     84 O2    s    0.505480 *  0.000000 *  0.250840 *  -2.87073    1.000000    
     85 O2    s    0.005480 *  0.000000 *  0.749160 *  -2.87073    1.000000    
     86 O2    s    0.494520 *  0.000000 *  0.749160 *  -2.87073    1.000000    
     87 O2    s    0.610230 *  0.175520 *  0.115390 *  -2.87073    1.000000    
     88 O2    s    0.889770 *  0.824480 *  0.115390 *  -2.87073    1.000000    
     89 O2    s    0.389770 *  0.175520 *  0.884610 *  -2.87073    1.000000    
     90 O2    s    0.110230 *  0.824480 *  0.884610 *  -2.87073    1.000000    
     91 O2    s    0.389770 *  0.824480 *  0.884610 *  -2.87073    1.000000    
     92 O2    s    0.110230 *  0.175520 *  0.884610 *  -2.87073    1.000000    
     93 O3    s    0.610230 *  0.824480 *  0.115390 *  -3.33043    1.000000    
     94 O2    s    0.889770 *  0.175520 *  0.115390 *  -2.87073    1.000000    
     95 O2    s    0.500000 *  0.000000 *  0.000000 *  -2.87073    1.000000    
     96 O2    s    0.000000 *  0.000000 *  0.000000 *  -2.87073    1.000000    
     97 O2    s    0.151750 *  0.500000 *  0.313330 *  -2.87073    1.000000    
     98 O2    s    0.348250 *  0.500000 *  0.313330 *  -2.87073    1.000000    
     99 O3    s    0.848250 *  0.500000 *  0.686670 *  -3.33043    1.000000    
    100 O2    s    0.651750 *  0.500000 *  0.686670 *  -2.87073    1.000000    
    101 O2    s    0.250000 *  0.234950 *  0.285720 *  -2.87073    1.000000    
    102 O2    s    0.250000 *  0.765050 *  0.285720 *  -2.87073    1.000000    
    103 O3    s    0.750000 *  0.234950 *  0.714280 *  -3.33043    1.000000    
    104 O2    s    0.750000 *  0.765050 *  0.714280 *  -2.87073    1.000000    
    105 O2    s    0.131410 *  0.268650 *  0.127790 *  -2.87073    1.000000    
    106 O2    s    0.368590 *  0.731350 *  0.127790 *  -2.87073    1.000000    
    107 O3    s    0.868590 *  0.268650 *  0.872210 *  -3.33043    1.000000    
    108 O3    s    0.631410 *  0.731350 *  0.872210 *  -3.33043    1.000000    
    109 O2    s    0.868590 *  0.731350 *  0.872210 *  -2.87073    1.000000    
    110 O2    s    0.631410 *  0.268650 *  0.872210 *  -2.87073    1.000000    
    111 O2    s    0.131410 *  0.731350 *  0.127790 *  -2.87073    1.000000    
    112 O2    s    0.368590 *  0.268650 *  0.127790 *  -2.87073    1.000000    
    113 O3    s    0.653920 *  0.500000 *  0.058200 *  -3.33043    1.000000    
    114 O2    s    0.846080 *  0.500000 *  0.058200 *  -2.87073    1.000000    
    115 O2    s    0.346080 *  0.500000 *  0.941800 *  -2.87073    1.000000    
    116 O2    s    0.153920 *  0.500000 *  0.941800 *  -2.87073    1.000000    
    117 O2    s    0.750000 *  0.231060 *  0.027050 *  -2.87073    1.000000    
    118 O3    s    0.750000 *  0.768940 *  0.027050 *  -3.33043    1.000000    
    119 O2    s    0.250000 *  0.231060 *  0.972950 *  -2.87073    1.000000    
    120 O2    s    0.250000 *  0.768940 *  0.972950 *  -2.87073    1.000000    
--------------------------------------------------------------------------------



********************************************************************************
*  General input information                                                   *
********************************************************************************

  Species output for all configurations : 

--------------------------------------------------------------------------------
  Species    Type    Atomic    Atomic    Charge       Radii (Angs)     Library
                     Number     Mass       (e)     Cova   Ionic  VDW   Symbol
--------------------------------------------------------------------------------
    Ge       Core       32      72.61   4.000000   1.170  0.000  1.750 Ge       
    Si       Core       14      28.09   4.000000   1.200  0.000  2.100 Si       
    O1       Core        8      16.00   1.733957   0.730  0.000  0.000 O1       
    O2       Core        8      16.00   0.870733   0.730  0.000  1.360 O2       
    O3       Core        8      16.00   1.330431   0.730  0.000  1.360 O3       
    O1       Shell       8       0.00  -3.733957   0.730  0.000  0.000 O1       
    O2       Shell       8       0.00  -2.870733   0.730  0.000  0.000 O2       
    O3       Shell       8       0.00  -3.330431   0.730  0.000  0.000 O3       
--------------------------------------------------------------------------------


  Lattice summation method               =    Ewald          (3-D)
                                         =    Parry          (2-D)
                                         =    Saunders et al (1-D)
  Accuracy factor for lattice sums       =   12.000


  Analytic derivatives to be used

  Time limit = Infinity

  Maximum range for interatomic potentials =    100000.000000 Angstroms

  General interatomic potentials :

--------------------------------------------------------------------------------
Atom  Types   Potential      Parameter       Value         Units   Cutoffs(Ang)
  1     2                                                            Min /  Max 
--------------------------------------------------------------------------------
Si   c O1   s Buckingham    Buckingham A     1315.2478    eV        0.000 16.000
                            Buckingham rho  0.31775900    Ang       
                            Buckingham C     10.141118    eV*Ang^6  
--------------------------------------------------------------------------------
Si   c O2   s Buckingham    Buckingham A     1315.2478    eV        0.000 16.000
                            Buckingham rho  0.31775900    Ang       
                            Buckingham C     10.141118    eV*Ang^6  
--------------------------------------------------------------------------------
Si   c O3   s Buckingham    Buckingham A     1315.2478    eV        0.000 16.000
                            Buckingham rho  0.31775900    Ang       
                            Buckingham C     10.141118    eV*Ang^6  
--------------------------------------------------------------------------------
Ge   c O1   s Buckingham    Buckingham A     1497.3996    eV        0.000 16.000
                            Buckingham rho  0.32564600    Ang       
                            Buckingham C     16.808599    eV*Ang^6  
--------------------------------------------------------------------------------
Ge   c O2   s Buckingham    Buckingham A     1497.3996    eV        0.000 16.000
                            Buckingham rho  0.32564600    Ang       
                            Buckingham C     16.808599    eV*Ang^6  
--------------------------------------------------------------------------------
Ge   c O3   s Buckingham    Buckingham A     1497.3996    eV        0.000 16.000
                            Buckingham rho  0.32564600    Ang       
                            Buckingham C     16.808599    eV*Ang^6  
--------------------------------------------------------------------------------
O1   s O1   s Buckingham    Buckingham A     22764.000    eV        0.000 16.000
                            Buckingham rho  0.14900000    Ang       
                            Buckingham C     10.937044    eV*Ang^6  
--------------------------------------------------------------------------------
O1   s O2   s Buckingham    Buckingham A     22764.000    eV        0.000 16.000
                            Buckingham rho  0.14900000    Ang       
                            Buckingham C     10.937044    eV*Ang^6  
--------------------------------------------------------------------------------
O1   s O3   s Buckingham    Buckingham A     22764.000    eV        0.000 16.000
                            Buckingham rho  0.14900000    Ang       
                            Buckingham C     10.937044    eV*Ang^6  
--------------------------------------------------------------------------------
O2   s O2   s Buckingham    Buckingham A     22764.000    eV        0.000 16.000
                            Buckingham rho  0.14900000    Ang       
                            Buckingham C     10.937044    eV*Ang^6  
--------------------------------------------------------------------------------
O2   s O3   s Buckingham    Buckingham A     22764.000    eV        0.000 16.000
                            Buckingham rho  0.14900000    Ang       
                            Buckingham C     10.937044    eV*Ang^6  
--------------------------------------------------------------------------------
O3   s O3   s Buckingham    Buckingham A     22764.000    eV        0.000 16.000
                            Buckingham rho  0.14900000    Ang       
                            Buckingham C     10.937044    eV*Ang^6  
--------------------------------------------------------------------------------
O1   c O1   s Spring (c-s)  Spring k 2       180.31577    eV*Ang^-2 0.000  0.800
                            Spring k 4       0.0000000    eV*Ang^-4 
--------------------------------------------------------------------------------
O2   c O2   s Spring (c-s)  Spring k 2       75.969800    eV*Ang^-2 0.000  0.800
                            Spring k 4       0.0000000    eV*Ang^-4 
--------------------------------------------------------------------------------
O3   c O3   s Spring (c-s)  Spring k 2       128.14270    eV*Ang^-2 0.000  0.800
                            Spring k 4       0.0000000    eV*Ang^-4 
--------------------------------------------------------------------------------

  General Three-body potentials :

--------------------------------------------------------------------------------
  Atoms       Potential      Parameter       Value         Units   Cutoffs(Ang)
  1 / 2 / 3                                                          Min /  Max 
--------------------------------------------------------------------------------
Si    core    Harmonic      Three-body cnst  1.2614000    eV*rad^-2 0.000  1.900
O1    shel                  Three-body angl  109.47000    degrees   0.000  1.900
O1    shel                  Three-body k4    0.0000000    eV*rad^-4 0.000  3.500
                            Three-body k3    0.0000000    eV*rad^-3 
--------------------------------------------------------------------------------
Si    core    Harmonic      Three-body cnst  1.2614000    eV*rad^-2 0.000  1.900
O1    shel                  Three-body angl  109.47000    degrees   0.000  1.900
õ(1   shel                  Three-body k4    0.0000000    eV*rad^-4 0.000  3.500
                            Three-body k3    0.0000000    eV*rad^-3 
--------------------------------------------------------------------------------
Si    core    Harmonic      Three-body cnst  1.2614000    eV*rad^-2 0.000  1.900
õ(1   shel                  Three-body angl  109.47000    degrees   0.000  1.900
õ(1   shel                  Three-body k4    0.0000000    eV*rad^-4 0.000  3.500
                            Three-body k3    0.0000000    eV*rad^-3 
--------------------------------------------------------------------------------
Si    core    Harmonic      Three-body cnst  1.2614000    eV*rad^-2 0.000  1.900
O1    shel                  Three-body angl  109.47000    degrees   0.000  1.900
O2    shel                  Three-body k4    0.0000000    eV*rad^-4 0.000  3.500
                            Three-body k3    0.0000000    eV*rad^-3 
--------------------------------------------------------------------------------
Si    core    Harmonic      Three-body cnst  1.2614000    eV*rad^-2 0.000  1.900
O1    shel                  Three-body angl  109.47000    degrees   0.000  1.900
õ(2   shel                  Three-body k4    0.0000000    eV*rad^-4 0.000  3.500
                            Three-body k3    0.0000000    eV*rad^-3 
--------------------------------------------------------------------------------
Si    core    Harmonic      Three-body cnst  1.2614000    eV*rad^-2 0.000  1.900
O2    shel                  Three-body angl  109.47000    degrees   0.000  1.900
õ(1   shel                  Three-body k4    0.0000000    eV*rad^-4 0.000  3.500
                            Three-body k3    0.0000000    eV*rad^-3 
--------------------------------------------------------------------------------
Si    core    Harmonic      Three-body cnst  1.2614000    eV*rad^-2 0.000  1.900
õ(1   shel                  Three-body angl  109.47000    degrees   0.000  1.900
õ(2   shel                  Three-body k4    0.0000000    eV*rad^-4 0.000  3.500
                            Three-body k3    0.0000000    eV*rad^-3 
--------------------------------------------------------------------------------
Si    core    Harmonic      Three-body cnst  1.2614000    eV*rad^-2 0.000  1.900
O2    shel                  Three-body angl  109.47000    degrees   0.000  1.900
O2    shel                  Three-body k4    0.0000000    eV*rad^-4 0.000  3.500
                            Three-body k3    0.0000000    eV*rad^-3 
--------------------------------------------------------------------------------
Si    core    Harmonic      Three-body cnst  1.2614000    eV*rad^-2 0.000  1.900
O2    shel                  Three-body angl  109.47000    degrees   0.000  1.900
õ(2   shel                  Three-body k4    0.0000000    eV*rad^-4 0.000  3.500
                            Three-body k3    0.0000000    eV*rad^-3 
--------------------------------------------------------------------------------
Si    core    Harmonic      Three-body cnst  1.2614000    eV*rad^-2 0.000  1.900
õ(2   shel                  Three-body angl  109.47000    degrees   0.000  1.900
õ(2   shel                  Three-body k4    0.0000000    eV*rad^-4 0.000  3.500
                            Three-body k3    0.0000000    eV*rad^-3 
--------------------------------------------------------------------------------

********************************************************************************
*  Output for configuration   1 : c00095.vasp                                  *
********************************************************************************


  Components of energy : 

--------------------------------------------------------------------------------
  Interatomic potentials     =         760.30861002 eV    
  Three-body potentials      =           0.01424146 eV    
  Monopole - monopole (real) =       -2676.00317478 eV    
  Monopole - monopole (recip)=       -1115.35404472 eV    
  Monopole - monopole (total)=       -3791.35721950 eV    
--------------------------------------------------------------------------------
  Total lattice energy       =       -3031.03436803 eV    
--------------------------------------------------------------------------------
  Total lattice energy       =         -292448.4829 kJ/(mole unit cells)
--------------------------------------------------------------------------------


  Number of variables =      363

  Maximum number of calculations  =          1000
  Maximum Hessian update interval =            10
  Maximum step size               =   0.100000000
  Maximum parameter tolerance     =   0.000010000
  Maximum function  tolerance     =   0.000010000
  Maximum gradient  tolerance     =   0.001000000
  Maximum gradient  component     =   0.010000000

  Symmetry not applied to optimisation

  Cell parameters to be optimised using strains

  Newton-Raphson optimiser to be used

  BFGS hessian update to be used

  Lower half triangular hessian to be used

  Minimiser to switch to RFO
  When gradient norm is less than     0.050000

  Dumpfile to be written after every cycle

  Start of bulk optimisation :

  Cycle:      0 Energy:     -3031.034368  Gnorm:      4.405149  CPU:    0.107
  ** Hessian calculated **
  Cycle:      1 Energy:     -3042.970806  Gnorm:      3.625545  CPU:    0.279
  ** Hessian calculated **
  Cycle:      2 Energy:     -3063.521954  Gnorm:      0.819708  CPU:    0.462
  ** Hessian calculated **
  Cycle:      3 Energy:     -3065.269022  Gnorm:      0.463016  CPU:    0.648
  Cycle:      4 Energy:     -3065.860620  Gnorm:      0.303152  CPU:    0.744
  Cycle:      5 Energy:     -3066.370553  Gnorm:      0.236996  CPU:    0.859
  Cycle:      6 Energy:     -3066.838881  Gnorm:      0.182561  CPU:    0.974
  Cycle:      7 Energy:     -3067.112219  Gnorm:      0.146224  CPU:    1.070
  Cycle:      8 Energy:     -3067.271459  Gnorm:      0.105444  CPU:    1.167
  Cycle:      9 Energy:     -3067.354025  Gnorm:      0.072927  CPU:    1.263
  Cycle:     10 Energy:     -3067.397279  Gnorm:      0.056705  CPU:    1.377
  Cycle:     11 Energy:     -3067.426961  Gnorm:      0.052408  CPU:    1.491
  Cycle:     12 Energy:     -3067.459652  Gnorm:      0.058071  CPU:    1.605
  ** Hessian calculated **
  Cycle:     13 Energy:     -3067.488191  Gnorm:      0.056802  CPU:    1.807
  Cycle:     14 Energy:     -3067.536050  Gnorm:      0.054589  CPU:    1.937
  Cycle:     15 Energy:     -3067.598539  Gnorm:      0.051514  CPU:    2.050
  Cycle:     16 Energy:     -3067.705089  Gnorm:      0.045756  CPU:    2.179
  ** Hessian has wrong structure
  ** Imaginary eigenvectors =   2
  Cycle:     17 Energy:     -3067.717365  Gnorm:      0.088359  CPU:    2.433
  ** Hessian has wrong structure
  ** Imaginary eigenvectors =   2
  ** Hessian has wrong structure
  ** Imaginary eigenvectors =   1
  Cycle:     18 Energy:     -3067.753293  Gnorm:      0.090802  CPU:    2.958
  ** Hessian has wrong structure
  ** Imaginary eigenvectors =   1
  ** Hessian has required structure
  Cycle:     19 Energy:     -3068.045252  Gnorm:      0.055731  CPU:    3.442
  ** Hessian has required structure
  Cycle:     20 Energy:     -3068.159635  Gnorm:      0.033222  CPU:    3.599
  ** Hessian has required structure
  Cycle:     21 Energy:     -3068.210385  Gnorm:      0.038871  CPU:    3.755
  ** Hessian has required structure
  Cycle:     22 Energy:     -3068.259939  Gnorm:      0.022206  CPU:    3.911
  ** Hessian has required structure
  Cycle:     23 Energy:     -3068.274267  Gnorm:      0.022936  CPU:    4.066
  ** Hessian has required structure
  Cycle:     24 Energy:     -3068.292936  Gnorm:      0.019114  CPU:    4.221
  ** Hessian has required structure
  Cycle:     25 Energy:     -3068.304597  Gnorm:      0.016660  CPU:    4.394
  ** Hessian has required structure
  Cycle:     26 Energy:     -3068.319055  Gnorm:      0.014210  CPU:    4.566
  ** Hessian has required structure
  Cycle:     27 Energy:     -3068.327946  Gnorm:      0.017815  CPU:    4.722
  ** Hessian has required structure
  Cycle:     28 Energy:     -3068.338855  Gnorm:      0.015581  CPU:    4.878
  ** Hessian has wrong structure
  ** Imaginary eigenvectors =   1
  Cycle:     29 Energy:     -3068.349249  Gnorm:      0.027013  CPU:    5.217
  ** Hessian has required structure
  Cycle:     30 Energy:     -3068.373691  Gnorm:      0.021575  CPU:    5.461
  ** Hessian has required structure
  Cycle:     31 Energy:     -3068.383741  Gnorm:      0.010175  CPU:    5.636
  ** Hessian has required structure
  Cycle:     32 Energy:     -3068.386750  Gnorm:      0.005899  CPU:    5.810
  ** Hessian has required structure
  Cycle:     33 Energy:     -3068.387874  Gnorm:      0.002399  CPU:    5.987
  ** Hessian has required structure
  Cycle:     34 Energy:     -3068.388188  Gnorm:      0.002247  CPU:    6.142
  ** Hessian has required structure
  Cycle:     35 Energy:     -3068.388318  Gnorm:      0.000731  CPU:    6.298
  ** Hessian has required structure
  Cycle:     36 Energy:     -3068.388338  Gnorm:      0.000452  CPU:    6.462
  ** Hessian has required structure
  Cycle:     37 Energy:     -3068.388346  Gnorm:      0.000244  CPU:    6.641
  ** Hessian has required structure
  Cycle:     38 Energy:     -3068.388348  Gnorm:      0.000159  CPU:    6.800
  ** Hessian has required structure
  Cycle:     39 Energy:     -3068.388349  Gnorm:      0.000107  CPU:    6.956
  ** Hessian has required structure


  **** Optimisation achieved ****


  Final energy =   -3068.38834976 eV      
  Final Gnorm  =       0.00007526

  Components of energy : 

--------------------------------------------------------------------------------
  Interatomic potentials     =         815.59933347 eV    
  Three-body potentials      =           0.20246461 eV    
  Monopole - monopole (real) =       -2208.51192196 eV    
  Monopole - monopole (recip)=       -1675.67822588 eV    
  Monopole - monopole (total)=       -3884.19014784 eV    
--------------------------------------------------------------------------------
  Total lattice energy       =       -3068.38834976 eV    
--------------------------------------------------------------------------------
  Total lattice energy       =         -296052.5711 kJ/(mole unit cells)
--------------------------------------------------------------------------------

  Final fractional coordinates of atoms :

--------------------------------------------------------------------------------
   No.  Atomic        x           y          z          Radius
        Label       (Frac)      (Frac)     (Frac)       (Angs) 
--------------------------------------------------------------------------------
     1  Ge    c     0.052090    0.000000    0.372270    0.000000
     2  Ge    c     0.848207    0.320393    0.701752    0.000000
     3  Ge    c     0.649857    0.663969    0.020721    0.000000
     4  Si    c     0.454510    0.999437    0.354087    0.000000
     5  Si    c     0.952722    0.013094    0.634384    0.000000
     6  Si    c     0.549172    0.998388    0.618212    0.000000
     7  Si    c     0.556265    0.980037    0.105274    0.000000
     8  Si    c     0.941900    0.996862    0.124198    0.000000
     9  Si    c     0.442721    0.999651    0.865805    0.000000
    10  Si    c     0.055703    0.999860    0.889416    0.000000
    11  Si    c     0.160404    0.307381    0.276292    0.000000
    12  Si    c     0.350264    0.692477    0.264205    0.000000
    13  Si    c     0.652649    0.693345    0.712641    0.000000
    14  Si    c     0.831458    0.729726    0.716596    0.000000
    15  Si    c     0.666290    0.288194    0.700879    0.000000
    16  Si    c     0.171396    0.715173    0.270009    0.000000
    17  Si    c     0.339758    0.287203    0.269201    0.000000
    18  Si    c     0.669699    0.262442    0.005768    0.000000
    19  Si    c     0.831800    0.704619    0.021653    0.000000
    20  Si    c     0.335343    0.287366    0.966394    0.000000
    21  Si    c     0.166475    0.710420    0.968646    0.000000
    22  Si    c     0.346064    0.687030    0.961439    0.000000
    23  Si    c     0.155411    0.308802    0.975284    0.000000
    24  Si    c     0.848854    0.307132    0.010241    0.000000
    25  O3    c     0.101515    0.198658    0.364547    0.000000
    26  O2    c     0.410187    0.812149    0.343834    0.000000
    27  O3    c     0.915907    0.204939    0.614733    0.000000
    28  O2    c     0.594686    0.814454    0.628266    0.000000
    29  O2    c     0.878549    0.880505    0.639487    0.000000
    30  O2    c     0.610008    0.160583    0.620307    0.000000
    31  O3    c     0.119943    0.836574    0.356952    0.000000
    32  O2    c     0.391987    0.156276    0.354712    0.000000
    33  O3    c     0.013014    0.970066    0.524192    0.000000
    34  O2    c     0.503367    0.003093    0.484368    0.000000
    35  O3    c     0.974385    0.987957    0.268266    0.000000
    36  O2    c     0.514006    0.031056    0.236675    0.000000
    37  O2    c     0.997559    0.993826    0.770683    0.000000
    38  O2    c     0.485977    0.019094    0.730498    0.000000
    39  O2    c     0.633510    0.100242    0.086566    0.000000
    40  O2    c     0.879064    0.841032    0.108665    0.000000
    41  O2    c     0.378760    0.152424    0.874647    0.000000
    42  O2    c     0.118349    0.843478    0.877775    0.000000
    43  O2    c     0.400899    0.808781    0.871943    0.000000
    44  O2    c     0.099224    0.189101    0.888367    0.000000
    45  O3    c     0.583728    0.779993    0.110433    0.000000
    46  O2    c     0.903219    0.187193    0.101263    0.000000
    47  O2    c     0.501848    0.023887    0.983326    0.000000
    48  O2    c     0.011637    0.967475    0.024335    0.000000
    49  O2    c     0.146777    0.513387    0.296817    0.000000
    50  O2    c     0.366390    0.487727    0.295400    0.000000
    51  O3    c     0.867004    0.542262    0.684168    0.000000
    52  O2    c     0.635135    0.487829    0.686850    0.000000
    53  O2    c     0.249878    0.260173    0.309373    0.000000
    54  O2    c     0.262544    0.740785    0.303580    0.000000
    55  O3    c     0.753959    0.278774    0.650628    0.000000
    56  O2    c     0.741530    0.736311    0.671301    0.000000
    57  O2    c     0.142798    0.257625    0.126396    0.000000
    58  O2    c     0.362917    0.732668    0.111419    0.000000
    59  O3    c     0.860984    0.256374    0.862072    0.000000
    60  O3    c     0.639388    0.736077    0.862095    0.000000
    61  O2    c     0.833542    0.764338    0.870836    0.000000
    62  O2    c     0.666038    0.227846    0.851707    0.000000
    63  O2    c     0.157792    0.764752    0.118584    0.000000
    64  O2    c     0.350020    0.241567    0.117685    0.000000
    65  O3    c     0.627068    0.443388    0.036140    0.000000
    66  O2    c     0.870751    0.511505    0.034063    0.000000
    67  O2    c     0.366429    0.484413    0.934780    0.000000
    68  O2    c     0.134518    0.512344    0.948504    0.000000
    69  O2    c     0.759113    0.278157    0.049673    0.000000
    70  O3    c     0.744219    0.698002    0.071554    0.000000
    71  O2    c     0.244040    0.273840    0.935179    0.000000
    72  O2    c     0.256388    0.723027    0.927059    0.000000
    73  O3    s     0.103705    0.193998    0.355881    0.000000
    74  O2    s     0.408231    0.818817    0.336008    0.000000
    75  O3    s     0.914021    0.195740    0.623541    0.000000
    76  O2    s     0.596106    0.821089    0.636379    0.000000
    77  O2    s     0.881081    0.877610    0.647525    0.000000
    78  O2    s     0.609706    0.157172    0.629017    0.000000
    79  O3    s     0.119882    0.836997    0.348690    0.000000
    80  O2    s     0.392848    0.154062    0.345048    0.000000
    81  O3    s     0.009814    0.977296    0.523116    0.000000
    82  O2    s     0.502923    0.002085    0.484583    0.000000
    83  O3    s     0.977608    0.989948    0.261895    0.000000
    84  O2    s     0.512181    0.021637    0.234690    0.000000
    85  O2    s     0.999581    0.996661    0.769950    0.000000
    86  O2    s     0.488027    0.014461    0.733812    0.000000
    87  O2    s     0.629380    0.105450    0.079493    0.000000
    88  O2    s     0.880594    0.842692    0.100510    0.000000
    89  O2    s     0.380763    0.151148    0.884128    0.000000
    90  O2    s     0.117069    0.845250    0.889066    0.000000
    91  O2    s     0.399245    0.815486    0.881302    0.000000
    92  O2    s     0.100836    0.182379    0.898103    0.000000
    93  O3    s     0.586344    0.790461    0.102674    0.000000
    94  O2    s     0.901382    0.180076    0.093664    0.000000
    95  O2    s     0.501173    0.016245    0.983509    0.000000
    96  O2    s     0.008840    0.974309    0.020406    0.000000
    97  O2    s     0.150956    0.512512    0.291655    0.000000
    98  O2    s     0.361797    0.488392    0.289241    0.000000
    99  O3    s     0.861899    0.542928    0.688826    0.000000
   100  O2    s     0.640273    0.488745    0.691063    0.000000
   101  O2    s     0.250082    0.268042    0.301600    0.000000
   102  O2    s     0.262325    0.732860    0.295787    0.000000
   103  O3    s     0.752725    0.283015    0.659683    0.000000
   104  O2    s     0.741695    0.731050    0.680428    0.000000
   105  O2    s     0.145914    0.267977    0.125863    0.000000
   106  O2    s     0.359813    0.723672    0.111669    0.000000
   107  O3    s     0.858742    0.266565    0.864191    0.000000
   108  O3    s     0.641552    0.725994    0.859890    0.000000
   109  O2    s     0.833122    0.754343    0.870563    0.000000
   110  O2    s     0.666460    0.237873    0.852090    0.000000
   111  O2    s     0.160142    0.753868    0.118508    0.000000
   112  O2    s     0.347359    0.251236    0.117582    0.000000
   113  O3    s     0.633088    0.443326    0.031942    0.000000
   114  O2    s     0.864471    0.510023    0.030273    0.000000
   115  O2    s     0.360952    0.485362    0.941015    0.000000
   116  O2    s     0.140156    0.511552    0.953524    0.000000
   117  O2    s     0.759038    0.279686    0.040606    0.000000
   118  O3    s     0.745375    0.695873    0.062322    0.000000
   119  O2    s     0.244365    0.279248    0.943058    0.000000
   120  O2    s     0.256387    0.717627    0.935390    0.000000
--------------------------------------------------------------------------------

  Final Cartesian lattice vectors (Angstroms) :

       17.190416   -0.075187   -0.018314
       -0.033008    7.602977    0.051249
       -0.014794    0.075385   10.294755


  Final cell parameters and derivatives :

--------------------------------------------------------------------------------
       a           17.190590 Angstrom     dE/de1(xx)     0.008020 eV/strain
       b            7.603222 Angstrom     dE/de2(yy)     0.007821 eV/strain
       c           10.295042 Angstrom     dE/de3(zz)     0.008828 eV/strain
       alpha       89.193894 Degrees      dE/de4(yz)     0.000285 eV/strain
       beta        90.145208 Degrees      dE/de5(xz)    -0.000548 eV/strain
       gamma       90.499741 Degrees      dE/de6(xy)    -0.000413 eV/strain
--------------------------------------------------------------------------------

  Primitive cell volume =          1345.413512 Angs**3

  Density of cell =      1.944819 g/cm**3

  Non-primitive cell volume =          1345.413512 Angs**3


  Final internal derivatives :

--------------------------------------------------------------------------------
   No.  Atomic          a             b             c           Radius
        Label          (eV)          (eV)          (eV)        (eV/Angs)
--------------------------------------------------------------------------------
      1 Ge    c       0.000000      0.000000      0.000000      0.000000
      2 Ge    c       0.003631     -0.001357     -0.000155      0.000000
      3 Ge    c      -0.000265      0.000843      0.000737      0.000000
      4 Si    c      -0.000526      0.000006      0.000416      0.000000
      5 Si    c      -0.000684     -0.000048      0.000011      0.000000
      6 Si    c       0.000362     -0.000183      0.000733      0.000000
      7 Si    c       0.001053     -0.000017     -0.000465      0.000000
      8 Si    c      -0.000602     -0.000005     -0.000137      0.000000
      9 Si    c       0.000412     -0.000044     -0.000327      0.000000
     10 Si    c      -0.000472      0.000105      0.000023      0.000000
     11 Si    c      -0.000087     -0.000055     -0.000005      0.000000
     12 Si    c       0.000140      0.000050      0.000024      0.000000
     13 Si    c      -0.001678      0.001230     -0.000845      0.000000
     14 Si    c       0.001685      0.001670      0.000369      0.000000
     15 Si    c      -0.004151     -0.000753     -0.002178      0.000000
     16 Si    c      -0.000056      0.000043     -0.000012      0.000000
     17 Si    c       0.000166     -0.000011      0.000054      0.000000
     18 Si    c      -0.000235     -0.001650      0.001246      0.000000
     19 Si    c       0.001684      0.000178      0.000576      0.000000
     20 Si    c      -0.000210     -0.000069      0.000113      0.000000
     21 Si    c       0.000253      0.000027      0.000093      0.000000
     22 Si    c      -0.000259     -0.000017      0.000156      0.000000
     23 Si    c       0.000118     -0.000106      0.000108      0.000000
     24 Si    c      -0.000027     -0.000368      0.002029      0.000000
     25 O3    c      -0.000060      0.000002      0.000036      0.000000
     26 O2    c      -0.000002     -0.000113     -0.000036      0.000000
     27 O3    c      -0.000623      0.000184      0.000259      0.000000
     28 O2    c       0.000252     -0.000045      0.000244      0.000000
     29 O2    c      -0.000211     -0.000198      0.000048      0.000000
     30 O2    c       0.001036      0.000412      0.000217      0.000000
     31 O3    c       0.000077     -0.000065      0.000040      0.000000
     32 O2    c       0.000073     -0.000029      0.000026      0.000000
     33 O3    c      -0.000284      0.000008      0.000148      0.000000
     34 O2    c      -0.001303      0.000022     -0.000339      0.000000
     35 O3    c      -0.000083      0.000013     -0.000113      0.000000
     36 O2    c       0.001420      0.000059     -0.000454      0.000000
     37 O2    c      -0.000068      0.000024      0.000016      0.000000
     38 O2    c       0.002536     -0.000285     -0.000351      0.000000
     39 O2    c       0.000211      0.000304     -0.000256      0.000000
     40 O2    c      -0.000249     -0.000142     -0.000233      0.000000
     41 O2    c      -0.000008     -0.000048     -0.000031      0.000000
     42 O2    c       0.000097     -0.000015     -0.000014      0.000000
     43 O2    c      -0.000199     -0.000199     -0.000119      0.000000
     44 O2    c       0.000017      0.000002     -0.000008      0.000000
     45 O3    c       0.000556     -0.000164     -0.000320      0.000000
     46 O2    c      -0.000358      0.000202     -0.000318      0.000000
     47 O2    c      -0.000557      0.000079      0.000200      0.000000
     48 O2    c      -0.000035      0.000019     -0.000052      0.000000
     49 O2    c      -0.000014      0.000000      0.000026      0.000000
     50 O2    c       0.000005     -0.000015      0.000008      0.000000
     51 O3    c       0.005321     -0.000885     -0.003585      0.000000
     52 O2    c      -0.003221     -0.000456     -0.001934      0.000000
     53 O2    c      -0.000040     -0.000007      0.000006      0.000000
     54 O2    c       0.000093      0.000001     -0.000019      0.000000
     55 O3    c       0.005073     -0.002021     -0.003071      0.000000
     56 O2    c      -0.001715      0.000607     -0.002007      0.000000
     57 O2    c      -0.000014      0.000017      0.000064      0.000000
     58 O2    c      -0.000027     -0.000065     -0.000008      0.000000
     59 O3    c       0.004242     -0.000954     -0.002728      0.000000
     60 O3    c      -0.002601      0.001315      0.001955      0.000000
     61 O2    c      -0.000377      0.000697      0.000392      0.000000
     62 O2    c      -0.002985     -0.001154      0.001797      0.000000
     63 O2    c      -0.000019     -0.000033      0.000003      0.000000
     64 O2    c       0.000021      0.000033      0.000007      0.000000
     65 O3    c      -0.006099      0.001979      0.002837      0.000000
     66 O2    c       0.002806      0.000400      0.000552      0.000000
     67 O2    c      -0.000296      0.000000      0.000043      0.000000
     68 O2    c       0.000163      0.000097      0.000020      0.000000
     69 O2    c       0.002729      0.000104      0.001485      0.000000
     70 O3    c      -0.003211      0.000150      0.002031      0.000000
     71 O2    c       0.000299     -0.000021      0.000060      0.000000
     72 O2    c      -0.000146      0.000012      0.000106      0.000000
     73 O3    s       0.000150      0.000039     -0.000049      0.000000
     74 O2    s      -0.000497     -0.000067      0.000025      0.000000
     75 O3    s       0.001362     -0.000455     -0.000499      0.000000
     76 O2    s      -0.001854      0.000895     -0.000987      0.000000
     77 O2    s       0.001440      0.001131     -0.000427      0.000000
     78 O2    s      -0.002891     -0.000927     -0.001287      0.000000
     79 O3    s       0.000062     -0.000002     -0.000037      0.000000
     80 O2    s      -0.000246      0.000082     -0.000198      0.000000
     81 O3    s       0.000318      0.000006     -0.000075      0.000000
     82 O2    s       0.000140     -0.000068      0.000438      0.000000
     83 O3    s       0.000164     -0.000014      0.000118      0.000000
     84 O2    s      -0.000249      0.000101      0.000366      0.000000
     85 O2    s       0.000485     -0.000076      0.000052      0.000000
     86 O2    s      -0.000411      0.000491      0.000616      0.000000
     87 O2    s      -0.000809     -0.001173      0.001084      0.000000
     88 O2    s       0.000999      0.000588      0.000684      0.000000
     89 O2    s       0.000123      0.000209     -0.000221      0.000000
     90 O2    s      -0.000037     -0.000106      0.000009      0.000000
     91 O2    s      -0.000232     -0.000070     -0.000001      0.000000
     92 O2    s      -0.000021      0.000084     -0.000036      0.000000
     93 O3    s      -0.001013      0.000295      0.000618      0.000000
     94 O2    s       0.001080     -0.000545      0.001035      0.000000
     95 O2    s      -0.000944     -0.000080     -0.000128      0.000000
     96 O2    s       0.000453     -0.000113     -0.000058      0.000000
     97 O2    s       0.000174     -0.000009     -0.000084      0.000000
     98 O2    s      -0.000238      0.000013     -0.000086      0.000000
     99 O3    s       0.003102     -0.000241     -0.001538      0.000000
    100 O2    s      -0.004724      0.000420     -0.003720      0.000000
    101 O2    s      -0.000034      0.000052     -0.000101      0.000000
    102 O2    s      -0.000038     -0.000051     -0.000097      0.000000
    103 O3    s       0.001552     -0.001335     -0.002440      0.000000
    104 O2    s       0.000139      0.002525     -0.002978      0.000000
    105 O2    s       0.000141      0.000059     -0.000064      0.000000
    106 O2    s      -0.000049     -0.000039     -0.000133      0.000000
    107 O3    s       0.001037     -0.001581      0.000503      0.000000
    108 O3    s      -0.002434      0.001578      0.000933      0.000000
    109 O2    s       0.003554      0.002533      0.000957      0.000000
    110 O2    s      -0.004533     -0.002422     -0.000411      0.000000
    111 O2    s       0.000113     -0.000096     -0.000146      0.000000
    112 O2    s      -0.000109      0.000100     -0.000085      0.000000
    113 O3    s      -0.003229     -0.000077      0.002014      0.000000
    114 O2    s       0.004342      0.000024      0.002239      0.000000
    115 O2    s       0.000177     -0.000030     -0.000048      0.000000
    116 O2    s      -0.000124      0.000033     -0.000035      0.000000
    117 O2    s       0.000923     -0.002022      0.002626      0.000000
    118 O3    s       0.000425      0.000994      0.002312      0.000000
    119 O2    s       0.000035      0.000062      0.000047      0.000000
    120 O2    s       0.000002     -0.000033      0.000120      0.000000
--------------------------------------------------------------------------------
  Maximum abs         0.006099      0.002533      0.003720      0.000000
--------------------------------------------------------------------------------


  Born effective charge tensors : 

-------------------------------------------------------------------------------
  Atom             x           y             z
-------------------------------------------------------------------------------
    1 Ge    x       4.2904      0.1416     -0.3596
            y      -0.1033      3.8908      0.0356
            z      -0.3838     -0.1191      4.6012
-------------------------------------------------------------------------------
    2 Ge    x       3.9723     -0.3130     -0.0375
            y      -0.3689      4.1963      0.2494
            z      -0.1316      0.0374      3.4042
-------------------------------------------------------------------------------
    3 Ge    x       4.0366     -0.3389     -0.1221
            y      -0.3354      4.2018      0.2688
            z      -0.2198      0.0266      3.3008
-------------------------------------------------------------------------------
    4 Si    x       3.4089      0.0945      0.2112
            y      -0.1143      3.2463      0.0595
            z       0.5006     -0.0046      3.7902
-------------------------------------------------------------------------------
    5 Si    x       3.8280     -0.4186     -0.1741
            y      -0.0305      3.4891     -0.0200
            z      -0.8642      0.2496      4.0869
-------------------------------------------------------------------------------
    6 Si    x       3.4546     -0.0874      0.2112
            y       0.0865      3.2147     -0.0135
            z       0.4075      0.0282      3.8332
-------------------------------------------------------------------------------
    7 Si    x       3.5531     -0.4065     -0.2065
            y       0.0976      3.5044     -0.0613
            z      -0.4930      0.1590      3.1465
-------------------------------------------------------------------------------
    8 Si    x       3.6207     -0.1097      0.4459
            y       0.1320      3.2749     -0.0142
            z       0.4965     -0.0242      3.5355
-------------------------------------------------------------------------------
    9 Si    x       3.4635      0.1175     -0.2411
            y      -0.1266      3.2591      0.0191
            z      -0.5041     -0.0422      3.1314
-------------------------------------------------------------------------------
   10 Si    x       3.5156      0.0972      0.0736
            y      -0.1065      3.2646      0.0363
            z       0.5942      0.0116      2.9657
-------------------------------------------------------------------------------
   11 Si    x       3.4277      0.3369     -0.2599
            y       0.4280      3.5250     -0.3255
            z      -0.2681     -0.1653      2.9951
-------------------------------------------------------------------------------
   12 Si    x       3.1626      0.2174      0.0751
            y       0.2988      3.4380      0.1541
            z       0.1174      0.0855      2.8160
-------------------------------------------------------------------------------
   13 Si    x       3.2831     -0.2757      0.0166
            y      -0.2868      3.5182     -0.1095
            z       0.0966      0.0057      3.1228
-------------------------------------------------------------------------------
   14 Si    x       3.2977      0.2568     -0.0922
            y      -0.0180      3.7304     -0.0530
            z      -0.1401      0.0116      2.8434
-------------------------------------------------------------------------------
   15 Si    x       3.5651      0.2959     -0.0063
            y       0.1650      3.5146      0.1959
            z       0.0815      0.0632      2.8741
-------------------------------------------------------------------------------
   16 Si    x       3.3816     -0.4109     -0.2668
            y      -0.3465      3.6058      0.3388
            z      -0.2555      0.2141      3.0016
-------------------------------------------------------------------------------
   17 Si    x       3.1625     -0.2722      0.1265
            y      -0.2108      3.4667     -0.1574
            z       0.1133     -0.0684      2.8067
-------------------------------------------------------------------------------
   18 Si    x       3.3152      0.3124     -0.1384
            y      -0.1020      3.7080     -0.0779
            z      -0.1687     -0.0246      2.7934
-------------------------------------------------------------------------------
   19 Si    x       3.5950      0.3540      0.0202
            y       0.0979      3.4872      0.2171
            z       0.0785      0.0664      2.7955
-------------------------------------------------------------------------------
   20 Si    x       3.2100     -0.3153     -0.1899
            y      -0.1296      3.4437      0.1877
            z      -0.1218      0.0902      2.7460
-------------------------------------------------------------------------------
   21 Si    x       3.2584     -0.3292      0.1699
            y      -0.1491      3.4325     -0.1873
            z       0.1233     -0.0331      2.6656
-------------------------------------------------------------------------------
   22 Si    x       3.2378      0.2525     -0.1383
            y       0.2409      3.4020     -0.1758
            z      -0.1362     -0.0600      2.7173
-------------------------------------------------------------------------------
   23 Si    x       3.2619      0.2593      0.1511
            y       0.2339      3.4077      0.1955
            z       0.1405      0.0518      2.6729
-------------------------------------------------------------------------------
   24 Si    x       3.3355     -0.3079      0.0911
            y      -0.2373      3.4691     -0.1123
            z       0.1372      0.0391      3.0083
-------------------------------------------------------------------------------
   25 O3    x      -2.0498     -0.9315      0.5426
            y      -0.9308     -2.3302      0.5105
            z       0.5718      0.5059     -1.6396
-------------------------------------------------------------------------------
   26 O2    x      -1.6535     -0.7050     -0.3225
            y      -0.6852     -2.0123     -0.3554
            z      -0.3733     -0.3522     -1.3530
-------------------------------------------------------------------------------
   27 O3    x      -1.9425      0.8909      0.2688
            y       0.8515     -2.5169     -0.2336
            z       0.3976     -0.2528     -1.5182
-------------------------------------------------------------------------------
   28 O2    x      -1.6795      0.7240     -0.3104
            y       0.6798     -2.0055      0.3238
            z      -0.3625      0.3306     -1.3488
-------------------------------------------------------------------------------
   29 O2    x      -1.8479     -0.6605      0.2497
            y      -0.7143     -1.8555      0.2905
            z       0.3300      0.2411     -1.3225
-------------------------------------------------------------------------------
   30 O2    x      -1.7452     -0.7220     -0.3147
            y      -0.7365     -1.9433     -0.3206
            z      -0.3525     -0.3158     -1.3537
-------------------------------------------------------------------------------
   31 O3    x      -2.1310      0.9556      0.5669
            y       1.0258     -2.3138     -0.5836
            z       0.6019     -0.5529     -1.6474
-------------------------------------------------------------------------------
   32 O2    x      -1.7371      0.7172     -0.3132
            y       0.7596     -1.9415      0.3131
            z      -0.3593      0.3142     -1.3456
-------------------------------------------------------------------------------
   33 O3    x      -2.0092      0.0981      1.0851
            y       0.0733     -1.2221     -0.0872
            z       1.3881     -0.1206     -3.3542
-------------------------------------------------------------------------------
   34 O2    x      -1.6124     -0.0025     -0.8425
            y       0.0005     -1.0822     -0.0107
            z      -1.0451     -0.0071     -2.8064
-------------------------------------------------------------------------------
   35 O3    x      -2.0453     -0.0023     -0.9403
            y      -0.0292     -1.2153     -0.0087
            z      -0.9611      0.0103     -2.8391
-------------------------------------------------------------------------------
   36 O2    x      -1.6640      0.0492      0.6841
            y       0.0077     -1.1366     -0.0473
            z       0.6656     -0.0768     -2.1915
-------------------------------------------------------------------------------
   37 O2    x      -1.7528      0.0125     -0.7370
            y      -0.0079     -1.1342     -0.0068
            z      -0.7178     -0.0047     -2.1940
-------------------------------------------------------------------------------
   38 O2    x      -1.7327      0.0025      0.7361
            y       0.0135     -1.1105     -0.0022
            z       0.7540     -0.0001     -2.2378
-------------------------------------------------------------------------------
   39 O2    x      -1.8324     -0.6285      0.3410
            y      -0.6296     -1.8335      0.3625
            z       0.3511      0.3012     -1.2469
-------------------------------------------------------------------------------
   40 O2    x      -1.7276     -0.7081     -0.3551
            y      -0.6538     -1.9445     -0.3786
            z      -0.3336     -0.3457     -1.2752
-------------------------------------------------------------------------------
   41 O2    x      -1.7284      0.7107      0.3669
            y       0.6880     -1.9401     -0.3971
            z       0.3584     -0.3528     -1.2756
-------------------------------------------------------------------------------
   42 O2    x      -1.7756      0.7326     -0.2685
            y       0.7012     -1.9224      0.2914
            z      -0.3225      0.2734     -1.2172
-------------------------------------------------------------------------------
   43 O2    x      -1.6430     -0.6896      0.3392
            y      -0.6123     -2.0062      0.3498
            z       0.3571      0.3361     -1.2552
-------------------------------------------------------------------------------
   44 O2    x      -1.6909     -0.7156     -0.3150
            y      -0.6314     -2.0019     -0.3367
            z      -0.3585     -0.3119     -1.2139
-------------------------------------------------------------------------------
   45 O3    x      -1.9153      0.8743      0.3745
            y       0.7417     -2.5829     -0.3446
            z       0.4272     -0.3526     -1.3818
-------------------------------------------------------------------------------
   46 O2    x      -1.6622      0.6857     -0.3538
            y       0.5763     -2.0130      0.3714
            z      -0.3438      0.3482     -1.2590
-------------------------------------------------------------------------------
   47 O2    x      -1.7937      0.0194     -0.6048
            y      -0.0070     -1.1730      0.0268
            z      -0.3493      0.0151     -1.7318
-------------------------------------------------------------------------------
   48 O2    x      -1.8808      0.0218      0.6013
            y       0.0205     -1.1779      0.0029
            z       0.3229      0.0105     -1.6592
-------------------------------------------------------------------------------
   49 O2    x      -1.1780     -0.0380      0.0660
            y      -0.0798     -2.4902      0.0194
            z       0.0796      0.0022     -1.0866
-------------------------------------------------------------------------------
   50 O2    x      -1.1469     -0.0429     -0.0599
            y      -0.0853     -2.5677      0.0150
            z      -0.0738      0.0093     -1.0664
-------------------------------------------------------------------------------
   51 O3    x      -1.3740      0.1724      0.0859
            y       0.2562     -3.1459     -0.1520
            z       0.1198     -0.1222     -1.1982
-------------------------------------------------------------------------------
   52 O2    x      -1.1821      0.0354     -0.0430
            y       0.0879     -2.5848     -0.0287
            z      -0.0698     -0.0317     -1.0679
-------------------------------------------------------------------------------
   53 O2    x      -2.3618      0.0814      0.0174
            y       0.0556     -1.2560      0.0730
            z       0.0229      0.0468     -1.0828
-------------------------------------------------------------------------------
   54 O2    x      -2.3486      0.0560      0.0086
            y       0.0204     -1.2562     -0.0738
            z       0.0118     -0.0559     -1.0798
-------------------------------------------------------------------------------
   55 O3    x      -3.0118     -0.0990      0.0871
            y      -0.0410     -1.3708     -0.0897
            z       0.1058     -0.0420     -1.2616
-------------------------------------------------------------------------------
   56 O2    x      -2.4098     -0.1410     -0.0550
            y      -0.0765     -1.2545      0.0532
            z      -0.0573      0.0243     -1.0911
-------------------------------------------------------------------------------
   57 O2    x      -1.2166     -0.1368     -0.0629
            y      -0.1311     -1.2957     -0.0190
            z      -0.0695     -0.0218     -2.0207
-------------------------------------------------------------------------------
   58 O2    x      -1.1970     -0.1271      0.0011
            y      -0.1285     -1.2730     -0.0137
            z       0.0028     -0.0163     -2.0655
-------------------------------------------------------------------------------
   59 O3    x      -1.3511      0.1638      0.0324
            y       0.1384     -1.4470     -0.0699
            z      -0.0038     -0.0381     -2.5885
-------------------------------------------------------------------------------
   60 O3    x      -1.3420      0.1565      0.0966
            y       0.1410     -1.4513     -0.0287
            z       0.0833      0.0193     -2.6193
-------------------------------------------------------------------------------
   61 O2    x      -1.1949     -0.1095     -0.0635
            y      -0.0470     -1.2908      0.0723
            z      -0.0491      0.0692     -2.0706
-------------------------------------------------------------------------------
   62 O2    x      -1.1934     -0.1163     -0.0319
            y      -0.0516     -1.2935      0.0547
            z      -0.0453      0.0795     -2.0838
-------------------------------------------------------------------------------
   63 O2    x      -1.1977      0.1363     -0.0727
            y       0.1010     -1.3066     -0.0078
            z      -0.0672      0.0016     -2.0155
-------------------------------------------------------------------------------
   64 O2    x      -1.1681      0.1264     -0.0115
            y       0.0962     -1.2871     -0.0062
            z      -0.0091     -0.0136     -2.0672
-------------------------------------------------------------------------------
   65 O3    x      -1.4745      0.2068      0.1174
            y       0.2879     -3.0656     -0.1405
            z       0.1591     -0.1219     -1.1463
-------------------------------------------------------------------------------
   66 O2    x      -1.2634      0.0510     -0.0628
            y       0.1092     -2.5119     -0.0295
            z      -0.0916     -0.0176     -1.0124
-------------------------------------------------------------------------------
   67 O2    x      -1.2121     -0.0385      0.0896
            y      -0.0836     -2.5061      0.0123
            z       0.0974      0.0040     -1.0251
-------------------------------------------------------------------------------
   68 O2    x      -1.2293     -0.0411     -0.0826
            y      -0.0858     -2.5173      0.0208
            z      -0.0918      0.0059     -0.9969
-------------------------------------------------------------------------------
   69 O2    x      -2.4251     -0.1749     -0.0590
            y      -0.0949     -1.2583      0.0422
            z      -0.0402      0.0132     -1.0559
-------------------------------------------------------------------------------
   70 O3    x      -3.0600     -0.1513      0.0925
            y      -0.0840     -1.3714     -0.0780
            z       0.0932     -0.0242     -1.2207
-------------------------------------------------------------------------------
   71 O2    x      -2.4267      0.0724      0.0406
            y       0.0392     -1.2407     -0.0690
            z       0.0176     -0.0378     -1.0296
-------------------------------------------------------------------------------
   72 O2    x      -2.4198      0.0785      0.0316
            y       0.0401     -1.2333      0.0640
            z       0.0283      0.0290     -1.0346
-------------------------------------------------------------------------------




  Elastic Constant Matrix: (Units=GPa)

-------------------------------------------------------------------------------
  Indices      1         2         3         4         5         6    
-------------------------------------------------------------------------------
       1     53.5151   25.2867   27.3062    0.6045    5.9909    1.4433
       2     25.2867   66.1545   22.0987    0.3723    8.0480   -0.0746
       3     27.3062   22.0987   44.2486   -0.1925    1.8194    0.9023
       4      0.6045    0.3723   -0.1925   11.2714   -0.6389    0.4667
       5      5.9909    8.0480    1.8194   -0.6389   22.2705    1.7329
       6      1.4433   -0.0746    0.9023    0.4667    1.7329   22.9035
-------------------------------------------------------------------------------


  Elastic Compliance Matrix: (Units=1/GPa)

-------------------------------------------------------------------------------
  Indices      1         2         3         4         5         6    
-------------------------------------------------------------------------------
       1    0.029759 -0.005675 -0.015328 -0.001899 -0.004687 -0.000897
       2   -0.005675  0.020047 -0.006317 -0.000812 -0.005310  0.001090
       3   -0.015328 -0.006317  0.035087  0.001868  0.003652 -0.000751
       4   -0.001899 -0.000812  0.001868  0.089156  0.003367 -0.002028
       5   -0.004687 -0.005310  0.003652  0.003367  0.048159 -0.003578
       6   -0.000897  0.001090 -0.000751 -0.002028 -0.003578  0.044063
-------------------------------------------------------------------------------

  Mechanical properties :

-------------------------------------------------------------------------------
  Convention :                    Reuss         Voigt         Hill
-------------------------------------------------------------------------------
  Bulk  Modulus (GPa)     =      33.05446      34.81128      33.93287
  Shear Modulus (GPa)     =      15.10593      17.23750      16.17171
-------------------------------------------------------------------------------
  Velocity S-wave (km/s)  =       2.78698       2.97713       2.88362
  Velocity P-wave (km/s)  =       5.22996       5.45135       5.34180
-------------------------------------------------------------------------------
  Compressibility (1/GPa) =    0.03025311
-------------------------------------------------------------------------------
  Stress axis :                     x             y             z
-------------------------------------------------------------------------------
  Youngs Moduli (GPa)     =      33.60312      49.88165      28.50077
-------------------------------------------------------------------------------
  Poissons Ratio (x)      =                     0.28308       0.43685
  Poissons Ratio (y)      =       0.19070                     0.18005
  Poissons Ratio (z)      =       0.51506       0.31512
-------------------------------------------------------------------------------


  Piezoelectric Strain Matrix: (Units=C/m**2)

-------------------------------------------------------------------------------
  Indices      1         2         3         4         5         6    
-------------------------------------------------------------------------------
       x    -0.07364  -0.04498   0.25778   0.08691  -0.10971  -0.18139
       y     0.15185  -0.33581   0.33643  -0.28289   0.03498   0.03728
       z    -0.48255  -0.53291  -0.17479  -0.16213  -0.18226   0.36330
-------------------------------------------------------------------------------


  Piezoelectric Stress Matrix: (Units=10**-11 C/N)

-------------------------------------------------------------------------------
  Indices      1         2         3         4         5         6    
-------------------------------------------------------------------------------
       x    -0.53756  -0.17980   1.03554   0.84048  -0.28165  -0.79531
       y     0.16079  -0.96347   1.11694  -2.45662   0.28989   0.13362
       z    -0.78205  -0.53452   0.33887  -1.47829  -0.61702   1.69723
-------------------------------------------------------------------------------


  Static dielectric constant tensor : 

-------------------------------------------------------------------------------
              x         y         z
-------------------------------------------------------------------------------
       x     3.97484  -0.07034  -0.18471
       y    -0.07034   4.10687   0.08993
       z    -0.18471   0.08993   3.42065
--------------------------------------------------------------------------------

  High frequency dielectric constant tensor : 

-------------------------------------------------------------------------------
              x         y         z
-------------------------------------------------------------------------------
       x     1.67545  -0.00064   0.00111
       y    -0.00064   1.68223   0.00185
       z     0.00111   0.00185   1.61459
-------------------------------------------------------------------------------

  Static refractive indices : 

-------------------------------------------------------------------------------
    1 =    1.83272      2 =    1.99252      3 =    2.04288
-------------------------------------------------------------------------------

  High frequency refractive indices : 

-------------------------------------------------------------------------------
    1 =    1.27064      2 =    1.29438      3 =    1.29705
-------------------------------------------------------------------------------


  Time to end of optimisation =       7.4014 seconds


  Peak dynamic memory used =       5.01 MB 


  Timing analysis for GULP :

--------------------------------------------------------------------------------
  Task / Subroutine                                          Time (Seconds)
--------------------------------------------------------------------------------
  Calculation of reciprocal space energy and derivatives          0.4877
  Calculation of real space energy and derivatives                4.8039
  Calculation of three-body energy and derivatives                0.4384
  Calculation and manipulation of Hessian matrix                  2.0680
  Calculation of matrix inversion                                 0.0279
--------------------------------------------------------------------------------
  Total CPU time                                                  7.4014
--------------------------------------------------------------------------------


  Dump file written as c00095.vasp.grs
  CIF file written as c00095.vasp.cif


  Job Finished at 11:43.13  7th October    2025                               

