********************************************************************************
*                       GENERAL UTILITY LATTICE PROGRAM                        *
*                                 Julian Gale                                  *
*                       Curtin Institute for Computation                       *
*                    School of Molecular and Life Sciences                     *
*                    Curtin University, Western Australia                      *
********************************************************************************
* Version = 6.1.2 * Last modified =   3rd November 2022                        *
********************************************************************************
*  optimise     - perform optimisation run                                     *
*  conp         - constant pressure calculation                                *
*  property     - calculate properties for final geometry                      *
********************************************************************************

  Job Started  at 11:45.55  7th October    2025                               

  Number of CPUs =     1


  Total number of configurations input =      1

********************************************************************************
*  Input for Configuration =   1 : c00112.vasp                                 *
********************************************************************************

  Formula = Ge3Si21O48                                                  

  Number of irreducible atoms/shells =     120


  Total number atoms/shells =     120

  Dimensionality = 3               :  Bulk   



  Cartesian lattice vectors (Angstroms) :

       17.182800    0.000000    0.000000
        0.000000    7.513760    0.000000
        0.000000    0.000000   10.447700

  Cell parameters (Angstroms/Degrees):

  a =      17.1828    alpha =  90.0000
  b =       7.5138    beta  =  90.0000
  c =      10.4477    gamma =  90.0000

  Initial cell volume =        1348.875752 Angs**3

  Temperature of configuration =   0.00     K 

  Pressure of configuration =         0.000 GPa 

  Fractional coordinates of asymmetric unit :

--------------------------------------------------------------------------------
   No.  Atomic       x           y          z         Charge      Occupancy
        Label      (Frac)      (Frac)     (Frac)        (e)         (Frac)  
--------------------------------------------------------------------------------
      1 Ge    c    0.052090    0.000000    0.372270     4.00000    1.000000    
      2 Ge    c    0.660660 *  0.294090 *  0.017440 *   4.00000    1.000000    
      3 Ge    c    0.839340 *  0.294090 *  0.017440 *   4.00000    1.000000    
      4 Si    c    0.447910 *  0.000000 *  0.372270 *   4.00000    1.000000    
      5 Si    c    0.947910 *  0.000000 *  0.627730 *   4.00000    1.000000    
      6 Si    c    0.552090 *  0.000000 *  0.627730 *   4.00000    1.000000    
      7 Si    c    0.556730 *  0.000000 *  0.122130 *   4.00000    1.000000    
      8 Si    c    0.943270 *  0.000000 *  0.122130 *   4.00000    1.000000    
      9 Si    c    0.443270 *  0.000000 *  0.877870 *   4.00000    1.000000    
     10 Si    c    0.056730 *  0.000000 *  0.877870 *   4.00000    1.000000    
     11 Si    c    0.160190 *  0.293910 *  0.273440 *   4.00000    1.000000    
     12 Si    c    0.339810 *  0.706090 *  0.273440 *   4.00000    1.000000    
     13 Si    c    0.839810 *  0.293910 *  0.726560 *   4.00000    1.000000    
     14 Si    c    0.660190 *  0.706090 *  0.726560 *   4.00000    1.000000    
     15 Si    c    0.839810 *  0.706090 *  0.726560 *   4.00000    1.000000    
     16 Si    c    0.660190 *  0.293910 *  0.726560 *   4.00000    1.000000    
     17 Si    c    0.160190 *  0.706090 *  0.273440 *   4.00000    1.000000    
     18 Si    c    0.339810 *  0.293910 *  0.273440 *   4.00000    1.000000    
     19 Si    c    0.839340 *  0.705910 *  0.017440 *   4.00000    1.000000    
     20 Si    c    0.339340 *  0.294090 *  0.982560 *   4.00000    1.000000    
     21 Si    c    0.160660 *  0.705910 *  0.982560 *   4.00000    1.000000    
     22 Si    c    0.339340 *  0.705910 *  0.982560 *   4.00000    1.000000    
     23 Si    c    0.160660 *  0.294090 *  0.982560 *   4.00000    1.000000    
     24 Si    c    0.660660 *  0.705910 *  0.017440 *   4.00000    1.000000    
     25 O3    c    0.106570 *  0.174340 *  0.366200 *   1.33043    1.000000    
     26 O2    c    0.393430 *  0.825660 *  0.366200 *   0.87073    1.000000    
     27 O2    c    0.893430 *  0.174340 *  0.633800 *   0.87073    1.000000    
     28 O2    c    0.606570 *  0.825660 *  0.633800 *   0.87073    1.000000    
     29 O2    c    0.893430 *  0.825660 *  0.633800 *   0.87073    1.000000    
     30 O2    c    0.606570 *  0.174340 *  0.633800 *   0.87073    1.000000    
     31 O3    c    0.106570 *  0.825660 *  0.366200 *   1.33043    1.000000    
     32 O2    c    0.393430 *  0.174340 *  0.366200 *   0.87073    1.000000    
     33 O3    c    0.000000 *  0.000000 *  0.500000 *   1.33043    1.000000    
     34 O2    c    0.500000 *  0.000000 *  0.500000 *   0.87073    1.000000    
     35 O3    c    0.994520 *  0.000000 *  0.250840 *   1.33043    1.000000    
     36 O2    c    0.505480 *  0.000000 *  0.250840 *   0.87073    1.000000    
     37 O2    c    0.005480 *  0.000000 *  0.749160 *   0.87073    1.000000    
     38 O2    c    0.494520 *  0.000000 *  0.749160 *   0.87073    1.000000    
     39 O3    c    0.610230 *  0.175520 *  0.115390 *   1.33043    1.000000    
     40 O2    c    0.889770 *  0.824480 *  0.115390 *   0.87073    1.000000    
     41 O2    c    0.389770 *  0.175520 *  0.884610 *   0.87073    1.000000    
     42 O2    c    0.110230 *  0.824480 *  0.884610 *   0.87073    1.000000    
     43 O2    c    0.389770 *  0.824480 *  0.884610 *   0.87073    1.000000    
     44 O2    c    0.110230 *  0.175520 *  0.884610 *   0.87073    1.000000    
     45 O2    c    0.610230 *  0.824480 *  0.115390 *   0.87073    1.000000    
     46 O3    c    0.889770 *  0.175520 *  0.115390 *   1.33043    1.000000    
     47 O2    c    0.500000 *  0.000000 *  0.000000 *   0.87073    1.000000    
     48 O2    c    0.000000 *  0.000000 *  0.000000 *   0.87073    1.000000    
     49 O2    c    0.151750 *  0.500000 *  0.313330 *   0.87073    1.000000    
     50 O2    c    0.348250 *  0.500000 *  0.313330 *   0.87073    1.000000    
     51 O2    c    0.848250 *  0.500000 *  0.686670 *   0.87073    1.000000    
     52 O2    c    0.651750 *  0.500000 *  0.686670 *   0.87073    1.000000    
     53 O2    c    0.250000 *  0.234950 *  0.285720 *   0.87073    1.000000    
     54 O2    c    0.250000 *  0.765050 *  0.285720 *   0.87073    1.000000    
     55 O2    c    0.750000 *  0.234950 *  0.714280 *   0.87073    1.000000    
     56 O2    c    0.750000 *  0.765050 *  0.714280 *   0.87073    1.000000    
     57 O2    c    0.131410 *  0.268650 *  0.127790 *   0.87073    1.000000    
     58 O2    c    0.368590 *  0.731350 *  0.127790 *   0.87073    1.000000    
     59 O3    c    0.868590 *  0.268650 *  0.872210 *   1.33043    1.000000    
     60 O2    c    0.631410 *  0.731350 *  0.872210 *   0.87073    1.000000    
     61 O2    c    0.868590 *  0.731350 *  0.872210 *   0.87073    1.000000    
     62 O3    c    0.631410 *  0.268650 *  0.872210 *   1.33043    1.000000    
     63 O2    c    0.131410 *  0.731350 *  0.127790 *   0.87073    1.000000    
     64 O2    c    0.368590 *  0.268650 *  0.127790 *   0.87073    1.000000    
     65 O3    c    0.653920 *  0.500000 *  0.058200 *   1.33043    1.000000    
     66 O3    c    0.846080 *  0.500000 *  0.058200 *   1.33043    1.000000    
     67 O2    c    0.346080 *  0.500000 *  0.941800 *   0.87073    1.000000    
     68 O2    c    0.153920 *  0.500000 *  0.941800 *   0.87073    1.000000    
     69 O1    c    0.750000 *  0.231060 *  0.027050 *   1.73396    1.000000    
     70 O2    c    0.750000 *  0.768940 *  0.027050 *   0.87073    1.000000    
     71 O2    c    0.250000 *  0.231060 *  0.972950 *   0.87073    1.000000    
     72 O2    c    0.250000 *  0.768940 *  0.972950 *   0.87073    1.000000    
     73 O3    s    0.106570 *  0.174340 *  0.366200 *  -3.33043    1.000000    
     74 O2    s    0.393430 *  0.825660 *  0.366200 *  -2.87073    1.000000    
     75 O2    s    0.893430 *  0.174340 *  0.633800 *  -2.87073    1.000000    
     76 O2    s    0.606570 *  0.825660 *  0.633800 *  -2.87073    1.000000    
     77 O2    s    0.893430 *  0.825660 *  0.633800 *  -2.87073    1.000000    
     78 O2    s    0.606570 *  0.174340 *  0.633800 *  -2.87073    1.000000    
     79 O3    s    0.106570 *  0.825660 *  0.366200 *  -3.33043    1.000000    
     80 O2    s    0.393430 *  0.174340 *  0.366200 *  -2.87073    1.000000    
     81 O3    s    0.000000 *  0.000000 *  0.500000 *  -3.33043    1.000000    
     82 O2    s    0.500000 *  0.000000 *  0.500000 *  -2.87073    1.000000    
     83 O3    s    0.994520 *  0.000000 *  0.250840 *  -3.33043    1.000000    
     84 O2    s    0.505480 *  0.000000 *  0.250840 *  -2.87073    1.000000    
     85 O2    s    0.005480 *  0.000000 *  0.749160 *  -2.87073    1.000000    
     86 O2    s    0.494520 *  0.000000 *  0.749160 *  -2.87073    1.000000    
     87 O3    s    0.610230 *  0.175520 *  0.115390 *  -3.33043    1.000000    
     88 O2    s    0.889770 *  0.824480 *  0.115390 *  -2.87073    1.000000    
     89 O2    s    0.389770 *  0.175520 *  0.884610 *  -2.87073    1.000000    
     90 O2    s    0.110230 *  0.824480 *  0.884610 *  -2.87073    1.000000    
     91 O2    s    0.389770 *  0.824480 *  0.884610 *  -2.87073    1.000000    
     92 O2    s    0.110230 *  0.175520 *  0.884610 *  -2.87073    1.000000    
     93 O2    s    0.610230 *  0.824480 *  0.115390 *  -2.87073    1.000000    
     94 O3    s    0.889770 *  0.175520 *  0.115390 *  -3.33043    1.000000    
     95 O2    s    0.500000 *  0.000000 *  0.000000 *  -2.87073    1.000000    
     96 O2    s    0.000000 *  0.000000 *  0.000000 *  -2.87073    1.000000    
     97 O2    s    0.151750 *  0.500000 *  0.313330 *  -2.87073    1.000000    
     98 O2    s    0.348250 *  0.500000 *  0.313330 *  -2.87073    1.000000    
     99 O2    s    0.848250 *  0.500000 *  0.686670 *  -2.87073    1.000000    
    100 O2    s    0.651750 *  0.500000 *  0.686670 *  -2.87073    1.000000    
    101 O2    s    0.250000 *  0.234950 *  0.285720 *  -2.87073    1.000000    
    102 O2    s    0.250000 *  0.765050 *  0.285720 *  -2.87073    1.000000    
    103 O2    s    0.750000 *  0.234950 *  0.714280 *  -2.87073    1.000000    
    104 O2    s    0.750000 *  0.765050 *  0.714280 *  -2.87073    1.000000    
    105 O2    s    0.131410 *  0.268650 *  0.127790 *  -2.87073    1.000000    
    106 O2    s    0.368590 *  0.731350 *  0.127790 *  -2.87073    1.000000    
    107 O3    s    0.868590 *  0.268650 *  0.872210 *  -3.33043    1.000000    
    108 O2    s    0.631410 *  0.731350 *  0.872210 *  -2.87073    1.000000    
    109 O2    s    0.868590 *  0.731350 *  0.872210 *  -2.87073    1.000000    
    110 O3    s    0.631410 *  0.268650 *  0.872210 *  -3.33043    1.000000    
    111 O2    s    0.131410 *  0.731350 *  0.127790 *  -2.87073    1.000000    
    112 O2    s    0.368590 *  0.268650 *  0.127790 *  -2.87073    1.000000    
    113 O3    s    0.653920 *  0.500000 *  0.058200 *  -3.33043    1.000000    
    114 O3    s    0.846080 *  0.500000 *  0.058200 *  -3.33043    1.000000    
    115 O2    s    0.346080 *  0.500000 *  0.941800 *  -2.87073    1.000000    
    116 O2    s    0.153920 *  0.500000 *  0.941800 *  -2.87073    1.000000    
    117 O1    s    0.750000 *  0.231060 *  0.027050 *  -3.73396    1.000000    
    118 O2    s    0.750000 *  0.768940 *  0.027050 *  -2.87073    1.000000    
    119 O2    s    0.250000 *  0.231060 *  0.972950 *  -2.87073    1.000000    
    120 O2    s    0.250000 *  0.768940 *  0.972950 *  -2.87073    1.000000    
--------------------------------------------------------------------------------



********************************************************************************
*  General input information                                                   *
********************************************************************************

  Species output for all configurations : 

--------------------------------------------------------------------------------
  Species    Type    Atomic    Atomic    Charge       Radii (Angs)     Library
                     Number     Mass       (e)     Cova   Ionic  VDW   Symbol
--------------------------------------------------------------------------------
    Ge       Core       32      72.61   4.000000   1.170  0.000  1.750 Ge       
    Si       Core       14      28.09   4.000000   1.200  0.000  2.100 Si       
    O1       Core        8      16.00   1.733957   0.730  0.000  1.360 O1       
    O2       Core        8      16.00   0.870733   0.730  0.000  1.360 O2       
    O3       Core        8      16.00   1.330431   0.730  0.000  1.360 O3       
    O1       Shell       8       0.00  -3.733957   0.730  0.000  0.000 O1       
    O2       Shell       8       0.00  -2.870733   0.730  0.000  0.000 O2       
    O3       Shell       8       0.00  -3.330431   0.730  0.000  0.000 O3       
--------------------------------------------------------------------------------


  Lattice summation method               =    Ewald          (3-D)
                                         =    Parry          (2-D)
                                         =    Saunders et al (1-D)
  Accuracy factor for lattice sums       =   12.000


  Analytic derivatives to be used

  Time limit = Infinity

  Maximum range for interatomic potentials =    100000.000000 Angstroms

  General interatomic potentials :

--------------------------------------------------------------------------------
Atom  Types   Potential      Parameter       Value         Units   Cutoffs(Ang)
  1     2                                                            Min /  Max 
--------------------------------------------------------------------------------
Si   c O1   s Buckingham    Buckingham A     1315.2478    eV        0.000 16.000
                            Buckingham rho  0.31775900    Ang       
                            Buckingham C     10.141118    eV*Ang^6  
--------------------------------------------------------------------------------
Si   c O2   s Buckingham    Buckingham A     1315.2478    eV        0.000 16.000
                            Buckingham rho  0.31775900    Ang       
                            Buckingham C     10.141118    eV*Ang^6  
--------------------------------------------------------------------------------
Si   c O3   s Buckingham    Buckingham A     1315.2478    eV        0.000 16.000
                            Buckingham rho  0.31775900    Ang       
                            Buckingham C     10.141118    eV*Ang^6  
--------------------------------------------------------------------------------
Ge   c O1   s Buckingham    Buckingham A     1497.3996    eV        0.000 16.000
                            Buckingham rho  0.32564600    Ang       
                            Buckingham C     16.808599    eV*Ang^6  
--------------------------------------------------------------------------------
Ge   c O2   s Buckingham    Buckingham A     1497.3996    eV        0.000 16.000
                            Buckingham rho  0.32564600    Ang       
                            Buckingham C     16.808599    eV*Ang^6  
--------------------------------------------------------------------------------
Ge   c O3   s Buckingham    Buckingham A     1497.3996    eV        0.000 16.000
                            Buckingham rho  0.32564600    Ang       
                            Buckingham C     16.808599    eV*Ang^6  
--------------------------------------------------------------------------------
O1   s O1   s Buckingham    Buckingham A     22764.000    eV        0.000 16.000
                            Buckingham rho  0.14900000    Ang       
                            Buckingham C     10.937044    eV*Ang^6  
--------------------------------------------------------------------------------
O1   s O2   s Buckingham    Buckingham A     22764.000    eV        0.000 16.000
                            Buckingham rho  0.14900000    Ang       
                            Buckingham C     10.937044    eV*Ang^6  
--------------------------------------------------------------------------------
O1   s O3   s Buckingham    Buckingham A     22764.000    eV        0.000 16.000
                            Buckingham rho  0.14900000    Ang       
                            Buckingham C     10.937044    eV*Ang^6  
--------------------------------------------------------------------------------
O2   s O2   s Buckingham    Buckingham A     22764.000    eV        0.000 16.000
                            Buckingham rho  0.14900000    Ang       
                            Buckingham C     10.937044    eV*Ang^6  
--------------------------------------------------------------------------------
O2   s O3   s Buckingham    Buckingham A     22764.000    eV        0.000 16.000
                            Buckingham rho  0.14900000    Ang       
                            Buckingham C     10.937044    eV*Ang^6  
--------------------------------------------------------------------------------
O3   s O3   s Buckingham    Buckingham A     22764.000    eV        0.000 16.000
                            Buckingham rho  0.14900000    Ang       
                            Buckingham C     10.937044    eV*Ang^6  
--------------------------------------------------------------------------------
O1   c O1   s Spring (c-s)  Spring k 2       180.31577    eV*Ang^-2 0.000  0.800
                            Spring k 4       0.0000000    eV*Ang^-4 
--------------------------------------------------------------------------------
O2   c O2   s Spring (c-s)  Spring k 2       75.969800    eV*Ang^-2 0.000  0.800
                            Spring k 4       0.0000000    eV*Ang^-4 
--------------------------------------------------------------------------------
O3   c O3   s Spring (c-s)  Spring k 2       128.14270    eV*Ang^-2 0.000  0.800
                            Spring k 4       0.0000000    eV*Ang^-4 
--------------------------------------------------------------------------------

  General Three-body potentials :

--------------------------------------------------------------------------------
  Atoms       Potential      Parameter       Value         Units   Cutoffs(Ang)
  1 / 2 / 3                                                          Min /  Max 
--------------------------------------------------------------------------------
Si    core    Harmonic      Three-body cnst  1.2614000    eV*rad^-2 0.000  1.900
O1    shel                  Three-body angl  109.47000    degrees   0.000  1.900
O1    shel                  Three-body k4    0.0000000    eV*rad^-4 0.000  3.500
                            Three-body k3    0.0000000    eV*rad^-3 
--------------------------------------------------------------------------------
Si    core    Harmonic      Three-body cnst  1.2614000    eV*rad^-2 0.000  1.900
O1    shel                  Three-body angl  109.47000    degrees   0.000  1.900
õ(1   shel                  Three-body k4    0.0000000    eV*rad^-4 0.000  3.500
                            Three-body k3    0.0000000    eV*rad^-3 
--------------------------------------------------------------------------------
Si    core    Harmonic      Three-body cnst  1.2614000    eV*rad^-2 0.000  1.900
õ(1   shel                  Three-body angl  109.47000    degrees   0.000  1.900
õ(1   shel                  Three-body k4    0.0000000    eV*rad^-4 0.000  3.500
                            Three-body k3    0.0000000    eV*rad^-3 
--------------------------------------------------------------------------------
Si    core    Harmonic      Three-body cnst  1.2614000    eV*rad^-2 0.000  1.900
O1    shel                  Three-body angl  109.47000    degrees   0.000  1.900
O2    shel                  Three-body k4    0.0000000    eV*rad^-4 0.000  3.500
                            Three-body k3    0.0000000    eV*rad^-3 
--------------------------------------------------------------------------------
Si    core    Harmonic      Three-body cnst  1.2614000    eV*rad^-2 0.000  1.900
O1    shel                  Three-body angl  109.47000    degrees   0.000  1.900
õ(2   shel                  Three-body k4    0.0000000    eV*rad^-4 0.000  3.500
                            Three-body k3    0.0000000    eV*rad^-3 
--------------------------------------------------------------------------------
Si    core    Harmonic      Three-body cnst  1.2614000    eV*rad^-2 0.000  1.900
O2    shel                  Three-body angl  109.47000    degrees   0.000  1.900
õ(1   shel                  Three-body k4    0.0000000    eV*rad^-4 0.000  3.500
                            Three-body k3    0.0000000    eV*rad^-3 
--------------------------------------------------------------------------------
Si    core    Harmonic      Three-body cnst  1.2614000    eV*rad^-2 0.000  1.900
õ(1   shel                  Three-body angl  109.47000    degrees   0.000  1.900
õ(2   shel                  Three-body k4    0.0000000    eV*rad^-4 0.000  3.500
                            Three-body k3    0.0000000    eV*rad^-3 
--------------------------------------------------------------------------------
Si    core    Harmonic      Three-body cnst  1.2614000    eV*rad^-2 0.000  1.900
O2    shel                  Three-body angl  109.47000    degrees   0.000  1.900
O2    shel                  Three-body k4    0.0000000    eV*rad^-4 0.000  3.500
                            Three-body k3    0.0000000    eV*rad^-3 
--------------------------------------------------------------------------------
Si    core    Harmonic      Three-body cnst  1.2614000    eV*rad^-2 0.000  1.900
O2    shel                  Three-body angl  109.47000    degrees   0.000  1.900
õ(2   shel                  Three-body k4    0.0000000    eV*rad^-4 0.000  3.500
                            Three-body k3    0.0000000    eV*rad^-3 
--------------------------------------------------------------------------------
Si    core    Harmonic      Three-body cnst  1.2614000    eV*rad^-2 0.000  1.900
õ(2   shel                  Three-body angl  109.47000    degrees   0.000  1.900
õ(2   shel                  Three-body k4    0.0000000    eV*rad^-4 0.000  3.500
                            Three-body k3    0.0000000    eV*rad^-3 
--------------------------------------------------------------------------------

********************************************************************************
*  Output for configuration   1 : c00112.vasp                                  *
********************************************************************************


  Components of energy : 

--------------------------------------------------------------------------------
  Interatomic potentials     =         760.33531477 eV    
  Three-body potentials      =           0.01425062 eV    
  Monopole - monopole (real) =       -2676.00317478 eV    
  Monopole - monopole (recip)=       -1115.35404472 eV    
  Monopole - monopole (total)=       -3791.35721950 eV    
--------------------------------------------------------------------------------
  Total lattice energy       =       -3031.00765411 eV    
--------------------------------------------------------------------------------
  Total lattice energy       =         -292445.9054 kJ/(mole unit cells)
--------------------------------------------------------------------------------


  Number of variables =      363

  Maximum number of calculations  =          1000
  Maximum Hessian update interval =            10
  Maximum step size               =   0.100000000
  Maximum parameter tolerance     =   0.000010000
  Maximum function  tolerance     =   0.000010000
  Maximum gradient  tolerance     =   0.001000000
  Maximum gradient  component     =   0.010000000

  Symmetry not applied to optimisation

  Cell parameters to be optimised using strains

  Newton-Raphson optimiser to be used

  BFGS hessian update to be used

  Lower half triangular hessian to be used

  Minimiser to switch to RFO
  When gradient norm is less than     0.050000

  Dumpfile to be written after every cycle

  Start of bulk optimisation :

  Cycle:      0 Energy:     -3031.007654  Gnorm:      4.393534  CPU:    0.107
  ** Hessian calculated **
  Cycle:      1 Energy:     -3061.821069  Gnorm:      0.947987  CPU:    0.237
  ** Hessian calculated **
  Cycle:      2 Energy:     -3066.545592  Gnorm:      0.381630  CPU:    0.473
  ** Hessian calculated **
  Cycle:      3 Energy:     -3066.931572  Gnorm:      0.213403  CPU:    0.674
  Cycle:      4 Energy:     -3067.066296  Gnorm:      0.140600  CPU:    0.781
  Cycle:      5 Energy:     -3067.192814  Gnorm:      0.111705  CPU:    0.908
  Cycle:      6 Energy:     -3067.314342  Gnorm:      0.092777  CPU:    1.036
  Cycle:      7 Energy:     -3067.395293  Gnorm:      0.078941  CPU:    1.143
  Cycle:      8 Energy:     -3067.445899  Gnorm:      0.061736  CPU:    1.249
  Cycle:      9 Energy:     -3067.474334  Gnorm:      0.046459  CPU:    1.357
  ** Hessian has required structure
  Cycle:     10 Energy:     -3067.484516  Gnorm:      0.066480  CPU:    1.505
  ** Hessian has required structure
  Cycle:     11 Energy:     -3067.494503  Gnorm:      0.071677  CPU:    1.654
  ** Hessian has required structure
  Cycle:     12 Energy:     -3067.506488  Gnorm:      0.080683  CPU:    1.804
  ** Hessian has wrong structure
  ** Imaginary eigenvectors =   3
  ** Hessian has wrong structure
  ** Imaginary eigenvectors =   2
  Cycle:     13 Energy:     -3067.535508  Gnorm:      0.082364  CPU:    2.422
  ** Hessian has wrong structure
  ** Imaginary eigenvectors =   2
  ** Hessian has wrong structure
  ** Imaginary eigenvectors =   2
  Cycle:     14 Energy:     -3067.561331  Gnorm:      0.084202  CPU:    2.986
  ** Hessian has wrong structure
  ** Imaginary eigenvectors =   1
  Cycle:     15 Energy:     -3067.564569  Gnorm:      0.085268  CPU:    3.204
  ** Hessian has wrong structure
  ** Imaginary eigenvectors =   1
  ** Hessian has required structure
  Cycle:     16 Energy:     -3067.752933  Gnorm:      0.068066  CPU:    3.759
  ** Hessian has required structure
  Cycle:     17 Energy:     -3067.846798  Gnorm:      0.046734  CPU:    3.947
  ** Hessian has required structure
  Cycle:     18 Energy:     -3067.946792  Gnorm:      0.033359  CPU:    4.115
  ** Hessian has required structure
  Cycle:     19 Energy:     -3067.964082  Gnorm:      0.046665  CPU:    4.264
  ** Hessian has required structure
  Cycle:     20 Energy:     -3068.004982  Gnorm:      0.031380  CPU:    4.432
  ** Hessian has required structure
  Cycle:     21 Energy:     -3068.021304  Gnorm:      0.024170  CPU:    4.624
  ** Hessian has required structure
  Cycle:     22 Energy:     -3068.043024  Gnorm:      0.025705  CPU:    4.823
  ** Hessian has required structure
  Cycle:     23 Energy:     -3068.060717  Gnorm:      0.022718  CPU:    5.001
  ** Hessian has required structure
  Cycle:     24 Energy:     -3068.072863  Gnorm:      0.025197  CPU:    5.180
  ** Hessian has required structure
  Cycle:     25 Energy:     -3068.084176  Gnorm:      0.022981  CPU:    5.358
  ** Hessian has wrong structure
  ** Imaginary eigenvectors =   1
  Cycle:     26 Energy:     -3068.116660  Gnorm:      0.037988  CPU:    5.751
  ** Hessian has required structure
  Cycle:     27 Energy:     -3068.157912  Gnorm:      0.022869  CPU:    6.044
  ** Hessian has required structure
  Cycle:     28 Energy:     -3068.175012  Gnorm:      0.016498  CPU:    6.239
  ** Hessian has required structure
  Cycle:     29 Energy:     -3068.183826  Gnorm:      0.007110  CPU:    6.433
  ** Hessian has required structure
  Cycle:     30 Energy:     -3068.186575  Gnorm:      0.010712  CPU:    6.609
  ** Hessian has required structure
  Cycle:     31 Energy:     -3068.188800  Gnorm:      0.005678  CPU:    6.785
  ** Hessian has required structure
  Cycle:     32 Energy:     -3068.189694  Gnorm:      0.005673  CPU:    6.950
  ** Hessian has required structure
  Cycle:     33 Energy:     -3068.190743  Gnorm:      0.004127  CPU:    7.135
  ** Hessian has required structure
  Cycle:     34 Energy:     -3068.191485  Gnorm:      0.003336  CPU:    7.320
  ** Hessian has required structure
  Cycle:     35 Energy:     -3068.192088  Gnorm:      0.003011  CPU:    7.507
  ** Hessian has required structure
  Cycle:     36 Energy:     -3068.192427  Gnorm:      0.001874  CPU:    7.670
  ** Hessian has required structure
  Cycle:     37 Energy:     -3068.192634  Gnorm:      0.001050  CPU:    7.941
  ** Hessian has required structure
  Cycle:     38 Energy:     -3068.192692  Gnorm:      0.000664  CPU:    8.123
  ** Hessian has required structure
  Cycle:     39 Energy:     -3068.192712  Gnorm:      0.000438  CPU:    8.286
  ** Hessian has required structure
  Cycle:     40 Energy:     -3068.192723  Gnorm:      0.000260  CPU:    8.469
  ** Hessian has required structure
  Cycle:     41 Energy:     -3068.192726  Gnorm:      0.000191  CPU:    8.613
  ** Hessian has required structure
  Cycle:     42 Energy:     -3068.192727  Gnorm:      0.000143  CPU:    8.753
  ** Hessian has required structure
  Cycle:     43 Energy:     -3068.192727  Gnorm:      0.000141  CPU:    8.875
  ** Hessian has required structure
  Cycle:     44 Energy:     -3068.192727  Gnorm:      0.000140  CPU:    8.997
  ** Hessian has required structure
  Cycle:     45 Energy:     -3068.192727  Gnorm:      0.000140  CPU:    9.120
  ** Hessian has required structure
  Cycle:     46 Energy:     -3068.192727  Gnorm:      0.000140  CPU:    9.242
  ** Hessian has required structure
  Cycle:     47 Energy:     -3068.192727  Gnorm:      0.000140  CPU:    9.490
  ** Hessian calculated **
  Cycle:     48 Energy:     -3068.192727  Gnorm:      0.000095  CPU:    9.645
  ** Hessian has required structure
  Cycle:     49 Energy:     -3068.192727  Gnorm:      0.000153  CPU:    9.767
  ** Hessian has required structure
  Cycle:     50 Energy:     -3068.192727  Gnorm:      0.000145  CPU:    9.891
  ** Hessian has required structure
  Cycle:     51 Energy:     -3068.192727  Gnorm:      0.000120  CPU:   10.016
  ** Hessian has required structure
  Cycle:     52 Energy:     -3068.192727  Gnorm:      0.000110  CPU:   10.139
  ** Hessian has required structure
  Cycle:     53 Energy:     -3068.192727  Gnorm:      0.000100  CPU:   10.262
  ** Hessian has required structure
  Cycle:     54 Energy:     -3068.192727  Gnorm:      0.000103  CPU:   10.385
  ** Hessian has required structure
  Cycle:     55 Energy:     -3068.192727  Gnorm:      0.000101  CPU:   10.507
  ** Hessian has required structure
  Cycle:     56 Energy:     -3068.192727  Gnorm:      0.000105  CPU:   10.630
  ** Hessian has required structure
  Cycle:     57 Energy:     -3068.192727  Gnorm:      0.000092  CPU:   10.753
  ** Hessian has required structure
  Cycle:     58 Energy:     -3068.192728  Gnorm:      0.000088  CPU:   10.956
  ** Hessian has required structure
  Cycle:     59 Energy:     -3068.192728  Gnorm:      0.000087  CPU:   11.080
  ** Hessian has required structure
  Cycle:     60 Energy:     -3068.192728  Gnorm:      0.000086  CPU:   11.207
  ** Hessian has required structure
  Cycle:     61 Energy:     -3068.192728  Gnorm:      0.000086  CPU:   11.343
  ** Hessian has required structure
  Cycle:     62 Energy:     -3068.192728  Gnorm:      0.000086  CPU:   11.530
  ** Hessian has required structure
  Cycle:     63 Energy:     -3068.192728  Gnorm:      0.000086  CPU:   11.699
  ** Hessian has required structure
  Cycle:     64 Energy:     -3068.192728  Gnorm:      0.000086  CPU:   11.970
  ** Hessian calculated **


  **** Optimisation achieved ****


  Final energy =   -3068.19272764 eV      
  Final Gnorm  =       0.00008600

  Components of energy : 

--------------------------------------------------------------------------------
  Interatomic potentials     =         816.24778397 eV    
  Three-body potentials      =           0.22178354 eV    
  Monopole - monopole (real) =       -2206.86046269 eV    
  Monopole - monopole (recip)=       -1677.80183246 eV    
  Monopole - monopole (total)=       -3884.66229515 eV    
--------------------------------------------------------------------------------
  Total lattice energy       =       -3068.19272764 eV    
--------------------------------------------------------------------------------
  Total lattice energy       =         -296033.6966 kJ/(mole unit cells)
--------------------------------------------------------------------------------

  Final fractional coordinates of atoms :

--------------------------------------------------------------------------------
   No.  Atomic        x           y          z          Radius
        Label       (Frac)      (Frac)     (Frac)       (Angs) 
--------------------------------------------------------------------------------
     1  Ge    c     0.052090    0.000000    0.372270    0.000000
     2  Ge    c     0.652692    0.344830    0.042545    0.000000
     3  Ge    c     0.839034    0.334695    0.049051    0.000000
     4  Si    c     0.453706    0.003262    0.373373    0.000000
     5  Si    c     0.947651    0.000415    0.630921    0.000000
     6  Si    c     0.549879    0.005460    0.637025    0.000000
     7  Si    c     0.556099    0.030087    0.126794    0.000000
     8  Si    c     0.943500    0.027805    0.117473    0.000000
     9  Si    c     0.441482    0.001581    0.885048    0.000000
    10  Si    c     0.053869    0.003643    0.877477    0.000000
    11  Si    c     0.166063    0.293581    0.284397    0.000000
    12  Si    c     0.342751    0.707395    0.283701    0.000000
    13  Si    c     0.836192    0.299650    0.735752    0.000000
    14  Si    c     0.661003    0.713685    0.714786    0.000000
    15  Si    c     0.841277    0.703887    0.718636    0.000000
    16  Si    c     0.657820    0.309132    0.730181    0.000000
    17  Si    c     0.162818    0.699465    0.293552    0.000000
    18  Si    c     0.346835    0.304411    0.276900    0.000000
    19  Si    c     0.841744    0.726700    0.019511    0.000000
    20  Si    c     0.341481    0.310263    0.973731    0.000000
    21  Si    c     0.154669    0.701279    0.990862    0.000000
    22  Si    c     0.335316    0.709077    0.979204    0.000000
    23  Si    c     0.160259    0.298281    0.982529    0.000000
    24  Si    c     0.659357    0.738601    0.015849    0.000000
    25  O3    c     0.114099    0.177868    0.375420    0.000000
    26  O2    c     0.397255    0.835172    0.369168    0.000000
    27  O2    c     0.892375    0.167092    0.658204    0.000000
    28  O2    c     0.607235    0.836630    0.625274    0.000000
    29  O2    c     0.897920    0.820383    0.631573    0.000000
    30  O2    c     0.600385    0.182214    0.648297    0.000000
    31  O3    c     0.109429    0.814241    0.387696    0.000000
    32  O2    c     0.403677    0.180660    0.357923    0.000000
    33  O3    c     0.982343    0.020602    0.488946    0.000000
    34  O2    c     0.496643    0.014084    0.510340    0.000000
    35  O3    c     0.004793    0.978914    0.225078    0.000000
    36  O2    c     0.518903    0.982243    0.263445    0.000000
    37  O2    c     0.020639    0.992840    0.731040    0.000000
    38  O2    c     0.492143    0.985106    0.757115    0.000000
    39  O3    c     0.586115    0.226484    0.129730    0.000000
    40  O2    c     0.874911    0.882689    0.109011    0.000000
    41  O2    c     0.393546    0.184437    0.882379    0.000000
    42  O2    c     0.098723    0.822161    0.905288    0.000000
    43  O2    c     0.381538    0.839826    0.888123    0.000000
    44  O2    c     0.111851    0.169311    0.887978    0.000000
    45  O2    c     0.630959    0.903491    0.101988    0.000000
    46  O3    c     0.901136    0.211389    0.143751    0.000000
    47  O2    c     0.494963    0.991521    0.011963    0.000000
    48  O2    c     0.983526    0.034329    0.975985    0.000000
    49  O2    c     0.145109    0.495760    0.313100    0.000000
    50  O2    c     0.366355    0.506529    0.311055    0.000000
    51  O2    c     0.862794    0.498500    0.704901    0.000000
    52  O2    c     0.635747    0.511142    0.699854    0.000000
    53  O2    c     0.257681    0.261211    0.311944    0.000000
    54  O2    c     0.253416    0.739383    0.324711    0.000000
    55  O2    c     0.747010    0.272464    0.686428    0.000000
    56  O2    c     0.751509    0.734607    0.675267    0.000000
    57  O2    c     0.147041    0.244581    0.132571    0.000000
    58  O2    c     0.352626    0.750222    0.131345    0.000000
    59  O3    c     0.839180    0.263855    0.887795    0.000000
    60  O2    c     0.648690    0.781206    0.863248    0.000000
    61  O2    c     0.854609    0.768870    0.867561    0.000000
    62  O3    c     0.649338    0.272228    0.881759    0.000000
    63  O2    c     0.144346    0.750248    0.143369    0.000000
    64  O2    c     0.360789    0.266590    0.123723    0.000000
    65  O3    c     0.618181    0.558933    0.050538    0.000000
    66  O3    c     0.878828    0.542845    0.056817    0.000000
    67  O2    c     0.362347    0.510932    0.944102    0.000000
    68  O2    c     0.132200    0.498409    0.963056    0.000000
    69  O1    c     0.745145    0.320369    0.102892    0.000000
    70  O2    c     0.750099    0.699292    0.045357    0.000000
    71  O2    c     0.250552    0.277286    0.945071    0.000000
    72  O2    c     0.243729    0.732863    0.949629    0.000000
    73  O3    s     0.114570    0.175695    0.365519    0.000000
    74  O2    s     0.397228    0.839004    0.359990    0.000000
    75  O2    s     0.892147    0.163608    0.663967    0.000000
    76  O2    s     0.607113    0.840851    0.636221    0.000000
    77  O2    s     0.896920    0.826380    0.640989    0.000000
    78  O2    s     0.601211    0.176928    0.656077    0.000000
    79  O3    s     0.110379    0.817135    0.376731    0.000000
    80  O2    s     0.402618    0.175479    0.350308    0.000000
    81  O3    s     0.984889    0.016642    0.493610    0.000000
    82  O2    s     0.497829    0.011753    0.508971    0.000000
    83  O3    s     0.001969    0.986253    0.225693    0.000000
    84  O2    s     0.515815    0.990079    0.260160    0.000000
    85  O2    s     0.016565    0.994822    0.736542    0.000000
    86  O2    s     0.492690    0.989406    0.758741    0.000000
    87  O3    s     0.588425    0.215873    0.122380    0.000000
    88  O2    s     0.878273    0.880121    0.099736    0.000000
    89  O2    s     0.392837    0.179127    0.892804    0.000000
    90  O2    s     0.100183    0.828157    0.911972    0.000000
    91  O2    s     0.382790    0.842549    0.898089    0.000000
    92  O2    s     0.111077    0.166046    0.897472    0.000000
    93  O2    s     0.626394    0.898405    0.094918    0.000000
    94  O3    s     0.900386    0.202985    0.133602    0.000000
    95  O2    s     0.495745    0.996991    0.010331    0.000000
    96  O2    s     0.987231    0.030169    0.979887    0.000000
    97  O2    s     0.149363    0.496139    0.307797    0.000000
    98  O2    s     0.361719    0.506272    0.304457    0.000000
    99  O2    s     0.857751    0.500001    0.709520    0.000000
   100  O2    s     0.640774    0.511866    0.704591    0.000000
   101  O2    s     0.257496    0.269336    0.305214    0.000000
   102  O2    s     0.253440    0.731619    0.316916    0.000000
   103  O2    s     0.746965    0.279179    0.696051    0.000000
   104  O2    s     0.751425    0.729054    0.684006    0.000000
   105  O2    s     0.150301    0.254996    0.132392    0.000000
   106  O2    s     0.349719    0.741327    0.131282    0.000000
   107  O3    s     0.838864    0.273209    0.885104    0.000000
   108  O2    s     0.651120    0.769677    0.863666    0.000000
   109  O2    s     0.851842    0.757607    0.867759    0.000000
   110  O3    s     0.650452    0.281743    0.879264    0.000000
   111  O2    s     0.147322    0.739997    0.142532    0.000000
   112  O2    s     0.357263    0.275178    0.124100    0.000000
   113  O3    s     0.624957    0.560417    0.046493    0.000000
   114  O3    s     0.871982    0.545166    0.052472    0.000000
   115  O2    s     0.357225    0.510321    0.951033    0.000000
   116  O2    s     0.137537    0.498571    0.968067    0.000000
   117  O1    s     0.745215    0.323383    0.094100    0.000000
   118  O2    s     0.750194    0.706000    0.039271    0.000000
   119  O2    s     0.250627    0.283325    0.952396    0.000000
   120  O2    s     0.244024    0.726770    0.957375    0.000000
--------------------------------------------------------------------------------

  Final Cartesian lattice vectors (Angstroms) :

       17.139242    0.039747   -0.060385
        0.017523    7.634184   -0.073368
       -0.038918   -0.101024   10.252755


  Final cell parameters and derivatives :

--------------------------------------------------------------------------------
       a           17.139395 Angstrom     dE/de1(xx)     0.006788 eV/strain
       b            7.634557 Angstrom     dE/de2(yy)     0.002680 eV/strain
       c           10.253327 Angstrom     dE/de3(zz)     0.008240 eV/strain
       alpha       91.115649 Degrees      dE/de4(yz)    -0.000417 eV/strain
       beta        90.420635 Degrees      dE/de5(xz)     0.000631 eV/strain
       gamma       89.733692 Degrees      dE/de6(xy)     0.001004 eV/strain
--------------------------------------------------------------------------------

  Primitive cell volume =          1341.360990 Angs**3

  Density of cell =      1.950695 g/cm**3

  Non-primitive cell volume =          1341.360990 Angs**3


  Final internal derivatives :

--------------------------------------------------------------------------------
   No.  Atomic          a             b             c           Radius
        Label          (eV)          (eV)          (eV)        (eV/Angs)
--------------------------------------------------------------------------------
      1 Ge    c       0.000000      0.000000      0.000000      0.000000
      2 Ge    c      -0.000300      0.001092      0.001489      0.000000
      3 Ge    c       0.001120      0.000148      0.000121      0.000000
      4 Si    c      -0.003780      0.000584     -0.000406      0.000000
      5 Si    c       0.000354      0.000333     -0.000217      0.000000
      6 Si    c       0.011554     -0.000451      0.001431      0.000000
      7 Si    c       0.004730      0.000600      0.000829      0.000000
      8 Si    c      -0.005518      0.001468     -0.002903      0.000000
      9 Si    c      -0.006593      0.001281      0.002288      0.000000
     10 Si    c       0.000152     -0.000186      0.000482      0.000000
     11 Si    c      -0.000524      0.000428      0.000179      0.000000
     12 Si    c       0.000725      0.000031      0.001284      0.000000
     13 Si    c       0.001759      0.000153     -0.000375      0.000000
     14 Si    c      -0.002714      0.001168     -0.002713      0.000000
     15 Si    c       0.001998     -0.000542     -0.000341      0.000000
     16 Si    c      -0.001220     -0.001076     -0.002043      0.000000
     17 Si    c      -0.001078     -0.000424      0.000354      0.000000
     18 Si    c       0.001524     -0.000440      0.001145      0.000000
     19 Si    c      -0.000750      0.000059      0.000116      0.000000
     20 Si    c       0.002764     -0.001105     -0.001659      0.000000
     21 Si    c      -0.001202     -0.000238     -0.000782      0.000000
     22 Si    c       0.001646      0.000592     -0.001443      0.000000
     23 Si    c      -0.000305      0.000345     -0.000741      0.000000
     24 Si    c       0.000734      0.000006      0.001930      0.000000
     25 O3    c      -0.002605      0.000251      0.000884      0.000000
     26 O2    c      -0.000191     -0.000990     -0.000763      0.000000
     27 O2    c       0.001015     -0.000203      0.000045      0.000000
     28 O2    c      -0.002068      0.000257     -0.000549      0.000000
     29 O2    c       0.001163      0.000084     -0.000189      0.000000
     30 O2    c      -0.000257      0.001194     -0.000593      0.000000
     31 O3    c      -0.002421      0.000053      0.000512      0.000000
     32 O2    c       0.001095     -0.000291     -0.000788      0.000000
     33 O3    c      -0.000091     -0.000079      0.002060      0.000000
     34 O2    c      -0.006395      0.000230     -0.003311      0.000000
     35 O3    c       0.010247     -0.000951      0.006290      0.000000
     36 O2    c       0.003268     -0.000200      0.001198      0.000000
     37 O2    c       0.000473      0.000047      0.000135      0.000000
     38 O2    c       0.001488     -0.000794     -0.000711      0.000000
     39 O3    c       0.000121      0.000673     -0.001016      0.000000
     40 O2    c       0.000831      0.000319      0.001366      0.000000
     41 O2    c       0.001425     -0.000117      0.000376      0.000000
     42 O2    c      -0.000721      0.000693     -0.000514      0.000000
     43 O2    c      -0.000012     -0.001325      0.000055      0.000000
     44 O2    c      -0.000084     -0.000743     -0.000698      0.000000
     45 O2    c      -0.001374     -0.000004     -0.000242      0.000000
     46 O3    c       0.000854     -0.000708      0.000717      0.000000
     47 O2    c      -0.004563     -0.001033      0.000475      0.000000
     48 O2    c      -0.000959      0.000101     -0.000071      0.000000
     49 O2    c      -0.000995     -0.000112      0.000245      0.000000
     50 O2    c       0.000603     -0.000037     -0.000613      0.000000
     51 O2    c       0.002613      0.000702     -0.000459      0.000000
     52 O2    c      -0.000835      0.000383      0.001567      0.000000
     53 O2    c       0.000144     -0.000038      0.000013      0.000000
     54 O2    c       0.001585      0.000077     -0.000126      0.000000
     55 O2    c      -0.002753      0.000274      0.000051      0.000000
     56 O2    c      -0.000983      0.000142     -0.000760      0.000000
     57 O2    c      -0.001001     -0.000306      0.000289      0.000000
     58 O2    c       0.000028     -0.000095     -0.000698      0.000000
     59 O3    c       0.001265     -0.000123      0.001975      0.000000
     60 O2    c      -0.000983     -0.000109     -0.000319      0.000000
     61 O2    c       0.002702      0.000692      0.000057      0.000000
     62 O3    c      -0.000101      0.000374     -0.000654      0.000000
     63 O2    c      -0.001169      0.000189      0.000051      0.000000
     64 O2    c       0.000922      0.000131     -0.000507      0.000000
     65 O3    c       0.000948     -0.001636     -0.001394      0.000000
     66 O3    c       0.000353     -0.001317     -0.000364      0.000000
     67 O2    c       0.000498      0.000065      0.000895      0.000000
     68 O2    c      -0.000891     -0.000111     -0.000392      0.000000
     69 O1    c      -0.000000      0.001562      0.000406      0.000000
     70 O2    c       0.000873     -0.000261     -0.000201      0.000000
     71 O2    c      -0.000220     -0.000117     -0.000026      0.000000
     72 O2    c       0.001065      0.000088      0.000036      0.000000
     73 O3    s       0.001989     -0.000721     -0.000271      0.000000
     74 O2    s       0.000281      0.001609     -0.000370      0.000000
     75 O2    s       0.000099     -0.000175      0.000119      0.000000
     76 O2    s       0.001181      0.000953      0.000567      0.000000
     77 O2    s      -0.000302     -0.000070      0.000013      0.000000
     78 O2    s       0.000583     -0.001410     -0.000364      0.000000
     79 O3    s       0.001728      0.000407     -0.000047      0.000000
     80 O2    s       0.000026     -0.000749     -0.000337      0.000000
     81 O3    s      -0.000668     -0.000012     -0.002383      0.000000
     82 O2    s       0.002192      0.000259      0.002487      0.000000
     83 O3    s      -0.005286      0.000761     -0.004740      0.000000
     84 O2    s      -0.001284     -0.000259      0.000904      0.000000
     85 O2    s       0.000035     -0.000037     -0.000109      0.000000
     86 O2    s      -0.001240     -0.000658      0.000592      0.000000
     87 O3    s      -0.000848     -0.000958      0.001018      0.000000
     88 O2    s      -0.000415     -0.001151     -0.000245      0.000000
     89 O2    s      -0.000866     -0.000719     -0.001166      0.000000
     90 O2    s      -0.000771     -0.000360      0.000554      0.000000
     91 O2    s      -0.000617      0.001780     -0.001355      0.000000
     92 O2    s      -0.001632      0.000460      0.000613      0.000000
     93 O2    s       0.000258      0.000682     -0.000956      0.000000
     94 O3    s       0.000745      0.000341     -0.000320      0.000000
     95 O2    s       0.002576     -0.000331      0.001201      0.000000
     96 O2    s       0.001393      0.000299     -0.000449      0.000000
     97 O2    s       0.000075      0.000006     -0.000500      0.000000
     98 O2    s      -0.001428      0.000147      0.000596      0.000000
     99 O2    s      -0.001147     -0.000125      0.001052      0.000000
    100 O2    s       0.001863     -0.000283     -0.000648      0.000000
    101 O2    s       0.000208     -0.000151     -0.000144      0.000000
    102 O2    s      -0.000606      0.000079     -0.000119      0.000000
    103 O2    s      -0.000004      0.000003      0.000281      0.000000
    104 O2    s      -0.000854     -0.000504      0.001017      0.000000
    105 O2    s      -0.000312     -0.000010      0.000204      0.000000
    106 O2    s      -0.000106      0.000503      0.000637      0.000000
    107 O3    s      -0.001792     -0.000115     -0.001303      0.000000
    108 O2    s       0.001044      0.001006      0.000049      0.000000
    109 O2    s      -0.002904     -0.000259      0.000034      0.000000
    110 O3    s       0.000440     -0.001275      0.000209      0.000000
    111 O2    s       0.000139      0.000134      0.000117      0.000000
    112 O2    s      -0.001765     -0.000473      0.000756      0.000000
    113 O3    s      -0.002537      0.001420      0.000221      0.000000
    114 O3    s       0.002544      0.001282     -0.000074      0.000000
    115 O2    s      -0.001494      0.000297     -0.000546      0.000000
    116 O2    s      -0.000627      0.000141      0.000646      0.000000
    117 O1    s      -0.000073     -0.002015     -0.000109      0.000000
    118 O2    s      -0.000839     -0.000627     -0.000731      0.000000
    119 O2    s       0.001008      0.000099      0.000356      0.000000
    120 O2    s      -0.000082     -0.000041      0.000325      0.000000
--------------------------------------------------------------------------------
  Maximum abs         0.011554      0.002015      0.006290      0.000000
--------------------------------------------------------------------------------


  Born effective charge tensors : 

-------------------------------------------------------------------------------
  Atom             x           y             z
-------------------------------------------------------------------------------
    1 Ge    x       4.2628     -0.0155     -0.0859
            y       0.0256      3.8971     -0.0561
            z      -0.8912      0.1361      4.4870
-------------------------------------------------------------------------------
    2 Ge    x       4.0868      0.3524     -0.0955
            y       0.2683      4.2010     -0.3232
            z      -0.1890     -0.0657      3.3596
-------------------------------------------------------------------------------
    3 Ge    x       4.1069     -0.3791      0.1119
            y      -0.2008      4.1651     -0.3335
            z       0.1582     -0.0609      3.3331
-------------------------------------------------------------------------------
    4 Si    x       3.3883     -0.0188      0.2800
            y       0.0579      3.2643     -0.0635
            z       0.4164      0.0507      3.8021
-------------------------------------------------------------------------------
    5 Si    x       3.6013      0.0894     -0.4825
            y      -0.0016      3.3012      0.0126
            z      -0.4331     -0.1890      4.2514
-------------------------------------------------------------------------------
    6 Si    x       3.4841      0.0254      0.1357
            y      -0.0410      3.2421      0.0228
            z       0.4950     -0.1222      3.7888
-------------------------------------------------------------------------------
    7 Si    x       3.5284      0.3804     -0.2460
            y      -0.0613      3.5352      0.0782
            z      -0.4435     -0.1332      3.1706
-------------------------------------------------------------------------------
    8 Si    x       3.8684     -0.3556      0.1908
            y      -0.1146      3.5361      0.0482
            z       0.7805     -0.2192      3.2742
-------------------------------------------------------------------------------
    9 Si    x       3.4930     -0.0881     -0.1889
            y       0.0580      3.2748     -0.0232
            z      -0.5626      0.0358      3.1027
-------------------------------------------------------------------------------
   10 Si    x       3.5208     -0.0432      0.3845
            y       0.0750      3.3031     -0.0536
            z       0.4132      0.0380      3.1055
-------------------------------------------------------------------------------
   11 Si    x       3.3864      0.3861     -0.2846
            y       0.3610      3.5607     -0.3472
            z      -0.2363     -0.2025      3.0243
-------------------------------------------------------------------------------
   12 Si    x       3.1512      0.2555      0.1183
            y       0.2393      3.4576      0.1578
            z       0.1132      0.0744      2.8203
-------------------------------------------------------------------------------
   13 Si    x       3.2898     -0.3142     -0.0064
            y      -0.2301      3.5729      0.0768
            z      -0.1301      0.0068      3.1038
-------------------------------------------------------------------------------
   14 Si    x       3.2453     -0.3019      0.0892
            y      -0.2218      3.4303     -0.1993
            z       0.1016     -0.0352      2.7732
-------------------------------------------------------------------------------
   15 Si    x       3.2504      0.2667     -0.0552
            y       0.2535      3.4207     -0.2113
            z      -0.0855     -0.0407      2.7648
-------------------------------------------------------------------------------
   16 Si    x       3.2834      0.3075      0.0076
            y       0.2743      3.5698      0.0967
            z       0.1130      0.0095      3.1153
-------------------------------------------------------------------------------
   17 Si    x       3.3803     -0.3726     -0.2791
            y      -0.3808      3.5479      0.3529
            z      -0.2361      0.1743      3.0156
-------------------------------------------------------------------------------
   18 Si    x       3.1702     -0.2277      0.0948
            y      -0.2662      3.4368     -0.1481
            z       0.1007     -0.1046      2.8220
-------------------------------------------------------------------------------
   19 Si    x       3.2755      0.3456      0.2232
            y      -0.0519      3.6397      0.0458
            z       0.1508     -0.0318      2.7778
-------------------------------------------------------------------------------
   20 Si    x       3.2466     -0.2660     -0.1591
            y      -0.2302      3.4104      0.1619
            z      -0.1087      0.0594      2.7140
-------------------------------------------------------------------------------
   21 Si    x       3.2779     -0.2556      0.1683
            y      -0.2288      3.4505     -0.2021
            z       0.1720     -0.0757      2.7317
-------------------------------------------------------------------------------
   22 Si    x       3.2343      0.2865     -0.1870
            y       0.1589      3.4395     -0.1840
            z      -0.1164     -0.0955      2.7489
-------------------------------------------------------------------------------
   23 Si    x       3.2478      0.2825      0.1917
            y       0.1630      3.4462      0.2187
            z       0.1197      0.0539      2.7143
-------------------------------------------------------------------------------
   24 Si    x       3.2663     -0.3834     -0.2340
            y       0.0843      3.6644      0.0618
            z      -0.1641     -0.0014      2.8075
-------------------------------------------------------------------------------
   25 O3    x      -2.0643     -0.9491      0.4909
            y      -0.9784     -2.3197      0.5398
            z       0.5859      0.5111     -1.6466
-------------------------------------------------------------------------------
   26 O2    x      -1.6972     -0.7239     -0.3337
            y      -0.7410     -1.9782     -0.3259
            z      -0.3535     -0.3276     -1.3486
-------------------------------------------------------------------------------
   27 O2    x      -1.7399      0.7425      0.3293
            y       0.7341     -2.0228     -0.3512
            z       0.3459     -0.3310     -1.3235
-------------------------------------------------------------------------------
   28 O2    x      -1.7156      0.7241     -0.2838
            y       0.7187     -1.9382      0.2871
            z      -0.3463      0.3020     -1.3691
-------------------------------------------------------------------------------
   29 O2    x      -1.6941     -0.7154      0.3237
            y      -0.6899     -1.9758      0.3018
            z       0.3354      0.3124     -1.3675
-------------------------------------------------------------------------------
   30 O2    x      -1.7103     -0.7471     -0.2935
            y      -0.7251     -2.0301     -0.3268
            z      -0.3639     -0.3169     -1.3233
-------------------------------------------------------------------------------
   31 O3    x      -2.0353      0.9419      0.4522
            y       0.9430     -2.3109     -0.4565
            z       0.5406     -0.4567     -1.6542
-------------------------------------------------------------------------------
   32 O2    x      -1.6688      0.7157     -0.3498
            y       0.7075     -2.0017      0.3802
            z      -0.3741      0.3744     -1.3666
-------------------------------------------------------------------------------
   33 O3    x      -2.0004     -0.0240      1.1076
            y      -0.0193     -1.2123      0.0562
            z       1.3893      0.0825     -3.4385
-------------------------------------------------------------------------------
   34 O2    x      -1.6235      0.0022     -0.8358
            y       0.0049     -1.0865      0.0107
            z      -1.0432      0.0078     -2.7749
-------------------------------------------------------------------------------
   35 O3    x      -2.1179      0.1532     -0.9939
            y       0.0940     -1.2713      0.1117
            z      -0.9828      0.1492     -2.6403
-------------------------------------------------------------------------------
   36 O2    x      -1.6620     -0.0627      0.6556
            y      -0.0113     -1.1319      0.0679
            z       0.6474      0.0944     -2.1837
-------------------------------------------------------------------------------
   37 O2    x      -1.7923     -0.0016     -0.7035
            y      -0.0005     -1.1159      0.0050
            z      -0.6703     -0.0054     -2.1927
-------------------------------------------------------------------------------
   38 O2    x      -1.7667      0.0038      0.7566
            y      -0.0058     -1.1180      0.0188
            z       0.7817      0.0247     -2.2266
-------------------------------------------------------------------------------
   39 O3    x      -1.8987     -0.8991      0.3805
            y      -0.7805     -2.6018      0.3577
            z       0.4178      0.3556     -1.3787
-------------------------------------------------------------------------------
   40 O2    x      -1.7035     -0.6465     -0.2648
            y      -0.5853     -1.8748     -0.3399
            z      -0.3079     -0.2903     -1.2551
-------------------------------------------------------------------------------
   41 O2    x      -1.6615      0.7075      0.3122
            y       0.6455     -1.9998     -0.3232
            z       0.3416     -0.3167     -1.2516
-------------------------------------------------------------------------------
   42 O2    x      -1.7134      0.7285     -0.4398
            y       0.6584     -2.0259      0.4573
            z      -0.3946      0.3951     -1.2753
-------------------------------------------------------------------------------
   43 O2    x      -1.7197     -0.7204      0.3426
            y      -0.6916     -1.9653      0.3782
            z       0.3554      0.3423     -1.2647
-------------------------------------------------------------------------------
   44 O2    x      -1.7385     -0.7363     -0.4012
            y      -0.6848     -1.9634     -0.3876
            z      -0.3441     -0.3444     -1.2679
-------------------------------------------------------------------------------
   45 O2    x      -1.7415      0.6191      0.3668
            y       0.5822     -1.8473     -0.4040
            z       0.3371     -0.3395     -1.2881
-------------------------------------------------------------------------------
   46 O3    x      -1.9547      0.9166     -0.2423
            y       0.8551     -2.5026      0.2284
            z      -0.3350      0.2226     -1.3826
-------------------------------------------------------------------------------
   47 O2    x      -1.7940     -0.0281     -0.5974
            y       0.0015     -1.1737     -0.0479
            z      -0.3553     -0.0314     -1.7448
-------------------------------------------------------------------------------
   48 O2    x      -1.8346      0.0534      0.5598
            y       0.0041     -1.1894     -0.0219
            z       0.3043     -0.0059     -1.6928
-------------------------------------------------------------------------------
   49 O2    x      -1.1730      0.0090      0.0718
            y       0.0198     -2.4751     -0.0298
            z       0.0788     -0.0074     -1.0892
-------------------------------------------------------------------------------
   50 O2    x      -1.1472      0.0251     -0.0625
            y       0.0313     -2.5612     -0.0174
            z      -0.0718     -0.0097     -1.0718
-------------------------------------------------------------------------------
   51 O2    x      -1.1931     -0.0102      0.0350
            y      -0.0413     -2.5928      0.0742
            z       0.0643      0.0256     -1.0526
-------------------------------------------------------------------------------
   52 O2    x      -1.1842     -0.0257     -0.0407
            y      -0.0333     -2.5889      0.0619
            z      -0.0690      0.0270     -1.0571
-------------------------------------------------------------------------------
   53 O2    x      -2.3728     -0.0217      0.0198
            y       0.0043     -1.2532      0.0696
            z       0.0208      0.0549     -1.0696
-------------------------------------------------------------------------------
   54 O2    x      -2.3511     -0.0459      0.0298
            y      -0.0317     -1.2477     -0.0723
            z       0.0318     -0.0465     -1.0831
-------------------------------------------------------------------------------
   55 O2    x      -2.4060      0.0249     -0.0229
            y       0.0118     -1.2734     -0.0588
            z      -0.0256     -0.0426     -1.0713
-------------------------------------------------------------------------------
   56 O2    x      -2.4452      0.0293     -0.0154
            y       0.0160     -1.2216      0.0734
            z      -0.0128      0.0321     -1.0777
-------------------------------------------------------------------------------
   57 O2    x      -1.2176     -0.1413     -0.0737
            y      -0.1198     -1.3029      0.0152
            z      -0.0674      0.0097     -2.0342
-------------------------------------------------------------------------------
   58 O2    x      -1.1731     -0.1214     -0.0213
            y      -0.1014     -1.2790      0.0130
            z      -0.0233      0.0238     -2.0787
-------------------------------------------------------------------------------
   59 O3    x      -1.3104      0.1359     -0.1179
            y       0.0882     -1.4618      0.0058
            z      -0.0570     -0.0271     -2.6349
-------------------------------------------------------------------------------
   60 O2    x      -1.2082      0.1582      0.0408
            y       0.0957     -1.2767     -0.0523
            z       0.0214     -0.0674     -2.0386
-------------------------------------------------------------------------------
   61 O2    x      -1.2223     -0.1535     -0.0332
            y      -0.1024     -1.2684     -0.0537
            z      -0.0179     -0.0660     -2.0212
-------------------------------------------------------------------------------
   62 O3    x      -1.3091     -0.1389      0.1514
            y      -0.1136     -1.4658      0.0045
            z       0.0958     -0.0413     -2.6462
-------------------------------------------------------------------------------
   63 O2    x      -1.2087      0.1353     -0.0636
            y       0.1224     -1.3019      0.0214
            z      -0.0754      0.0221     -2.0437
-------------------------------------------------------------------------------
   64 O2    x      -1.2015      0.1315     -0.0049
            y       0.1265     -1.2704      0.0113
            z       0.0014      0.0194     -2.0573
-------------------------------------------------------------------------------
   65 O3    x      -1.4955     -0.2057      0.1535
            y      -0.1808     -2.9993      0.2174
            z       0.1675      0.1779     -1.1592
-------------------------------------------------------------------------------
   66 O3    x      -1.4827      0.1560     -0.1476
            y       0.0906     -2.9875      0.2448
            z      -0.1516      0.1855     -1.1567
-------------------------------------------------------------------------------
   67 O2    x      -1.2043      0.0188      0.0929
            y       0.0511     -2.5131     -0.0104
            z       0.0916     -0.0044     -1.0333
-------------------------------------------------------------------------------
   68 O2    x      -1.2257      0.0206     -0.0839
            y       0.0436     -2.5677     -0.0275
            z      -0.0920     -0.0036     -1.0074
-------------------------------------------------------------------------------
   69 O1    x      -3.1647      0.0322     -0.0249
            y       0.0173     -1.4441      0.1152
            z       0.0021      0.0518     -1.3520
-------------------------------------------------------------------------------
   70 O2    x      -2.4148      0.0416     -0.0081
            y       0.0219     -1.2860     -0.0170
            z      -0.0014      0.0049     -1.0523
-------------------------------------------------------------------------------
   71 O2    x      -2.4441     -0.0397      0.0418
            y      -0.0283     -1.2322     -0.0640
            z       0.0193     -0.0319     -1.0276
-------------------------------------------------------------------------------
   72 O2    x      -2.4421     -0.0254      0.0533
            y      -0.0133     -1.2397      0.0701
            z       0.0215      0.0434     -1.0351
-------------------------------------------------------------------------------




  Elastic Constant Matrix: (Units=GPa)

-------------------------------------------------------------------------------
  Indices      1         2         3         4         5         6    
-------------------------------------------------------------------------------
       1     67.9077   46.9447   28.4429   -3.4458    5.2218   -2.4436
       2     46.9447   97.2179   26.0357   -3.7397    6.6593   -4.9394
       3     28.4429   26.0357   27.5851    0.9771    0.4040    5.0545
       4     -3.4458   -3.7397    0.9771   11.1010   -0.3397    0.0961
       5      5.2218    6.6593    0.4040   -0.3397   22.6806   -1.6181
       6     -2.4436   -4.9394    5.0545    0.0961   -1.6181   20.5859
-------------------------------------------------------------------------------


  Elastic Compliance Matrix: (Units=1/GPa)

-------------------------------------------------------------------------------
  Indices      1         2         3         4         5         6    
-------------------------------------------------------------------------------
       1    0.033046 -0.006891 -0.029548  0.010328 -0.004252  0.009142
       2   -0.006891  0.016915 -0.009971  0.004306 -0.002749  0.005453
       3   -0.029548 -0.009971  0.081357 -0.019283  0.006188 -0.025299
       4    0.010328  0.004306 -0.019283  0.096337 -0.001396  0.006434
       5   -0.004252 -0.002749  0.006188 -0.001396  0.045811  0.000924
       6    0.009142  0.005453 -0.025299  0.006434  0.000924  0.057225
-------------------------------------------------------------------------------

  Mechanical properties :

-------------------------------------------------------------------------------
  Convention :                    Reuss         Voigt         Hill
-------------------------------------------------------------------------------
  Bulk  Modulus (GPa)     =      25.97528      43.95079      34.96304
  Shear Modulus (GPa)     =      11.45887      16.95932      14.20910
-------------------------------------------------------------------------------
  Velocity S-wave (km/s)  =       2.42369       2.94856       2.69891
  Velocity P-wave (km/s)  =       4.59872       5.84147       5.25695
-------------------------------------------------------------------------------
  Compressibility (1/GPa) =    0.03849814
-------------------------------------------------------------------------------
  Stress axis :                     x             y             z
-------------------------------------------------------------------------------
  Youngs Moduli (GPa)     =      30.26131      59.11932      12.29146
-------------------------------------------------------------------------------
  Poissons Ratio (x)      =                     0.40739       0.36319
  Poissons Ratio (y)      =       0.20853                     0.12256
  Poissons Ratio (z)      =       0.89416       0.58948
-------------------------------------------------------------------------------


  Piezoelectric Strain Matrix: (Units=C/m**2)

-------------------------------------------------------------------------------
  Indices      1         2         3         4         5         6    
-------------------------------------------------------------------------------
       x     0.12016   0.48689  -0.06101  -0.00817   0.03975  -0.04303
       y    -1.07864   0.03348   0.78560  -0.46695  -0.03723  -0.03968
       z    -0.22722  -0.82388   0.95700  -0.21725  -0.34042  -0.52881
-------------------------------------------------------------------------------


  Piezoelectric Stress Matrix: (Units=10**-11 C/N)

-------------------------------------------------------------------------------
  Indices      1         2         3         4         5         6    
-------------------------------------------------------------------------------
       x     0.17716   0.76370  -1.18770   0.33942  -0.04340   0.28188
       y    -6.41143  -0.19586  10.52293  -7.13318   0.82648  -3.48629
       z    -3.57394  -2.47954  10.82496  -4.82044  -0.66279  -6.27547
-------------------------------------------------------------------------------


  Static dielectric constant tensor : 

-------------------------------------------------------------------------------
              x         y         z
-------------------------------------------------------------------------------
       x     3.99409  -0.01365  -0.11463
       y    -0.01365   4.13183  -0.03147
       z    -0.11463  -0.03147   3.41256
--------------------------------------------------------------------------------

  High frequency dielectric constant tensor : 

-------------------------------------------------------------------------------
              x         y         z
-------------------------------------------------------------------------------
       x     1.67661  -0.00011   0.00051
       y    -0.00011   1.68632  -0.00265
       z     0.00051  -0.00265   1.61746
-------------------------------------------------------------------------------

  Static refractive indices : 

-------------------------------------------------------------------------------
    1 =    1.84100      2 =    2.00384      3 =    2.03318
-------------------------------------------------------------------------------

  High frequency refractive indices : 

-------------------------------------------------------------------------------
    1 =    1.27175      2 =    1.29484      3 =    1.29862
-------------------------------------------------------------------------------


  Time to end of optimisation =      12.3614 seconds


  Peak dynamic memory used =       5.01 MB 


  Timing analysis for GULP :

--------------------------------------------------------------------------------
  Task / Subroutine                                          Time (Seconds)
--------------------------------------------------------------------------------
  Calculation of reciprocal space energy and derivatives          0.7321
  Calculation of real space energy and derivatives                7.4868
  Calculation of three-body energy and derivatives                0.7172
  Calculation and manipulation of Hessian matrix                  3.9574
  Calculation of matrix inversion                                 0.0344
  Global summation overhead                                       0.0002
--------------------------------------------------------------------------------
  Total CPU time                                                 12.3614
--------------------------------------------------------------------------------


  Dump file written as c00112.vasp.grs
  CIF file written as c00112.vasp.cif


  Job Finished at 11:46.08  7th October    2025                               

