********************************************************************************
*                       GENERAL UTILITY LATTICE PROGRAM                        *
*                                 Julian Gale                                  *
*                       Curtin Institute for Computation                       *
*                    School of Molecular and Life Sciences                     *
*                    Curtin University, Western Australia                      *
********************************************************************************
* Version = 6.1.2 * Last modified =   3rd November 2022                        *
********************************************************************************
*  optimise     - perform optimisation run                                     *
*  conp         - constant pressure calculation                                *
*  property     - calculate properties for final geometry                      *
********************************************************************************

  Job Started  at 11:59.14  7th October    2025                               

  Number of CPUs =     1


  Total number of configurations input =      1

********************************************************************************
*  Input for Configuration =   1 : c00185.vasp                                 *
********************************************************************************

  Formula = Ge3Si21O48                                                  

  Number of irreducible atoms/shells =     120


  Total number atoms/shells =     120

  Dimensionality = 3               :  Bulk   



  Cartesian lattice vectors (Angstroms) :

       17.182800    0.000000    0.000000
        0.000000    7.513760    0.000000
        0.000000    0.000000   10.447700

  Cell parameters (Angstroms/Degrees):

  a =      17.1828    alpha =  90.0000
  b =       7.5138    beta  =  90.0000
  c =      10.4477    gamma =  90.0000

  Initial cell volume =        1348.875752 Angs**3

  Temperature of configuration =   0.00     K 

  Pressure of configuration =         0.000 GPa 

  Fractional coordinates of asymmetric unit :

--------------------------------------------------------------------------------
   No.  Atomic       x           y          z         Charge      Occupancy
        Label      (Frac)      (Frac)     (Frac)        (e)         (Frac)  
--------------------------------------------------------------------------------
      1 Ge    c    0.556730    0.000000    0.122130     4.00000    1.000000    
      2 Ge    c    0.660660 *  0.294090 *  0.017440 *   4.00000    1.000000    
      3 Ge    c    0.160660 *  0.705910 *  0.982560 *   4.00000    1.000000    
      4 Si    c    0.052090 *  0.000000 *  0.372270 *   4.00000    1.000000    
      5 Si    c    0.447910 *  0.000000 *  0.372270 *   4.00000    1.000000    
      6 Si    c    0.947910 *  0.000000 *  0.627730 *   4.00000    1.000000    
      7 Si    c    0.552090 *  0.000000 *  0.627730 *   4.00000    1.000000    
      8 Si    c    0.943270 *  0.000000 *  0.122130 *   4.00000    1.000000    
      9 Si    c    0.443270 *  0.000000 *  0.877870 *   4.00000    1.000000    
     10 Si    c    0.056730 *  0.000000 *  0.877870 *   4.00000    1.000000    
     11 Si    c    0.160190 *  0.293910 *  0.273440 *   4.00000    1.000000    
     12 Si    c    0.339810 *  0.706090 *  0.273440 *   4.00000    1.000000    
     13 Si    c    0.839810 *  0.293910 *  0.726560 *   4.00000    1.000000    
     14 Si    c    0.660190 *  0.706090 *  0.726560 *   4.00000    1.000000    
     15 Si    c    0.839810 *  0.706090 *  0.726560 *   4.00000    1.000000    
     16 Si    c    0.660190 *  0.293910 *  0.726560 *   4.00000    1.000000    
     17 Si    c    0.160190 *  0.706090 *  0.273440 *   4.00000    1.000000    
     18 Si    c    0.339810 *  0.293910 *  0.273440 *   4.00000    1.000000    
     19 Si    c    0.839340 *  0.705910 *  0.017440 *   4.00000    1.000000    
     20 Si    c    0.339340 *  0.294090 *  0.982560 *   4.00000    1.000000    
     21 Si    c    0.339340 *  0.705910 *  0.982560 *   4.00000    1.000000    
     22 Si    c    0.160660 *  0.294090 *  0.982560 *   4.00000    1.000000    
     23 Si    c    0.660660 *  0.705910 *  0.017440 *   4.00000    1.000000    
     24 Si    c    0.839340 *  0.294090 *  0.017440 *   4.00000    1.000000    
     25 O2    c    0.106570 *  0.174340 *  0.366200 *   0.87073    1.000000    
     26 O2    c    0.393430 *  0.825660 *  0.366200 *   0.87073    1.000000    
     27 O2    c    0.893430 *  0.174340 *  0.633800 *   0.87073    1.000000    
     28 O2    c    0.606570 *  0.825660 *  0.633800 *   0.87073    1.000000    
     29 O2    c    0.893430 *  0.825660 *  0.633800 *   0.87073    1.000000    
     30 O2    c    0.606570 *  0.174340 *  0.633800 *   0.87073    1.000000    
     31 O2    c    0.106570 *  0.825660 *  0.366200 *   0.87073    1.000000    
     32 O2    c    0.393430 *  0.174340 *  0.366200 *   0.87073    1.000000    
     33 O2    c    0.000000 *  0.000000 *  0.500000 *   0.87073    1.000000    
     34 O2    c    0.500000 *  0.000000 *  0.500000 *   0.87073    1.000000    
     35 O2    c    0.994520 *  0.000000 *  0.250840 *   0.87073    1.000000    
     36 O3    c    0.505480 *  0.000000 *  0.250840 *   1.33043    1.000000    
     37 O2    c    0.005480 *  0.000000 *  0.749160 *   0.87073    1.000000    
     38 O2    c    0.494520 *  0.000000 *  0.749160 *   0.87073    1.000000    
     39 O1    c    0.610230 *  0.175520 *  0.115390 *   1.73396    1.000000    
     40 O2    c    0.889770 *  0.824480 *  0.115390 *   0.87073    1.000000    
     41 O2    c    0.389770 *  0.175520 *  0.884610 *   0.87073    1.000000    
     42 O3    c    0.110230 *  0.824480 *  0.884610 *   1.33043    1.000000    
     43 O2    c    0.389770 *  0.824480 *  0.884610 *   0.87073    1.000000    
     44 O2    c    0.110230 *  0.175520 *  0.884610 *   0.87073    1.000000    
     45 O3    c    0.610230 *  0.824480 *  0.115390 *   1.33043    1.000000    
     46 O2    c    0.889770 *  0.175520 *  0.115390 *   0.87073    1.000000    
     47 O3    c    0.500000 *  0.000000 *  0.000000 *   1.33043    1.000000    
     48 O2    c    0.000000 *  0.000000 *  0.000000 *   0.87073    1.000000    
     49 O2    c    0.151750 *  0.500000 *  0.313330 *   0.87073    1.000000    
     50 O2    c    0.348250 *  0.500000 *  0.313330 *   0.87073    1.000000    
     51 O2    c    0.848250 *  0.500000 *  0.686670 *   0.87073    1.000000    
     52 O2    c    0.651750 *  0.500000 *  0.686670 *   0.87073    1.000000    
     53 O2    c    0.250000 *  0.234950 *  0.285720 *   0.87073    1.000000    
     54 O2    c    0.250000 *  0.765050 *  0.285720 *   0.87073    1.000000    
     55 O2    c    0.750000 *  0.234950 *  0.714280 *   0.87073    1.000000    
     56 O2    c    0.750000 *  0.765050 *  0.714280 *   0.87073    1.000000    
     57 O2    c    0.131410 *  0.268650 *  0.127790 *   0.87073    1.000000    
     58 O2    c    0.368590 *  0.731350 *  0.127790 *   0.87073    1.000000    
     59 O2    c    0.868590 *  0.268650 *  0.872210 *   0.87073    1.000000    
     60 O2    c    0.631410 *  0.731350 *  0.872210 *   0.87073    1.000000    
     61 O2    c    0.868590 *  0.731350 *  0.872210 *   0.87073    1.000000    
     62 O3    c    0.631410 *  0.268650 *  0.872210 *   1.33043    1.000000    
     63 O3    c    0.131410 *  0.731350 *  0.127790 *   1.33043    1.000000    
     64 O2    c    0.368590 *  0.268650 *  0.127790 *   0.87073    1.000000    
     65 O3    c    0.653920 *  0.500000 *  0.058200 *   1.33043    1.000000    
     66 O2    c    0.846080 *  0.500000 *  0.058200 *   0.87073    1.000000    
     67 O2    c    0.346080 *  0.500000 *  0.941800 *   0.87073    1.000000    
     68 O3    c    0.153920 *  0.500000 *  0.941800 *   1.33043    1.000000    
     69 O3    c    0.750000 *  0.231060 *  0.027050 *   1.33043    1.000000    
     70 O2    c    0.750000 *  0.768940 *  0.027050 *   0.87073    1.000000    
     71 O2    c    0.250000 *  0.231060 *  0.972950 *   0.87073    1.000000    
     72 O3    c    0.250000 *  0.768940 *  0.972950 *   1.33043    1.000000    
     73 O2    s    0.106570 *  0.174340 *  0.366200 *  -2.87073    1.000000    
     74 O2    s    0.393430 *  0.825660 *  0.366200 *  -2.87073    1.000000    
     75 O2    s    0.893430 *  0.174340 *  0.633800 *  -2.87073    1.000000    
     76 O2    s    0.606570 *  0.825660 *  0.633800 *  -2.87073    1.000000    
     77 O2    s    0.893430 *  0.825660 *  0.633800 *  -2.87073    1.000000    
     78 O2    s    0.606570 *  0.174340 *  0.633800 *  -2.87073    1.000000    
     79 O2    s    0.106570 *  0.825660 *  0.366200 *  -2.87073    1.000000    
     80 O2    s    0.393430 *  0.174340 *  0.366200 *  -2.87073    1.000000    
     81 O2    s    0.000000 *  0.000000 *  0.500000 *  -2.87073    1.000000    
     82 O2    s    0.500000 *  0.000000 *  0.500000 *  -2.87073    1.000000    
     83 O2    s    0.994520 *  0.000000 *  0.250840 *  -2.87073    1.000000    
     84 O3    s    0.505480 *  0.000000 *  0.250840 *  -3.33043    1.000000    
     85 O2    s    0.005480 *  0.000000 *  0.749160 *  -2.87073    1.000000    
     86 O2    s    0.494520 *  0.000000 *  0.749160 *  -2.87073    1.000000    
     87 O1    s    0.610230 *  0.175520 *  0.115390 *  -3.73396    1.000000    
     88 O2    s    0.889770 *  0.824480 *  0.115390 *  -2.87073    1.000000    
     89 O2    s    0.389770 *  0.175520 *  0.884610 *  -2.87073    1.000000    
     90 O3    s    0.110230 *  0.824480 *  0.884610 *  -3.33043    1.000000    
     91 O2    s    0.389770 *  0.824480 *  0.884610 *  -2.87073    1.000000    
     92 O2    s    0.110230 *  0.175520 *  0.884610 *  -2.87073    1.000000    
     93 O3    s    0.610230 *  0.824480 *  0.115390 *  -3.33043    1.000000    
     94 O2    s    0.889770 *  0.175520 *  0.115390 *  -2.87073    1.000000    
     95 O3    s    0.500000 *  0.000000 *  0.000000 *  -3.33043    1.000000    
     96 O2    s    0.000000 *  0.000000 *  0.000000 *  -2.87073    1.000000    
     97 O2    s    0.151750 *  0.500000 *  0.313330 *  -2.87073    1.000000    
     98 O2    s    0.348250 *  0.500000 *  0.313330 *  -2.87073    1.000000    
     99 O2    s    0.848250 *  0.500000 *  0.686670 *  -2.87073    1.000000    
    100 O2    s    0.651750 *  0.500000 *  0.686670 *  -2.87073    1.000000    
    101 O2    s    0.250000 *  0.234950 *  0.285720 *  -2.87073    1.000000    
    102 O2    s    0.250000 *  0.765050 *  0.285720 *  -2.87073    1.000000    
    103 O2    s    0.750000 *  0.234950 *  0.714280 *  -2.87073    1.000000    
    104 O2    s    0.750000 *  0.765050 *  0.714280 *  -2.87073    1.000000    
    105 O2    s    0.131410 *  0.268650 *  0.127790 *  -2.87073    1.000000    
    106 O2    s    0.368590 *  0.731350 *  0.127790 *  -2.87073    1.000000    
    107 O2    s    0.868590 *  0.268650 *  0.872210 *  -2.87073    1.000000    
    108 O2    s    0.631410 *  0.731350 *  0.872210 *  -2.87073    1.000000    
    109 O2    s    0.868590 *  0.731350 *  0.872210 *  -2.87073    1.000000    
    110 O3    s    0.631410 *  0.268650 *  0.872210 *  -3.33043    1.000000    
    111 O3    s    0.131410 *  0.731350 *  0.127790 *  -3.33043    1.000000    
    112 O2    s    0.368590 *  0.268650 *  0.127790 *  -2.87073    1.000000    
    113 O3    s    0.653920 *  0.500000 *  0.058200 *  -3.33043    1.000000    
    114 O2    s    0.846080 *  0.500000 *  0.058200 *  -2.87073    1.000000    
    115 O2    s    0.346080 *  0.500000 *  0.941800 *  -2.87073    1.000000    
    116 O3    s    0.153920 *  0.500000 *  0.941800 *  -3.33043    1.000000    
    117 O3    s    0.750000 *  0.231060 *  0.027050 *  -3.33043    1.000000    
    118 O2    s    0.750000 *  0.768940 *  0.027050 *  -2.87073    1.000000    
    119 O2    s    0.250000 *  0.231060 *  0.972950 *  -2.87073    1.000000    
    120 O3    s    0.250000 *  0.768940 *  0.972950 *  -3.33043    1.000000    
--------------------------------------------------------------------------------



********************************************************************************
*  General input information                                                   *
********************************************************************************

  Species output for all configurations : 

--------------------------------------------------------------------------------
  Species    Type    Atomic    Atomic    Charge       Radii (Angs)     Library
                     Number     Mass       (e)     Cova   Ionic  VDW   Symbol
--------------------------------------------------------------------------------
    Ge       Core       32      72.61   4.000000   1.170  0.000  1.750 Ge       
    Si       Core       14      28.09   4.000000   1.200  0.000  2.100 Si       
    O1       Core        8      16.00   1.733957   0.730  0.000  1.360 O1       
    O2       Core        8      16.00   0.870733   0.730  0.000  1.360 O2       
    O3       Core        8      16.00   1.330431   0.730  0.000  1.360 O3       
    O1       Shell       8       0.00  -3.733957   0.730  0.000  0.000 O1       
    O2       Shell       8       0.00  -2.870733   0.730  0.000  0.000 O2       
    O3       Shell       8       0.00  -3.330431   0.730  0.000  0.000 O3       
--------------------------------------------------------------------------------


  Lattice summation method               =    Ewald          (3-D)
                                         =    Parry          (2-D)
                                         =    Saunders et al (1-D)
  Accuracy factor for lattice sums       =   12.000


  Analytic derivatives to be used

  Time limit = Infinity

  Maximum range for interatomic potentials =    100000.000000 Angstroms

  General interatomic potentials :

--------------------------------------------------------------------------------
Atom  Types   Potential      Parameter       Value         Units   Cutoffs(Ang)
  1     2                                                            Min /  Max 
--------------------------------------------------------------------------------
Si   c O1   s Buckingham    Buckingham A     1315.2478    eV        0.000 16.000
                            Buckingham rho  0.31775900    Ang       
                            Buckingham C     10.141118    eV*Ang^6  
--------------------------------------------------------------------------------
Si   c O2   s Buckingham    Buckingham A     1315.2478    eV        0.000 16.000
                            Buckingham rho  0.31775900    Ang       
                            Buckingham C     10.141118    eV*Ang^6  
--------------------------------------------------------------------------------
Si   c O3   s Buckingham    Buckingham A     1315.2478    eV        0.000 16.000
                            Buckingham rho  0.31775900    Ang       
                            Buckingham C     10.141118    eV*Ang^6  
--------------------------------------------------------------------------------
Ge   c O1   s Buckingham    Buckingham A     1497.3996    eV        0.000 16.000
                            Buckingham rho  0.32564600    Ang       
                            Buckingham C     16.808599    eV*Ang^6  
--------------------------------------------------------------------------------
Ge   c O2   s Buckingham    Buckingham A     1497.3996    eV        0.000 16.000
                            Buckingham rho  0.32564600    Ang       
                            Buckingham C     16.808599    eV*Ang^6  
--------------------------------------------------------------------------------
Ge   c O3   s Buckingham    Buckingham A     1497.3996    eV        0.000 16.000
                            Buckingham rho  0.32564600    Ang       
                            Buckingham C     16.808599    eV*Ang^6  
--------------------------------------------------------------------------------
O1   s O1   s Buckingham    Buckingham A     22764.000    eV        0.000 16.000
                            Buckingham rho  0.14900000    Ang       
                            Buckingham C     10.937044    eV*Ang^6  
--------------------------------------------------------------------------------
O1   s O2   s Buckingham    Buckingham A     22764.000    eV        0.000 16.000
                            Buckingham rho  0.14900000    Ang       
                            Buckingham C     10.937044    eV*Ang^6  
--------------------------------------------------------------------------------
O1   s O3   s Buckingham    Buckingham A     22764.000    eV        0.000 16.000
                            Buckingham rho  0.14900000    Ang       
                            Buckingham C     10.937044    eV*Ang^6  
--------------------------------------------------------------------------------
O2   s O2   s Buckingham    Buckingham A     22764.000    eV        0.000 16.000
                            Buckingham rho  0.14900000    Ang       
                            Buckingham C     10.937044    eV*Ang^6  
--------------------------------------------------------------------------------
O2   s O3   s Buckingham    Buckingham A     22764.000    eV        0.000 16.000
                            Buckingham rho  0.14900000    Ang       
                            Buckingham C     10.937044    eV*Ang^6  
--------------------------------------------------------------------------------
O3   s O3   s Buckingham    Buckingham A     22764.000    eV        0.000 16.000
                            Buckingham rho  0.14900000    Ang       
                            Buckingham C     10.937044    eV*Ang^6  
--------------------------------------------------------------------------------
O1   c O1   s Spring (c-s)  Spring k 2       180.31577    eV*Ang^-2 0.000  0.800
                            Spring k 4       0.0000000    eV*Ang^-4 
--------------------------------------------------------------------------------
O2   c O2   s Spring (c-s)  Spring k 2       75.969800    eV*Ang^-2 0.000  0.800
                            Spring k 4       0.0000000    eV*Ang^-4 
--------------------------------------------------------------------------------
O3   c O3   s Spring (c-s)  Spring k 2       128.14270    eV*Ang^-2 0.000  0.800
                            Spring k 4       0.0000000    eV*Ang^-4 
--------------------------------------------------------------------------------

  General Three-body potentials :

--------------------------------------------------------------------------------
  Atoms       Potential      Parameter       Value         Units   Cutoffs(Ang)
  1 / 2 / 3                                                          Min /  Max 
--------------------------------------------------------------------------------
Si    core    Harmonic      Three-body cnst  1.2614000    eV*rad^-2 0.000  1.900
O1    shel                  Three-body angl  109.47000    degrees   0.000  1.900
O1    shel                  Three-body k4    0.0000000    eV*rad^-4 0.000  3.500
                            Three-body k3    0.0000000    eV*rad^-3 
--------------------------------------------------------------------------------
Si    core    Harmonic      Three-body cnst  1.2614000    eV*rad^-2 0.000  1.900
O1    shel                  Three-body angl  109.47000    degrees   0.000  1.900
õ(1   shel                  Three-body k4    0.0000000    eV*rad^-4 0.000  3.500
                            Three-body k3    0.0000000    eV*rad^-3 
--------------------------------------------------------------------------------
Si    core    Harmonic      Three-body cnst  1.2614000    eV*rad^-2 0.000  1.900
õ(1   shel                  Three-body angl  109.47000    degrees   0.000  1.900
õ(1   shel                  Three-body k4    0.0000000    eV*rad^-4 0.000  3.500
                            Three-body k3    0.0000000    eV*rad^-3 
--------------------------------------------------------------------------------
Si    core    Harmonic      Three-body cnst  1.2614000    eV*rad^-2 0.000  1.900
O1    shel                  Three-body angl  109.47000    degrees   0.000  1.900
O2    shel                  Three-body k4    0.0000000    eV*rad^-4 0.000  3.500
                            Three-body k3    0.0000000    eV*rad^-3 
--------------------------------------------------------------------------------
Si    core    Harmonic      Three-body cnst  1.2614000    eV*rad^-2 0.000  1.900
O1    shel                  Three-body angl  109.47000    degrees   0.000  1.900
õ(2   shel                  Three-body k4    0.0000000    eV*rad^-4 0.000  3.500
                            Three-body k3    0.0000000    eV*rad^-3 
--------------------------------------------------------------------------------
Si    core    Harmonic      Three-body cnst  1.2614000    eV*rad^-2 0.000  1.900
O2    shel                  Three-body angl  109.47000    degrees   0.000  1.900
õ(1   shel                  Three-body k4    0.0000000    eV*rad^-4 0.000  3.500
                            Three-body k3    0.0000000    eV*rad^-3 
--------------------------------------------------------------------------------
Si    core    Harmonic      Three-body cnst  1.2614000    eV*rad^-2 0.000  1.900
õ(1   shel                  Three-body angl  109.47000    degrees   0.000  1.900
õ(2   shel                  Three-body k4    0.0000000    eV*rad^-4 0.000  3.500
                            Three-body k3    0.0000000    eV*rad^-3 
--------------------------------------------------------------------------------
Si    core    Harmonic      Three-body cnst  1.2614000    eV*rad^-2 0.000  1.900
O2    shel                  Three-body angl  109.47000    degrees   0.000  1.900
O2    shel                  Three-body k4    0.0000000    eV*rad^-4 0.000  3.500
                            Three-body k3    0.0000000    eV*rad^-3 
--------------------------------------------------------------------------------
Si    core    Harmonic      Three-body cnst  1.2614000    eV*rad^-2 0.000  1.900
O2    shel                  Three-body angl  109.47000    degrees   0.000  1.900
õ(2   shel                  Three-body k4    0.0000000    eV*rad^-4 0.000  3.500
                            Three-body k3    0.0000000    eV*rad^-3 
--------------------------------------------------------------------------------
Si    core    Harmonic      Three-body cnst  1.2614000    eV*rad^-2 0.000  1.900
õ(2   shel                  Three-body angl  109.47000    degrees   0.000  1.900
õ(2   shel                  Three-body k4    0.0000000    eV*rad^-4 0.000  3.500
                            Three-body k3    0.0000000    eV*rad^-3 
--------------------------------------------------------------------------------

********************************************************************************
*  Output for configuration   1 : c00185.vasp                                  *
********************************************************************************


  Components of energy : 

--------------------------------------------------------------------------------
  Interatomic potentials     =         760.37579294 eV    
  Three-body potentials      =           0.01354156 eV    
  Monopole - monopole (real) =       -2676.00317478 eV    
  Monopole - monopole (recip)=       -1115.35404472 eV    
  Monopole - monopole (total)=       -3791.35721950 eV    
--------------------------------------------------------------------------------
  Total lattice energy       =       -3030.96788500 eV    
--------------------------------------------------------------------------------
  Total lattice energy       =         -292442.0683 kJ/(mole unit cells)
--------------------------------------------------------------------------------


  Number of variables =      363

  Maximum number of calculations  =          1000
  Maximum Hessian update interval =            10
  Maximum step size               =   0.100000000
  Maximum parameter tolerance     =   0.000010000
  Maximum function  tolerance     =   0.000010000
  Maximum gradient  tolerance     =   0.001000000
  Maximum gradient  component     =   0.010000000

  Symmetry not applied to optimisation

  Cell parameters to be optimised using strains

  Newton-Raphson optimiser to be used

  BFGS hessian update to be used

  Lower half triangular hessian to be used

  Minimiser to switch to RFO
  When gradient norm is less than     0.050000

  Dumpfile to be written after every cycle

  Start of bulk optimisation :

  Cycle:      0 Energy:     -3030.967885  Gnorm:      4.409755  CPU:    0.114
  ** Hessian calculated **
  Cycle:      1 Energy:     -3061.726297  Gnorm:      0.963179  CPU:    0.245
  ** Hessian calculated **
  Cycle:      2 Energy:     -3064.246980  Gnorm:      0.541577  CPU:    0.448
  Cycle:      3 Energy:     -3065.047287  Gnorm:      0.345128  CPU:    0.552
  Cycle:      4 Energy:     -3065.660947  Gnorm:      0.264047  CPU:    0.676
  Cycle:      5 Energy:     -3066.209961  Gnorm:      0.204151  CPU:    0.801
  Cycle:      6 Energy:     -3066.627925  Gnorm:      0.167472  CPU:    0.926
  Cycle:      7 Energy:     -3066.812033  Gnorm:      0.116831  CPU:    1.033
  Cycle:      8 Energy:     -3066.911453  Gnorm:      0.086373  CPU:    1.145
  Cycle:      9 Energy:     -3066.955674  Gnorm:      0.061900  CPU:    1.257
  Cycle:     10 Energy:     -3066.990306  Gnorm:      0.053556  CPU:    1.393
  Cycle:     11 Energy:     -3067.020524  Gnorm:      0.052445  CPU:    1.532
  ** Hessian calculated **
  Cycle:     12 Energy:     -3067.031960  Gnorm:      0.051856  CPU:    1.779
  Cycle:     13 Energy:     -3067.049431  Gnorm:      0.050942  CPU:    1.939
  Cycle:     14 Energy:     -3067.065377  Gnorm:      0.050047  CPU:    2.098
  ** Hessian calculated **
  Cycle:     15 Energy:     -3067.088020  Gnorm:      0.049009  CPU:    2.343
  ** Hessian has wrong structure
  ** Imaginary eigenvectors =   3
  Cycle:     16 Energy:     -3067.113085  Gnorm:      0.138040  CPU:    2.680
  ** Hessian has wrong structure
  ** Imaginary eigenvectors =   3
  ** Hessian has wrong structure
  ** Imaginary eigenvectors =   3
  Cycle:     17 Energy:     -3067.194481  Gnorm:      0.141887  CPU:    3.328
  ** Hessian has wrong structure
  ** Imaginary eigenvectors =   2
  ** Hessian has wrong structure
  ** Imaginary eigenvectors =   1
  Cycle:     18 Energy:     -3067.210146  Gnorm:      0.144302  CPU:    3.831
  ** Hessian has wrong structure
  ** Imaginary eigenvectors =   1
  ** Hessian has required structure
  Cycle:     19 Energy:     -3067.618180  Gnorm:      0.075173  CPU:    4.454
  ** Hessian has required structure
  Cycle:     20 Energy:     -3067.749798  Gnorm:      0.041460  CPU:    4.673
  ** Hessian has required structure
  Cycle:     21 Energy:     -3067.810322  Gnorm:      0.026178  CPU:    4.894
  ** Hessian has required structure
  Cycle:     22 Energy:     -3067.846213  Gnorm:      0.021947  CPU:    5.112
  ** Hessian has required structure
  Cycle:     23 Energy:     -3067.870748  Gnorm:      0.027498  CPU:    5.304
  ** Hessian has required structure
  Cycle:     24 Energy:     -3067.894647  Gnorm:      0.023329  CPU:    5.502
  ** Hessian has required structure
  Cycle:     25 Energy:     -3067.913920  Gnorm:      0.031997  CPU:    5.718
  ** Hessian has required structure
  Cycle:     26 Energy:     -3067.940238  Gnorm:      0.034273  CPU:    5.912
  ** Hessian has required structure
  Cycle:     27 Energy:     -3067.965516  Gnorm:      0.035022  CPU:    6.107
  ** Hessian has required structure
  Cycle:     28 Energy:     -3067.984548  Gnorm:      0.027672  CPU:    6.286
  ** Hessian has required structure
  Cycle:     29 Energy:     -3068.008654  Gnorm:      0.016242  CPU:    6.559
  ** Hessian has required structure
  Cycle:     30 Energy:     -3068.017165  Gnorm:      0.008935  CPU:    6.740
  ** Hessian has required structure
  Cycle:     31 Energy:     -3068.020094  Gnorm:      0.005667  CPU:    6.913
  ** Hessian has required structure
  Cycle:     32 Energy:     -3068.021137  Gnorm:      0.002377  CPU:    7.081
  ** Hessian has required structure
  Cycle:     33 Energy:     -3068.021339  Gnorm:      0.001425  CPU:    7.250
  ** Hessian has required structure
  Cycle:     34 Energy:     -3068.021405  Gnorm:      0.000866  CPU:    7.420
  ** Hessian has required structure
  Cycle:     35 Energy:     -3068.021433  Gnorm:      0.000447  CPU:    7.610
  ** Hessian has required structure
  Cycle:     36 Energy:     -3068.021443  Gnorm:      0.000231  CPU:    7.800
  ** Hessian has required structure
  Cycle:     37 Energy:     -3068.021444  Gnorm:      0.000165  CPU:    7.952
  ** Hessian has required structure
  Cycle:     38 Energy:     -3068.021445  Gnorm:      0.000117  CPU:    8.109
  ** Hessian has required structure


  **** Optimisation achieved ****


  Final energy =   -3068.02144560 eV      
  Final Gnorm  =       0.00008203

  Components of energy : 

--------------------------------------------------------------------------------
  Interatomic potentials     =         816.98851101 eV    
  Three-body potentials      =           0.24327660 eV    
  Monopole - monopole (real) =       -2204.07475977 eV    
  Monopole - monopole (recip)=       -1681.17847344 eV    
  Monopole - monopole (total)=       -3885.25323321 eV    
--------------------------------------------------------------------------------
  Total lattice energy       =       -3068.02144560 eV    
--------------------------------------------------------------------------------
  Total lattice energy       =         -296017.1705 kJ/(mole unit cells)
--------------------------------------------------------------------------------

  Final fractional coordinates of atoms :

--------------------------------------------------------------------------------
   No.  Atomic        x           y          z          Radius
        Label       (Frac)      (Frac)     (Frac)       (Angs) 
--------------------------------------------------------------------------------
     1  Ge    c     0.556730    0.000000    0.122130    0.000000
     2  Ge    c     0.674511    0.282406    0.025203    0.000000
     3  Ge    c     0.167406    0.730851    0.967774    0.000000
     4  Si    c     0.043784    0.014060    0.363290    0.000000
     5  Si    c     0.441461    0.001137    0.371857    0.000000
     6  Si    c     0.943318    0.024718    0.620961    0.000000
     7  Si    c     0.543122    0.004661    0.628351    0.000000
     8  Si    c     0.948777    0.012841    0.102396    0.000000
     9  Si    c     0.446023    0.015230    0.882053    0.000000
    10  Si    c     0.057835    0.012563    0.865309    0.000000
    11  Si    c     0.147812    0.318748    0.272485    0.000000
    12  Si    c     0.338440    0.693584    0.290658    0.000000
    13  Si    c     0.839872    0.331427    0.702229    0.000000
    14  Si    c     0.648231    0.701579    0.723077    0.000000
    15  Si    c     0.828797    0.731864    0.707252    0.000000
    16  Si    c     0.661228    0.293034    0.718362    0.000000
    17  Si    c     0.158740    0.725232    0.276301    0.000000
    18  Si    c     0.329369    0.292748    0.285710    0.000000
    19  Si    c     0.834773    0.726720    0.010319    0.000000
    20  Si    c     0.333764    0.299389    0.982950    0.000000
    21  Si    c     0.350849    0.696978    0.985298    0.000000
    22  Si    c     0.150181    0.325942    0.972279    0.000000
    23  Si    c     0.652059    0.685878    0.022428    0.000000
    24  Si    c     0.855955    0.333008    0.008163    0.000000
    25  O2    c     0.090083    0.199414    0.358110    0.000000
    26  O2    c     0.396194    0.814249    0.376459    0.000000
    27  O2    c     0.898725    0.211271    0.619648    0.000000
    28  O2    c     0.588092    0.818560    0.639678    0.000000
    29  O2    c     0.878614    0.869426    0.623111    0.000000
    30  O2    c     0.604307    0.166502    0.635245    0.000000
    31  O2    c     0.104769    0.852444    0.362221    0.000000
    32  O2    c     0.377613    0.158253    0.375386    0.000000
    33  O2    c     0.995346    0.005888    0.494517    0.000000
    34  O2    c     0.502089    0.013816    0.489264    0.000000
    35  O2    c     0.982484    0.997635    0.245962    0.000000
    36  O3    c     0.489686    0.021196    0.241171    0.000000
    37  O2    c     0.000310    0.011243    0.744123    0.000000
    38  O2    c     0.474683    0.018484    0.734338    0.000000
    39  O1    c     0.634222    0.142294    0.133624    0.000000
    40  O2    c     0.875345    0.878851    0.094326    0.000000
    41  O2    c     0.375155    0.154631    0.894683    0.000000
    42  O3    c     0.125246    0.868941    0.855738    0.000000
    43  O2    c     0.417357    0.818327    0.920472    0.000000
    44  O2    c     0.097840    0.204115    0.878920    0.000000
    45  O3    c     0.596122    0.791990    0.116580    0.000000
    46  O2    c     0.922840    0.213149    0.073741    0.000000
    47  O3    c     0.515441    0.070072    0.976688    0.000000
    48  O2    c     0.012586    0.954346    0.996742    0.000000
    49  O2    c     0.128731    0.524261    0.291490    0.000000
    50  O2    c     0.358227    0.490148    0.318546    0.000000
    51  O2    c     0.858316    0.535820    0.673332    0.000000
    52  O2    c     0.630655    0.494105    0.706744    0.000000
    53  O2    c     0.236910    0.276587    0.315823    0.000000
    54  O2    c     0.248596    0.735856    0.327498    0.000000
    55  O2    c     0.750150    0.286122    0.662514    0.000000
    56  O2    c     0.736273    0.746612    0.674567    0.000000
    57  O2    c     0.135022    0.268665    0.121610    0.000000
    58  O2    c     0.351632    0.736315    0.139258    0.000000
    59  O2    c     0.852298    0.292582    0.854455    0.000000
    60  O2    c     0.637921    0.753253    0.874077    0.000000
    61  O2    c     0.841241    0.776097    0.858702    0.000000
    62  O3    c     0.663314    0.222776    0.864064    0.000000
    63  O3    c     0.155863    0.788835    0.128429    0.000000
    64  O2    c     0.343688    0.248152    0.134393    0.000000
    65  O3    c     0.630780    0.485151    0.039743    0.000000
    66  O2    c     0.876737    0.538495    0.033619    0.000000
    67  O2    c     0.371605    0.492116    0.959422    0.000000
    68  O3    c     0.127267    0.524349    0.947070    0.000000
    69  O3    c     0.772542    0.289918    0.068002    0.000000
    70  O2    c     0.744540    0.714822    0.054351    0.000000
    71  O2    c     0.242592    0.302757    0.942841    0.000000
    72  O3    c     0.265850    0.737199    0.928815    0.000000
    73  O2    s     0.091562    0.192910    0.349157    0.000000
    74  O2    s     0.394649    0.820801    0.366590    0.000000
    75  O2    s     0.897052    0.204452    0.628827    0.000000
    76  O2    s     0.589970    0.825350    0.647671    0.000000
    77  O2    s     0.879999    0.870791    0.632297    0.000000
    78  O2    s     0.603940    0.162869    0.643586    0.000000
    79  O2    s     0.104144    0.855857    0.352909    0.000000
    80  O2    s     0.378981    0.156577    0.365141    0.000000
    81  O2    s     0.994886    0.009100    0.494067    0.000000
    82  O2    s     0.499746    0.011242    0.491632    0.000000
    83  O2    s     0.985517    0.001294    0.242449    0.000000
    84  O3    s     0.490809    0.017042    0.244027    0.000000
    85  O2    s     0.000665    0.012899    0.744540    0.000000
    86  O2    s     0.479028    0.016569    0.739199    0.000000
    87  O1    s     0.631450    0.142674    0.123932    0.000000
    88  O2    s     0.878679    0.876293    0.085716    0.000000
    89  O2    s     0.378017    0.156004    0.903308    0.000000
    90  O3    s     0.121842    0.872090    0.865986    0.000000
    91  O2    s     0.413069    0.825345    0.923698    0.000000
    92  O2    s     0.099335    0.197164    0.887802    0.000000
    93  O3    s     0.598675    0.798042    0.107347    0.000000
    94  O2    s     0.918336    0.205040    0.069568    0.000000
    95  O3    s     0.511491    0.059089    0.978181    0.000000
    96  O2    s     0.010375    0.966463    0.994697    0.000000
    97  O2    s     0.133959    0.523281    0.287841    0.000000
    98  O2    s     0.353030    0.491047    0.312051    0.000000
    99  O2    s     0.853214    0.534781    0.679999    0.000000
   100  O2    s     0.635714    0.495295    0.709696    0.000000
   101  O2    s     0.237361    0.282934    0.307891    0.000000
   102  O2    s     0.248762    0.730119    0.318170    0.000000
   103  O2    s     0.750443    0.291700    0.672432    0.000000
   104  O2    s     0.736896    0.740229    0.683164    0.000000
   105  O2    s     0.137924    0.279720    0.122047    0.000000
   106  O2    s     0.350150    0.727580    0.139258    0.000000
   107  O2    s     0.851348    0.301050    0.854301    0.000000
   108  O2    s     0.640397    0.741289    0.873210    0.000000
   109  O2    s     0.839204    0.766078    0.858670    0.000000
   110  O3    s     0.663996    0.234559    0.862203    0.000000
   111  O3    s     0.157084    0.777851    0.130139    0.000000
   112  O2    s     0.341138    0.258188    0.134396    0.000000
   113  O3    s     0.636599    0.489822    0.036732    0.000000
   114  O2    s     0.870297    0.536913    0.028582    0.000000
   115  O2    s     0.365546    0.493087    0.964560    0.000000
   116  O3    s     0.132937    0.520331    0.951388    0.000000
   117  O3    s     0.773305    0.293845    0.058227    0.000000
   118  O2    s     0.744761    0.713083    0.046189    0.000000
   119  O2    s     0.242754    0.304938    0.950462    0.000000
   120  O3    s     0.266655    0.732502    0.937854    0.000000
--------------------------------------------------------------------------------

  Final Cartesian lattice vectors (Angstroms) :

       17.012722   -0.033151   -0.041488
       -0.014678    7.612418    0.004735
       -0.025041    0.006387   10.294375


  Final cell parameters and derivatives :

--------------------------------------------------------------------------------
       a           17.012804 Angstrom     dE/de1(xx)     0.008758 eV/strain
       b            7.612434 Angstrom     dE/de2(yy)     0.007949 eV/strain
       c           10.294408 Angstrom     dE/de3(zz)     0.009550 eV/strain
       alpha       89.928548 Degrees      dE/de4(yz)     0.000791 eV/strain
       beta        90.279162 Degrees      dE/de5(xz)    -0.000642 eV/strain
       gamma       90.222211 Degrees      dE/de6(xy)    -0.000243 eV/strain
--------------------------------------------------------------------------------

  Primitive cell volume =          1333.190073 Angs**3

  Density of cell =      1.962651 g/cm**3

  Non-primitive cell volume =          1333.190073 Angs**3


  Final internal derivatives :

--------------------------------------------------------------------------------
   No.  Atomic          a             b             c           Radius
        Label          (eV)          (eV)          (eV)        (eV/Angs)
--------------------------------------------------------------------------------
      1 Ge    c       0.000000      0.000000      0.000000      0.000000
      2 Ge    c      -0.005416     -0.002895     -0.000440      0.000000
      3 Ge    c      -0.001676      0.001383     -0.000639      0.000000
      4 Si    c       0.000329      0.000005     -0.000045      0.000000
      5 Si    c      -0.005531     -0.000085      0.001616      0.000000
      6 Si    c      -0.002854     -0.000033      0.001146      0.000000
      7 Si    c       0.000132     -0.000103      0.000432      0.000000
      8 Si    c       0.001205      0.000720      0.000601      0.000000
      9 Si    c      -0.000109     -0.000478     -0.000650      0.000000
     10 Si    c       0.001504      0.000223      0.002337      0.000000
     11 Si    c       0.000895     -0.000506      0.000279      0.000000
     12 Si    c       0.000101     -0.000665      0.000910      0.000000
     13 Si    c      -0.000150      0.000551     -0.000698      0.000000
     14 Si    c       0.000812      0.000590      0.000037      0.000000
     15 Si    c      -0.001591      0.000202     -0.000589      0.000000
     16 Si    c       0.001064      0.000238     -0.001569      0.000000
     17 Si    c       0.000368     -0.000013      0.001304      0.000000
     18 Si    c       0.000035     -0.000227      0.000318      0.000000
     19 Si    c       0.003021      0.000133     -0.000952      0.000000
     20 Si    c       0.001134      0.000105      0.000473      0.000000
     21 Si    c       0.001576      0.000297     -0.001597      0.000000
     22 Si    c      -0.001201     -0.000346     -0.000308      0.000000
     23 Si    c      -0.001310      0.001973     -0.000576      0.000000
     24 Si    c       0.005922     -0.000544      0.000221      0.000000
     25 O2    c      -0.000008      0.000194     -0.000246      0.000000
     26 O2    c      -0.000197     -0.000571      0.000778      0.000000
     27 O2    c       0.000041      0.000365     -0.000194      0.000000
     28 O2    c       0.000045     -0.000455      0.000232      0.000000
     29 O2    c       0.000531      0.000025      0.000179      0.000000
     30 O2    c       0.000083      0.000118     -0.000062      0.000000
     31 O2    c       0.000437     -0.000228      0.000052      0.000000
     32 O2    c      -0.000752      0.000471     -0.000287      0.000000
     33 O2    c       0.003845     -0.000380     -0.002517      0.000000
     34 O2    c       0.005154      0.000147      0.001791      0.000000
     35 O2    c      -0.001157     -0.000127     -0.001343      0.000000
     36 O3    c      -0.004601      0.000974     -0.001113      0.000000
     37 O2    c      -0.002606      0.000047     -0.001741      0.000000
     38 O2    c      -0.002132      0.000069      0.000511      0.000000
     39 O1    c      -0.000481      0.000951     -0.000064      0.000000
     40 O2    c      -0.000870      0.000113      0.000198      0.000000
     41 O2    c      -0.001254      0.000366     -0.000046      0.000000
     42 O3    c       0.001880     -0.001008     -0.000108      0.000000
     43 O2    c      -0.001226     -0.000270      0.000531      0.000000
     44 O2    c       0.000113      0.000303      0.000278      0.000000
     45 O3    c      -0.000269     -0.000151     -0.000542      0.000000
     46 O2    c       0.000874     -0.000344     -0.000750      0.000000
     47 O3    c       0.003738      0.000692      0.003219      0.000000
     48 O2    c       0.000212      0.000190     -0.000704      0.000000
     49 O2    c      -0.000735      0.000453      0.000524      0.000000
     50 O2    c       0.000384      0.000708      0.000201      0.000000
     51 O2    c       0.001469     -0.001319     -0.000864      0.000000
     52 O2    c      -0.000653     -0.000685     -0.000632      0.000000
     53 O2    c      -0.000426      0.000190     -0.000089      0.000000
     54 O2    c      -0.000919      0.000064      0.000385      0.000000
     55 O2    c      -0.001221     -0.000014     -0.000338      0.000000
     56 O2    c      -0.000180     -0.000193      0.000109      0.000000
     57 O2    c      -0.000973     -0.000383      0.000341      0.000000
     58 O2    c       0.001508      0.000169      0.000144      0.000000
     59 O2    c       0.001057     -0.000589     -0.001763      0.000000
     60 O2    c      -0.000582      0.000462     -0.000505      0.000000
     61 O2    c       0.000778      0.000466      0.001117      0.000000
     62 O3    c      -0.003067     -0.000494      0.000538      0.000000
     63 O3    c      -0.003228      0.000421     -0.000308      0.000000
     64 O2    c       0.000810     -0.000156     -0.000355      0.000000
     65 O3    c      -0.007771      0.003068      0.003631      0.000000
     66 O2    c       0.002435      0.001409      0.001713      0.000000
     67 O2    c       0.000511     -0.000511     -0.000293      0.000000
     68 O3    c      -0.002651     -0.001952     -0.001385      0.000000
     69 O3    c       0.003898     -0.003361      0.003545      0.000000
     70 O2    c      -0.002814      0.000684      0.001167      0.000000
     71 O2    c      -0.000945     -0.000267     -0.000331      0.000000
     72 O3    c       0.002638      0.000781     -0.000021      0.000000
     73 O2    s       0.000107     -0.000382      0.000113      0.000000
     74 O2    s      -0.002588     -0.000461      0.000074      0.000000
     75 O2    s      -0.001159     -0.000031     -0.000266      0.000000
     76 O2    s       0.000784      0.000585     -0.000121      0.000000
     77 O2    s      -0.001603      0.000569     -0.000362      0.000000
     78 O2    s       0.000432     -0.000306     -0.000367      0.000000
     79 O2    s       0.000258      0.000284      0.000256      0.000000
     80 O2    s      -0.002363      0.000141      0.000530      0.000000
     81 O2    s      -0.001301      0.000058     -0.000038      0.000000
     82 O2    s       0.000057      0.000441      0.000946      0.000000
     83 O2    s      -0.000357      0.000354      0.000241      0.000000
     84 O3    s       0.001863     -0.000691     -0.001004      0.000000
     85 O2    s       0.000593      0.000016      0.000778      0.000000
     86 O2    s       0.000477     -0.000068      0.000056      0.000000
     87 O1    s       0.001746     -0.001582      0.000801      0.000000
     88 O2    s       0.001359      0.001169     -0.000656      0.000000
     89 O2    s      -0.000344     -0.000456      0.000181      0.000000
     90 O3    s      -0.000397      0.000554      0.000147      0.000000
     91 O2    s       0.000456      0.000129      0.000236      0.000000
     92 O2    s       0.001002     -0.000192      0.000325      0.000000
     93 O3    s       0.000176      0.001083      0.000225      0.000000
     94 O2    s       0.001910     -0.001161      0.000363      0.000000
     95 O3    s      -0.001039     -0.000294     -0.002687      0.000000
     96 O2    s      -0.001269     -0.000486      0.001152      0.000000
     97 O2    s      -0.001128     -0.000047      0.000388      0.000000
     98 O2    s       0.000827     -0.000160      0.000514      0.000000
     99 O2    s       0.001549      0.000163     -0.001258      0.000000
    100 O2    s      -0.002163      0.000072     -0.000252      0.000000
    101 O2    s      -0.000286     -0.000613      0.000955      0.000000
    102 O2    s      -0.000034      0.000282      0.001051      0.000000
    103 O2    s       0.000147     -0.000703     -0.001713      0.000000
    104 O2    s      -0.001229      0.001197     -0.001654      0.000000
    105 O2    s       0.000397     -0.000150      0.000113      0.000000
    106 O2    s       0.001470      0.000333     -0.000456      0.000000
    107 O2    s       0.002853     -0.000445     -0.001103      0.000000
    108 O2    s      -0.000505      0.000737     -0.000553      0.000000
    109 O2    s       0.002162      0.000470     -0.000328      0.000000
    110 O3    s       0.000080     -0.001596     -0.001834      0.000000
    111 O3    s       0.001363      0.000601      0.000187      0.000000
    112 O2    s       0.000023     -0.000066     -0.000154      0.000000
    113 O3    s      -0.000664     -0.001473      0.000070      0.000000
    114 O2    s       0.002964      0.000533      0.000963      0.000000
    115 O2    s       0.001632      0.000262     -0.000255      0.000000
    116 O3    s      -0.000271      0.001013     -0.000171      0.000000
    117 O3    s      -0.001869     -0.000426      0.001880      0.000000
    118 O2    s       0.001793      0.000914      0.002344      0.000000
    119 O2    s       0.000317     -0.000399     -0.001370      0.000000
    120 O3    s      -0.000410      0.000243     -0.001257      0.000000
--------------------------------------------------------------------------------
  Maximum abs         0.007771      0.003361      0.003631      0.000000
--------------------------------------------------------------------------------


  Born effective charge tensors : 

-------------------------------------------------------------------------------
  Atom             x           y             z
-------------------------------------------------------------------------------
    1 Ge    x       4.3990     -0.2112     -0.1437
            y       0.2220      3.8811      0.0612
            z      -0.7842      0.0642      3.7147
-------------------------------------------------------------------------------
    2 Ge    x       4.0178      0.4639     -0.2188
            y       0.1092      4.1568     -0.3853
            z      -0.2225     -0.1514      3.4471
-------------------------------------------------------------------------------
    3 Ge    x       3.9881     -0.4002      0.2348
            y      -0.1048      4.1710     -0.3163
            z       0.1867     -0.0871      3.3782
-------------------------------------------------------------------------------
    4 Si    x       3.4204      0.0816     -0.2271
            y      -0.0847      3.2378     -0.0082
            z      -0.4497     -0.0290      3.8256
-------------------------------------------------------------------------------
    5 Si    x       3.5927      0.1157     -0.0313
            y      -0.0946      3.2840     -0.0027
            z       0.4997     -0.0111      4.0230
-------------------------------------------------------------------------------
    6 Si    x       3.4578     -0.1122     -0.1622
            y       0.1050      3.2402      0.0109
            z      -0.5313      0.0689      3.7833
-------------------------------------------------------------------------------
    7 Si    x       3.4790     -0.0959      0.2998
            y       0.0729      3.2551     -0.0137
            z       0.3413     -0.0457      3.7625
-------------------------------------------------------------------------------
    8 Si    x       3.3897     -0.1497      0.3147
            y       0.2673      3.2402     -0.0525
            z       0.4259     -0.0219      3.1421
-------------------------------------------------------------------------------
    9 Si    x       3.7056      0.1890     -0.2473
            y      -0.1815      3.3182     -0.0082
            z      -0.2913      0.0511      3.3187
-------------------------------------------------------------------------------
   10 Si    x       3.6810     -0.0404      0.1426
            y      -0.3215      3.4035      0.0651
            z       0.6074     -0.0167      3.1316
-------------------------------------------------------------------------------
   11 Si    x       3.2073      0.2415     -0.0425
            y       0.2599      3.4307     -0.1988
            z      -0.0900     -0.0525      2.8071
-------------------------------------------------------------------------------
   12 Si    x       3.1558      0.2452      0.0578
            y       0.2445      3.4217      0.1772
            z       0.1278      0.0883      2.8140
-------------------------------------------------------------------------------
   13 Si    x       3.1779     -0.2566     -0.0443
            y      -0.2800      3.4465      0.1824
            z      -0.1264      0.0895      2.8045
-------------------------------------------------------------------------------
   14 Si    x       3.2485     -0.2461      0.0440
            y      -0.2800      3.4493     -0.2268
            z       0.1132     -0.0504      2.7751
-------------------------------------------------------------------------------
   15 Si    x       3.2071      0.3265     -0.1194
            y       0.1765      3.4576     -0.1460
            z      -0.1200     -0.0741      2.8064
-------------------------------------------------------------------------------
   16 Si    x       3.3242      0.3431      0.0821
            y       0.2144      3.5984      0.1011
            z       0.1807     -0.0666      3.0473
-------------------------------------------------------------------------------
   17 Si    x       3.2671     -0.3393     -0.0579
            y      -0.2136      3.5787      0.1002
            z      -0.1246     -0.0475      3.0932
-------------------------------------------------------------------------------
   18 Si    x       3.1832     -0.3100      0.1417
            y      -0.1654      3.4438     -0.1646
            z       0.1137     -0.0734      2.8251
-------------------------------------------------------------------------------
   19 Si    x       3.1859      0.3787      0.1515
            y       0.0694      3.4347      0.1665
            z       0.1235      0.0791      2.7381
-------------------------------------------------------------------------------
   20 Si    x       3.2045     -0.3380     -0.1753
            y      -0.0626      3.4237      0.1829
            z      -0.1203      0.0823      2.7803
-------------------------------------------------------------------------------
   21 Si    x       3.6010      0.2092      0.0455
            y       0.2309      3.5073     -0.1695
            z      -0.1396     -0.0948      2.8277
-------------------------------------------------------------------------------
   22 Si    x       3.3702      0.2025      0.1961
            y       0.1168      3.7267      0.1342
            z       0.1931     -0.0063      2.8081
-------------------------------------------------------------------------------
   23 Si    x       3.5963     -0.3331     -0.3435
            y      -0.2673      3.8117      0.3138
            z      -0.3524      0.0994      2.9700
-------------------------------------------------------------------------------
   24 Si    x       3.5514     -0.2157     -0.0435
            y      -0.2604      3.5093     -0.1775
            z       0.1474     -0.0942      2.8144
-------------------------------------------------------------------------------
   25 O2    x      -1.6520     -0.7112      0.3258
            y      -0.6667     -1.9858      0.3422
            z       0.3516      0.3248     -1.3655
-------------------------------------------------------------------------------
   26 O2    x      -1.6190     -0.6868     -0.2971
            y      -0.6398     -1.9978     -0.3292
            z      -0.3775     -0.3272     -1.3587
-------------------------------------------------------------------------------
   27 O2    x      -1.6448      0.7121      0.2903
            y       0.6774     -2.0143     -0.3113
            z       0.3619     -0.3173     -1.3413
-------------------------------------------------------------------------------
   28 O2    x      -1.7006      0.7372     -0.3549
            y       0.6846     -2.0029      0.3587
            z      -0.3561      0.3324     -1.3483
-------------------------------------------------------------------------------
   29 O2    x      -1.7371     -0.7250      0.3038
            y      -0.7525     -1.9669      0.3378
            z       0.3688      0.3337     -1.3490
-------------------------------------------------------------------------------
   30 O2    x      -1.7987     -0.7522     -0.3277
            y      -0.7620     -1.9677     -0.3140
            z      -0.3678     -0.3121     -1.3220
-------------------------------------------------------------------------------
   31 O2    x      -1.7470      0.7322      0.3032
            y       0.7451     -1.9612     -0.3103
            z       0.3506     -0.3016     -1.3405
-------------------------------------------------------------------------------
   32 O2    x      -1.7026      0.7096     -0.3145
            y       0.7160     -1.9624      0.3562
            z      -0.3648      0.3300     -1.3697
-------------------------------------------------------------------------------
   33 O2    x      -1.6610      0.0285      0.8547
            y       0.0133     -1.0882     -0.0239
            z       1.0900     -0.0521     -2.7466
-------------------------------------------------------------------------------
   34 O2    x      -1.7099     -0.0101     -0.8422
            y      -0.0153     -1.0946     -0.0173
            z      -1.0579     -0.0128     -2.6541
-------------------------------------------------------------------------------
   35 O2    x      -1.6170      0.0122     -0.7156
            y      -0.0336     -1.1171      0.0080
            z      -0.6467      0.0136     -2.2997
-------------------------------------------------------------------------------
   36 O3    x      -2.1067      0.0268      0.9815
            y       0.0240     -1.2484     -0.0180
            z       0.9992     -0.0123     -2.7159
-------------------------------------------------------------------------------
   37 O2    x      -1.7625      0.0029     -0.7318
            y       0.0063     -1.1110     -0.0048
            z      -0.7535     -0.0037     -2.1869
-------------------------------------------------------------------------------
   38 O2    x      -1.6973      0.0111      0.6996
            y       0.0441     -1.1132     -0.0192
            z       0.6536     -0.0158     -2.2243
-------------------------------------------------------------------------------
   39 O1    x      -2.2999     -0.9496      0.3901
            y      -0.9465     -2.3450      0.5008
            z       0.4348      0.4336     -1.6333
-------------------------------------------------------------------------------
   40 O2    x      -1.7652     -0.7138     -0.3400
            y      -0.6833     -1.9170     -0.3471
            z      -0.3452     -0.3529     -1.2422
-------------------------------------------------------------------------------
   41 O2    x      -1.7476      0.7147      0.4104
            y       0.6613     -1.9256     -0.3996
            z       0.3648     -0.3786     -1.2870
-------------------------------------------------------------------------------
   42 O3    x      -2.1433      0.9411     -0.3494
            y       0.9284     -2.2684      0.4155
            z      -0.3596      0.3461     -1.4695
-------------------------------------------------------------------------------
   43 O2    x      -1.6724     -0.6692      0.3649
            y      -0.5446     -2.0594      0.4282
            z       0.3630      0.3950     -1.2639
-------------------------------------------------------------------------------
   44 O2    x      -1.6446     -0.6388     -0.3525
            y      -0.5837     -1.9370     -0.4016
            z      -0.3841     -0.3524     -1.3057
-------------------------------------------------------------------------------
   45 O3    x      -2.0094      0.8894      0.5377
            y       0.7886     -2.2708     -0.5399
            z       0.5803     -0.5087     -1.5665
-------------------------------------------------------------------------------
   46 O2    x      -1.6492      0.6747     -0.3298
            y       0.5466     -2.0670      0.3735
            z      -0.3488      0.3593     -1.2108
-------------------------------------------------------------------------------
   47 O3    x      -2.2014     -0.0911     -0.7698
            y      -0.0870     -1.3829     -0.0138
            z      -0.4454      0.0276     -2.0142
-------------------------------------------------------------------------------
   48 O2    x      -1.7484      0.0375      0.5378
            y       0.0247     -1.2480      0.0113
            z       0.2799      0.0407     -1.7017
-------------------------------------------------------------------------------
   49 O2    x      -1.1884     -0.0459      0.0312
            y      -0.0830     -2.5856     -0.0423
            z       0.0576     -0.0501     -1.0477
-------------------------------------------------------------------------------
   50 O2    x      -1.1635     -0.0451     -0.0661
            y      -0.0712     -2.5263     -0.0266
            z      -0.0843     -0.0133     -1.0741
-------------------------------------------------------------------------------
   51 O2    x      -1.1627      0.0520      0.0600
            y       0.0935     -2.5360     -0.0274
            z       0.0830     -0.0071     -1.0764
-------------------------------------------------------------------------------
   52 O2    x      -1.2047      0.0571     -0.0283
            y       0.1058     -2.6155     -0.0454
            z      -0.0583     -0.0570     -1.0377
-------------------------------------------------------------------------------
   53 O2    x      -2.4100      0.0870     -0.0592
            y       0.0263     -1.2410      0.0685
            z      -0.0288      0.0408     -1.0661
-------------------------------------------------------------------------------
   54 O2    x      -2.3749      0.0987     -0.0293
            y       0.0592     -1.2524     -0.0663
            z      -0.0266     -0.0388     -1.0824
-------------------------------------------------------------------------------
   55 O2    x      -2.3828     -0.1117      0.0382
            y      -0.0639     -1.2554     -0.0693
            z       0.0267     -0.0377     -1.0901
-------------------------------------------------------------------------------
   56 O2    x      -2.4187     -0.0956      0.0740
            y      -0.0347     -1.2443      0.0749
            z       0.0258      0.0426     -1.0720
-------------------------------------------------------------------------------
   57 O2    x      -1.2256     -0.1398     -0.0227
            y      -0.1200     -1.2761     -0.0237
            z      -0.0165     -0.0118     -2.0611
-------------------------------------------------------------------------------
   58 O2    x      -1.1924     -0.1105      0.1149
            y      -0.1056     -1.2834      0.0134
            z       0.1219     -0.0105     -2.1095
-------------------------------------------------------------------------------
   59 O2    x      -1.1933      0.1073     -0.1325
            y       0.1084     -1.2832     -0.0001
            z      -0.1458     -0.0213     -2.0978
-------------------------------------------------------------------------------
   60 O2    x      -1.2450      0.1470     -0.0024
            y       0.1241     -1.2987      0.0030
            z       0.0032      0.0153     -2.0310
-------------------------------------------------------------------------------
   61 O2    x      -1.1727     -0.1328     -0.0789
            y      -0.0757     -1.2808      0.0286
            z      -0.0483      0.0135     -2.0702
-------------------------------------------------------------------------------
   62 O3    x      -1.3383     -0.1423     -0.0527
            y      -0.0774     -1.4968      0.0909
            z      -0.0847      0.1185     -2.5523
-------------------------------------------------------------------------------
   63 O3    x      -1.3174      0.1536     -0.0064
            y       0.0968     -1.4859      0.0972
            z       0.0328      0.1005     -2.6038
-------------------------------------------------------------------------------
   64 O2    x      -1.1721      0.1293      0.0618
            y       0.0783     -1.2830      0.0266
            z       0.0406      0.0209     -2.0952
-------------------------------------------------------------------------------
   65 O3    x      -1.4280      0.0132      0.0886
            y       0.1056     -3.0496      0.0564
            z       0.1223      0.0351     -1.1367
-------------------------------------------------------------------------------
   66 O2    x      -1.2540      0.1099     -0.0769
            y       0.2019     -2.4738     -0.0312
            z      -0.1142      0.0028     -1.0291
-------------------------------------------------------------------------------
   67 O2    x      -1.2480     -0.0972      0.0796
            y      -0.1720     -2.5060     -0.0273
            z       0.1082      0.0012     -1.0381
-------------------------------------------------------------------------------
   68 O3    x      -1.4007      0.0332     -0.1126
            y      -0.0752     -3.1500      0.0770
            z      -0.1262      0.0640     -1.1367
-------------------------------------------------------------------------------
   69 O3    x      -2.9377     -0.1960      0.1654
            y      -0.1342     -1.3914      0.1092
            z       0.1600      0.0701     -1.2451
-------------------------------------------------------------------------------
   70 O2    x      -2.4454     -0.1153      0.0420
            y      -0.0709     -1.2400     -0.0541
            z       0.0405     -0.0168     -1.0786
-------------------------------------------------------------------------------
   71 O2    x      -2.4771      0.0582     -0.0431
            y       0.0230     -1.2275     -0.0537
            z      -0.0380     -0.0193     -1.0603
-------------------------------------------------------------------------------
   72 O3    x      -3.0204      0.1553     -0.1730
            y       0.1432     -1.3927      0.1138
            z      -0.1502      0.0691     -1.2285
-------------------------------------------------------------------------------




  Elastic Constant Matrix: (Units=GPa)

-------------------------------------------------------------------------------
  Indices      1         2         3         4         5         6    
-------------------------------------------------------------------------------
       1     57.4795   31.4373   32.4022    2.2774    0.8478    0.1917
       2     31.4373   81.6675   29.2377    2.8927    0.9903    0.3100
       3     32.4022   29.2377   34.3260    1.6950    0.6796   -0.2829
       4      2.2774    2.8927    1.6950   12.6621   -0.3536    0.3066
       5      0.8478    0.9903    0.6796   -0.3536   25.5184    0.7481
       6      0.1917    0.3100   -0.2829    0.3066    0.7481   26.0886
-------------------------------------------------------------------------------


  Elastic Compliance Matrix: (Units=1/GPa)

-------------------------------------------------------------------------------
  Indices      1         2         3         4         5         6    
-------------------------------------------------------------------------------
       1    0.037595 -0.002490 -0.033281 -0.001732 -0.000273 -0.000579
       2   -0.002490  0.017839 -0.012746 -0.001922 -0.000288 -0.000301
       3   -0.033281 -0.012746  0.071456 -0.000706 -0.000347  0.001189
       4   -0.001732 -0.001922 -0.000706  0.079880  0.001286 -0.000948
       5   -0.000273 -0.000288 -0.000347  0.001286  0.039268 -0.001139
       6   -0.000579 -0.000301  0.001189 -0.000948 -0.001139  0.038396
-------------------------------------------------------------------------------

  Mechanical properties :

-------------------------------------------------------------------------------
  Convention :                    Reuss         Voigt         Hill
-------------------------------------------------------------------------------
  Bulk  Modulus (GPa)     =      33.49374      39.95859      36.72617
  Shear Modulus (GPa)     =      12.77401      18.21354      15.49378
-------------------------------------------------------------------------------
  Velocity S-wave (km/s)  =       2.55119       3.04632       2.80968
  Velocity P-wave (km/s)  =       5.07382       5.72127       5.40724
-------------------------------------------------------------------------------
  Compressibility (1/GPa) =    0.02985632
-------------------------------------------------------------------------------
  Stress axis :                     x             y             z
-------------------------------------------------------------------------------
  Youngs Moduli (GPa)     =      26.59931      56.05599      13.99461
-------------------------------------------------------------------------------
  Poissons Ratio (x)      =                     0.13960       0.46575
  Poissons Ratio (y)      =       0.06624                     0.17838
  Poissons Ratio (z)      =       0.88524       0.71449
-------------------------------------------------------------------------------


  Piezoelectric Strain Matrix: (Units=C/m**2)

-------------------------------------------------------------------------------
  Indices      1         2         3         4         5         6    
-------------------------------------------------------------------------------
       x    -0.00991  -0.48274  -1.20739  -0.49100   0.02096  -0.00511
       y     0.35632   0.20381  -0.09624  -0.04745  -0.66704  -0.04369
       z     0.11245  -0.02874  -0.10192  -0.04726   0.01012  -0.07867
-------------------------------------------------------------------------------


  Piezoelectric Stress Matrix: (Units=10**-11 C/N)

-------------------------------------------------------------------------------
  Indices      1         2         3         4         5         6    
-------------------------------------------------------------------------------
       x     4.18598   0.77417  -7.94595  -3.73916   0.07588  -0.10396
       y     1.63808   0.42717  -2.11201  -0.55475  -2.63270  -0.12548
       z     0.78158   0.06180  -1.07228  -0.37549   0.04393  -0.31649
-------------------------------------------------------------------------------


  Static dielectric constant tensor : 

-------------------------------------------------------------------------------
              x         y         z
-------------------------------------------------------------------------------
       x     4.06086  -0.00399  -0.04152
       y    -0.00399   4.19401   0.05191
       z    -0.04152   0.05191   3.18598
--------------------------------------------------------------------------------

  High frequency dielectric constant tensor : 

-------------------------------------------------------------------------------
              x         y         z
-------------------------------------------------------------------------------
       x     1.68162  -0.00072   0.00102
       y    -0.00072   1.68951   0.00032
       z     0.00102   0.00032   1.62342
-------------------------------------------------------------------------------

  Static refractive indices : 

-------------------------------------------------------------------------------
    1 =    1.78364      2 =    2.01557      3 =    2.04865
-------------------------------------------------------------------------------

  High frequency refractive indices : 

-------------------------------------------------------------------------------
    1 =    1.27413      2 =    1.29676      3 =    1.29984
-------------------------------------------------------------------------------


  Time to end of optimisation =       8.5903 seconds


  Peak dynamic memory used =       5.01 MB 


  Timing analysis for GULP :

--------------------------------------------------------------------------------
  Task / Subroutine                                          Time (Seconds)
--------------------------------------------------------------------------------
  Calculation of reciprocal space energy and derivatives          0.5479
  Calculation of real space energy and derivatives                5.4941
  Calculation of three-body energy and derivatives                0.5423
  Calculation and manipulation of Hessian matrix                  2.5276
  Calculation of matrix inversion                                 0.0327
  Global summation overhead                                       0.0001
--------------------------------------------------------------------------------
  Total CPU time                                                  8.5903
--------------------------------------------------------------------------------


  Dump file written as c00185.vasp.grs
  CIF file written as c00185.vasp.cif


  Job Finished at 11:59.23  7th October    2025                               

