********************************************************************************
*                       GENERAL UTILITY LATTICE PROGRAM                        *
*                                 Julian Gale                                  *
*                       Curtin Institute for Computation                       *
*                    School of Molecular and Life Sciences                     *
*                    Curtin University, Western Australia                      *
********************************************************************************
* Version = 6.1.2 * Last modified =   3rd November 2022                        *
********************************************************************************
*  optimise     - perform optimisation run                                     *
*  conp         - constant pressure calculation                                *
*  property     - calculate properties for final geometry                      *
********************************************************************************

  Job Started  at 11:46.16  7th October    2025                               

  Number of CPUs =     1


  Total number of configurations input =      1

********************************************************************************
*  Input for Configuration =   1 : c00114.vasp                                 *
********************************************************************************

  Formula = Ge3Si21O48                                                  

  Number of irreducible atoms/shells =     120


  Total number atoms/shells =     120

  Dimensionality = 3               :  Bulk   



  Cartesian lattice vectors (Angstroms) :

       17.182800    0.000000    0.000000
        0.000000    7.513760    0.000000
        0.000000    0.000000   10.447700

  Cell parameters (Angstroms/Degrees):

  a =      17.1828    alpha =  90.0000
  b =       7.5138    beta  =  90.0000
  c =      10.4477    gamma =  90.0000

  Initial cell volume =        1348.875752 Angs**3

  Temperature of configuration =   0.00     K 

  Pressure of configuration =         0.000 GPa 

  Fractional coordinates of asymmetric unit :

--------------------------------------------------------------------------------
   No.  Atomic       x           y          z         Charge      Occupancy
        Label      (Frac)      (Frac)     (Frac)        (e)         (Frac)  
--------------------------------------------------------------------------------
      1 Ge    c    0.052090    0.000000    0.372270     4.00000    1.000000    
      2 Ge    c    0.839340 *  0.705910 *  0.017440 *   4.00000    1.000000    
      3 Ge    c    0.160660 *  0.705910 *  0.982560 *   4.00000    1.000000    
      4 Si    c    0.447910 *  0.000000 *  0.372270 *   4.00000    1.000000    
      5 Si    c    0.947910 *  0.000000 *  0.627730 *   4.00000    1.000000    
      6 Si    c    0.552090 *  0.000000 *  0.627730 *   4.00000    1.000000    
      7 Si    c    0.556730 *  0.000000 *  0.122130 *   4.00000    1.000000    
      8 Si    c    0.943270 *  0.000000 *  0.122130 *   4.00000    1.000000    
      9 Si    c    0.443270 *  0.000000 *  0.877870 *   4.00000    1.000000    
     10 Si    c    0.056730 *  0.000000 *  0.877870 *   4.00000    1.000000    
     11 Si    c    0.160190 *  0.293910 *  0.273440 *   4.00000    1.000000    
     12 Si    c    0.339810 *  0.706090 *  0.273440 *   4.00000    1.000000    
     13 Si    c    0.839810 *  0.293910 *  0.726560 *   4.00000    1.000000    
     14 Si    c    0.660190 *  0.706090 *  0.726560 *   4.00000    1.000000    
     15 Si    c    0.839810 *  0.706090 *  0.726560 *   4.00000    1.000000    
     16 Si    c    0.660190 *  0.293910 *  0.726560 *   4.00000    1.000000    
     17 Si    c    0.160190 *  0.706090 *  0.273440 *   4.00000    1.000000    
     18 Si    c    0.339810 *  0.293910 *  0.273440 *   4.00000    1.000000    
     19 Si    c    0.660660 *  0.294090 *  0.017440 *   4.00000    1.000000    
     20 Si    c    0.339340 *  0.294090 *  0.982560 *   4.00000    1.000000    
     21 Si    c    0.339340 *  0.705910 *  0.982560 *   4.00000    1.000000    
     22 Si    c    0.160660 *  0.294090 *  0.982560 *   4.00000    1.000000    
     23 Si    c    0.660660 *  0.705910 *  0.017440 *   4.00000    1.000000    
     24 Si    c    0.839340 *  0.294090 *  0.017440 *   4.00000    1.000000    
     25 O3    c    0.106570 *  0.174340 *  0.366200 *   1.33043    1.000000    
     26 O2    c    0.393430 *  0.825660 *  0.366200 *   0.87073    1.000000    
     27 O2    c    0.893430 *  0.174340 *  0.633800 *   0.87073    1.000000    
     28 O2    c    0.606570 *  0.825660 *  0.633800 *   0.87073    1.000000    
     29 O2    c    0.893430 *  0.825660 *  0.633800 *   0.87073    1.000000    
     30 O2    c    0.606570 *  0.174340 *  0.633800 *   0.87073    1.000000    
     31 O3    c    0.106570 *  0.825660 *  0.366200 *   1.33043    1.000000    
     32 O2    c    0.393430 *  0.174340 *  0.366200 *   0.87073    1.000000    
     33 O3    c    0.000000 *  0.000000 *  0.500000 *   1.33043    1.000000    
     34 O2    c    0.500000 *  0.000000 *  0.500000 *   0.87073    1.000000    
     35 O3    c    0.994520 *  0.000000 *  0.250840 *   1.33043    1.000000    
     36 O2    c    0.505480 *  0.000000 *  0.250840 *   0.87073    1.000000    
     37 O2    c    0.005480 *  0.000000 *  0.749160 *   0.87073    1.000000    
     38 O2    c    0.494520 *  0.000000 *  0.749160 *   0.87073    1.000000    
     39 O2    c    0.610230 *  0.175520 *  0.115390 *   0.87073    1.000000    
     40 O3    c    0.889770 *  0.824480 *  0.115390 *   1.33043    1.000000    
     41 O2    c    0.389770 *  0.175520 *  0.884610 *   0.87073    1.000000    
     42 O3    c    0.110230 *  0.824480 *  0.884610 *   1.33043    1.000000    
     43 O2    c    0.389770 *  0.824480 *  0.884610 *   0.87073    1.000000    
     44 O2    c    0.110230 *  0.175520 *  0.884610 *   0.87073    1.000000    
     45 O2    c    0.610230 *  0.824480 *  0.115390 *   0.87073    1.000000    
     46 O2    c    0.889770 *  0.175520 *  0.115390 *   0.87073    1.000000    
     47 O2    c    0.500000 *  0.000000 *  0.000000 *   0.87073    1.000000    
     48 O2    c    0.000000 *  0.000000 *  0.000000 *   0.87073    1.000000    
     49 O2    c    0.151750 *  0.500000 *  0.313330 *   0.87073    1.000000    
     50 O2    c    0.348250 *  0.500000 *  0.313330 *   0.87073    1.000000    
     51 O2    c    0.848250 *  0.500000 *  0.686670 *   0.87073    1.000000    
     52 O2    c    0.651750 *  0.500000 *  0.686670 *   0.87073    1.000000    
     53 O2    c    0.250000 *  0.234950 *  0.285720 *   0.87073    1.000000    
     54 O2    c    0.250000 *  0.765050 *  0.285720 *   0.87073    1.000000    
     55 O2    c    0.750000 *  0.234950 *  0.714280 *   0.87073    1.000000    
     56 O2    c    0.750000 *  0.765050 *  0.714280 *   0.87073    1.000000    
     57 O2    c    0.131410 *  0.268650 *  0.127790 *   0.87073    1.000000    
     58 O2    c    0.368590 *  0.731350 *  0.127790 *   0.87073    1.000000    
     59 O2    c    0.868590 *  0.268650 *  0.872210 *   0.87073    1.000000    
     60 O2    c    0.631410 *  0.731350 *  0.872210 *   0.87073    1.000000    
     61 O3    c    0.868590 *  0.731350 *  0.872210 *   1.33043    1.000000    
     62 O2    c    0.631410 *  0.268650 *  0.872210 *   0.87073    1.000000    
     63 O3    c    0.131410 *  0.731350 *  0.127790 *   1.33043    1.000000    
     64 O2    c    0.368590 *  0.268650 *  0.127790 *   0.87073    1.000000    
     65 O2    c    0.653920 *  0.500000 *  0.058200 *   0.87073    1.000000    
     66 O3    c    0.846080 *  0.500000 *  0.058200 *   1.33043    1.000000    
     67 O2    c    0.346080 *  0.500000 *  0.941800 *   0.87073    1.000000    
     68 O3    c    0.153920 *  0.500000 *  0.941800 *   1.33043    1.000000    
     69 O2    c    0.750000 *  0.231060 *  0.027050 *   0.87073    1.000000    
     70 O3    c    0.750000 *  0.768940 *  0.027050 *   1.33043    1.000000    
     71 O2    c    0.250000 *  0.231060 *  0.972950 *   0.87073    1.000000    
     72 O3    c    0.250000 *  0.768940 *  0.972950 *   1.33043    1.000000    
     73 O3    s    0.106570 *  0.174340 *  0.366200 *  -3.33043    1.000000    
     74 O2    s    0.393430 *  0.825660 *  0.366200 *  -2.87073    1.000000    
     75 O2    s    0.893430 *  0.174340 *  0.633800 *  -2.87073    1.000000    
     76 O2    s    0.606570 *  0.825660 *  0.633800 *  -2.87073    1.000000    
     77 O2    s    0.893430 *  0.825660 *  0.633800 *  -2.87073    1.000000    
     78 O2    s    0.606570 *  0.174340 *  0.633800 *  -2.87073    1.000000    
     79 O3    s    0.106570 *  0.825660 *  0.366200 *  -3.33043    1.000000    
     80 O2    s    0.393430 *  0.174340 *  0.366200 *  -2.87073    1.000000    
     81 O3    s    0.000000 *  0.000000 *  0.500000 *  -3.33043    1.000000    
     82 O2    s    0.500000 *  0.000000 *  0.500000 *  -2.87073    1.000000    
     83 O3    s    0.994520 *  0.000000 *  0.250840 *  -3.33043    1.000000    
     84 O2    s    0.505480 *  0.000000 *  0.250840 *  -2.87073    1.000000    
     85 O2    s    0.005480 *  0.000000 *  0.749160 *  -2.87073    1.000000    
     86 O2    s    0.494520 *  0.000000 *  0.749160 *  -2.87073    1.000000    
     87 O2    s    0.610230 *  0.175520 *  0.115390 *  -2.87073    1.000000    
     88 O3    s    0.889770 *  0.824480 *  0.115390 *  -3.33043    1.000000    
     89 O2    s    0.389770 *  0.175520 *  0.884610 *  -2.87073    1.000000    
     90 O3    s    0.110230 *  0.824480 *  0.884610 *  -3.33043    1.000000    
     91 O2    s    0.389770 *  0.824480 *  0.884610 *  -2.87073    1.000000    
     92 O2    s    0.110230 *  0.175520 *  0.884610 *  -2.87073    1.000000    
     93 O2    s    0.610230 *  0.824480 *  0.115390 *  -2.87073    1.000000    
     94 O2    s    0.889770 *  0.175520 *  0.115390 *  -2.87073    1.000000    
     95 O2    s    0.500000 *  0.000000 *  0.000000 *  -2.87073    1.000000    
     96 O2    s    0.000000 *  0.000000 *  0.000000 *  -2.87073    1.000000    
     97 O2    s    0.151750 *  0.500000 *  0.313330 *  -2.87073    1.000000    
     98 O2    s    0.348250 *  0.500000 *  0.313330 *  -2.87073    1.000000    
     99 O2    s    0.848250 *  0.500000 *  0.686670 *  -2.87073    1.000000    
    100 O2    s    0.651750 *  0.500000 *  0.686670 *  -2.87073    1.000000    
    101 O2    s    0.250000 *  0.234950 *  0.285720 *  -2.87073    1.000000    
    102 O2    s    0.250000 *  0.765050 *  0.285720 *  -2.87073    1.000000    
    103 O2    s    0.750000 *  0.234950 *  0.714280 *  -2.87073    1.000000    
    104 O2    s    0.750000 *  0.765050 *  0.714280 *  -2.87073    1.000000    
    105 O2    s    0.131410 *  0.268650 *  0.127790 *  -2.87073    1.000000    
    106 O2    s    0.368590 *  0.731350 *  0.127790 *  -2.87073    1.000000    
    107 O2    s    0.868590 *  0.268650 *  0.872210 *  -2.87073    1.000000    
    108 O2    s    0.631410 *  0.731350 *  0.872210 *  -2.87073    1.000000    
    109 O3    s    0.868590 *  0.731350 *  0.872210 *  -3.33043    1.000000    
    110 O2    s    0.631410 *  0.268650 *  0.872210 *  -2.87073    1.000000    
    111 O3    s    0.131410 *  0.731350 *  0.127790 *  -3.33043    1.000000    
    112 O2    s    0.368590 *  0.268650 *  0.127790 *  -2.87073    1.000000    
    113 O2    s    0.653920 *  0.500000 *  0.058200 *  -2.87073    1.000000    
    114 O3    s    0.846080 *  0.500000 *  0.058200 *  -3.33043    1.000000    
    115 O2    s    0.346080 *  0.500000 *  0.941800 *  -2.87073    1.000000    
    116 O3    s    0.153920 *  0.500000 *  0.941800 *  -3.33043    1.000000    
    117 O2    s    0.750000 *  0.231060 *  0.027050 *  -2.87073    1.000000    
    118 O3    s    0.750000 *  0.768940 *  0.027050 *  -3.33043    1.000000    
    119 O2    s    0.250000 *  0.231060 *  0.972950 *  -2.87073    1.000000    
    120 O3    s    0.250000 *  0.768940 *  0.972950 *  -3.33043    1.000000    
--------------------------------------------------------------------------------



********************************************************************************
*  General input information                                                   *
********************************************************************************

  Species output for all configurations : 

--------------------------------------------------------------------------------
  Species    Type    Atomic    Atomic    Charge       Radii (Angs)     Library
                     Number     Mass       (e)     Cova   Ionic  VDW   Symbol
--------------------------------------------------------------------------------
    Ge       Core       32      72.61   4.000000   1.170  0.000  1.750 Ge       
    Si       Core       14      28.09   4.000000   1.200  0.000  2.100 Si       
    O1       Core        8      16.00   1.733957   0.730  0.000  0.000 O1       
    O2       Core        8      16.00   0.870733   0.730  0.000  1.360 O2       
    O3       Core        8      16.00   1.330431   0.730  0.000  1.360 O3       
    O1       Shell       8       0.00  -3.733957   0.730  0.000  0.000 O1       
    O2       Shell       8       0.00  -2.870733   0.730  0.000  0.000 O2       
    O3       Shell       8       0.00  -3.330431   0.730  0.000  0.000 O3       
--------------------------------------------------------------------------------


  Lattice summation method               =    Ewald          (3-D)
                                         =    Parry          (2-D)
                                         =    Saunders et al (1-D)
  Accuracy factor for lattice sums       =   12.000


  Analytic derivatives to be used

  Time limit = Infinity

  Maximum range for interatomic potentials =    100000.000000 Angstroms

  General interatomic potentials :

--------------------------------------------------------------------------------
Atom  Types   Potential      Parameter       Value         Units   Cutoffs(Ang)
  1     2                                                            Min /  Max 
--------------------------------------------------------------------------------
Si   c O1   s Buckingham    Buckingham A     1315.2478    eV        0.000 16.000
                            Buckingham rho  0.31775900    Ang       
                            Buckingham C     10.141118    eV*Ang^6  
--------------------------------------------------------------------------------
Si   c O2   s Buckingham    Buckingham A     1315.2478    eV        0.000 16.000
                            Buckingham rho  0.31775900    Ang       
                            Buckingham C     10.141118    eV*Ang^6  
--------------------------------------------------------------------------------
Si   c O3   s Buckingham    Buckingham A     1315.2478    eV        0.000 16.000
                            Buckingham rho  0.31775900    Ang       
                            Buckingham C     10.141118    eV*Ang^6  
--------------------------------------------------------------------------------
Ge   c O1   s Buckingham    Buckingham A     1497.3996    eV        0.000 16.000
                            Buckingham rho  0.32564600    Ang       
                            Buckingham C     16.808599    eV*Ang^6  
--------------------------------------------------------------------------------
Ge   c O2   s Buckingham    Buckingham A     1497.3996    eV        0.000 16.000
                            Buckingham rho  0.32564600    Ang       
                            Buckingham C     16.808599    eV*Ang^6  
--------------------------------------------------------------------------------
Ge   c O3   s Buckingham    Buckingham A     1497.3996    eV        0.000 16.000
                            Buckingham rho  0.32564600    Ang       
                            Buckingham C     16.808599    eV*Ang^6  
--------------------------------------------------------------------------------
O1   s O1   s Buckingham    Buckingham A     22764.000    eV        0.000 16.000
                            Buckingham rho  0.14900000    Ang       
                            Buckingham C     10.937044    eV*Ang^6  
--------------------------------------------------------------------------------
O1   s O2   s Buckingham    Buckingham A     22764.000    eV        0.000 16.000
                            Buckingham rho  0.14900000    Ang       
                            Buckingham C     10.937044    eV*Ang^6  
--------------------------------------------------------------------------------
O1   s O3   s Buckingham    Buckingham A     22764.000    eV        0.000 16.000
                            Buckingham rho  0.14900000    Ang       
                            Buckingham C     10.937044    eV*Ang^6  
--------------------------------------------------------------------------------
O2   s O2   s Buckingham    Buckingham A     22764.000    eV        0.000 16.000
                            Buckingham rho  0.14900000    Ang       
                            Buckingham C     10.937044    eV*Ang^6  
--------------------------------------------------------------------------------
O2   s O3   s Buckingham    Buckingham A     22764.000    eV        0.000 16.000
                            Buckingham rho  0.14900000    Ang       
                            Buckingham C     10.937044    eV*Ang^6  
--------------------------------------------------------------------------------
O3   s O3   s Buckingham    Buckingham A     22764.000    eV        0.000 16.000
                            Buckingham rho  0.14900000    Ang       
                            Buckingham C     10.937044    eV*Ang^6  
--------------------------------------------------------------------------------
O1   c O1   s Spring (c-s)  Spring k 2       180.31577    eV*Ang^-2 0.000  0.800
                            Spring k 4       0.0000000    eV*Ang^-4 
--------------------------------------------------------------------------------
O2   c O2   s Spring (c-s)  Spring k 2       75.969800    eV*Ang^-2 0.000  0.800
                            Spring k 4       0.0000000    eV*Ang^-4 
--------------------------------------------------------------------------------
O3   c O3   s Spring (c-s)  Spring k 2       128.14270    eV*Ang^-2 0.000  0.800
                            Spring k 4       0.0000000    eV*Ang^-4 
--------------------------------------------------------------------------------

  General Three-body potentials :

--------------------------------------------------------------------------------
  Atoms       Potential      Parameter       Value         Units   Cutoffs(Ang)
  1 / 2 / 3                                                          Min /  Max 
--------------------------------------------------------------------------------
Si    core    Harmonic      Three-body cnst  1.2614000    eV*rad^-2 0.000  1.900
O1    shel                  Three-body angl  109.47000    degrees   0.000  1.900
O1    shel                  Three-body k4    0.0000000    eV*rad^-4 0.000  3.500
                            Three-body k3    0.0000000    eV*rad^-3 
--------------------------------------------------------------------------------
Si    core    Harmonic      Three-body cnst  1.2614000    eV*rad^-2 0.000  1.900
O1    shel                  Three-body angl  109.47000    degrees   0.000  1.900
õ(1   shel                  Three-body k4    0.0000000    eV*rad^-4 0.000  3.500
                            Three-body k3    0.0000000    eV*rad^-3 
--------------------------------------------------------------------------------
Si    core    Harmonic      Three-body cnst  1.2614000    eV*rad^-2 0.000  1.900
õ(1   shel                  Three-body angl  109.47000    degrees   0.000  1.900
õ(1   shel                  Three-body k4    0.0000000    eV*rad^-4 0.000  3.500
                            Three-body k3    0.0000000    eV*rad^-3 
--------------------------------------------------------------------------------
Si    core    Harmonic      Three-body cnst  1.2614000    eV*rad^-2 0.000  1.900
O1    shel                  Three-body angl  109.47000    degrees   0.000  1.900
O2    shel                  Three-body k4    0.0000000    eV*rad^-4 0.000  3.500
                            Three-body k3    0.0000000    eV*rad^-3 
--------------------------------------------------------------------------------
Si    core    Harmonic      Three-body cnst  1.2614000    eV*rad^-2 0.000  1.900
O1    shel                  Three-body angl  109.47000    degrees   0.000  1.900
õ(2   shel                  Three-body k4    0.0000000    eV*rad^-4 0.000  3.500
                            Three-body k3    0.0000000    eV*rad^-3 
--------------------------------------------------------------------------------
Si    core    Harmonic      Three-body cnst  1.2614000    eV*rad^-2 0.000  1.900
O2    shel                  Three-body angl  109.47000    degrees   0.000  1.900
õ(1   shel                  Three-body k4    0.0000000    eV*rad^-4 0.000  3.500
                            Three-body k3    0.0000000    eV*rad^-3 
--------------------------------------------------------------------------------
Si    core    Harmonic      Three-body cnst  1.2614000    eV*rad^-2 0.000  1.900
õ(1   shel                  Three-body angl  109.47000    degrees   0.000  1.900
õ(2   shel                  Three-body k4    0.0000000    eV*rad^-4 0.000  3.500
                            Three-body k3    0.0000000    eV*rad^-3 
--------------------------------------------------------------------------------
Si    core    Harmonic      Three-body cnst  1.2614000    eV*rad^-2 0.000  1.900
O2    shel                  Three-body angl  109.47000    degrees   0.000  1.900
O2    shel                  Three-body k4    0.0000000    eV*rad^-4 0.000  3.500
                            Three-body k3    0.0000000    eV*rad^-3 
--------------------------------------------------------------------------------
Si    core    Harmonic      Three-body cnst  1.2614000    eV*rad^-2 0.000  1.900
O2    shel                  Three-body angl  109.47000    degrees   0.000  1.900
õ(2   shel                  Three-body k4    0.0000000    eV*rad^-4 0.000  3.500
                            Three-body k3    0.0000000    eV*rad^-3 
--------------------------------------------------------------------------------
Si    core    Harmonic      Three-body cnst  1.2614000    eV*rad^-2 0.000  1.900
õ(2   shel                  Three-body angl  109.47000    degrees   0.000  1.900
õ(2   shel                  Three-body k4    0.0000000    eV*rad^-4 0.000  3.500
                            Three-body k3    0.0000000    eV*rad^-3 
--------------------------------------------------------------------------------

********************************************************************************
*  Output for configuration   1 : c00114.vasp                                  *
********************************************************************************


  Components of energy : 

--------------------------------------------------------------------------------
  Interatomic potentials     =         760.33531477 eV    
  Three-body potentials      =           0.01337183 eV    
  Monopole - monopole (real) =       -2676.00317478 eV    
  Monopole - monopole (recip)=       -1115.35404472 eV    
  Monopole - monopole (total)=       -3791.35721950 eV    
--------------------------------------------------------------------------------
  Total lattice energy       =       -3031.00853291 eV    
--------------------------------------------------------------------------------
  Total lattice energy       =         -292445.9902 kJ/(mole unit cells)
--------------------------------------------------------------------------------


  Number of variables =      363

  Maximum number of calculations  =          1000
  Maximum Hessian update interval =            10
  Maximum step size               =   0.100000000
  Maximum parameter tolerance     =   0.000010000
  Maximum function  tolerance     =   0.000010000
  Maximum gradient  tolerance     =   0.001000000
  Maximum gradient  component     =   0.010000000

  Symmetry not applied to optimisation

  Cell parameters to be optimised using strains

  Newton-Raphson optimiser to be used

  BFGS hessian update to be used

  Lower half triangular hessian to be used

  Minimiser to switch to RFO
  When gradient norm is less than     0.050000

  Dumpfile to be written after every cycle

  Start of bulk optimisation :

  Cycle:      0 Energy:     -3031.008533  Gnorm:      4.405344  CPU:    0.114
  ** Hessian calculated **
  Cycle:      1 Energy:     -3044.182133  Gnorm:      3.534672  CPU:    0.307
  ** Hessian calculated **
  Cycle:      2 Energy:     -3063.793290  Gnorm:      0.788791  CPU:    0.509
  ** Hessian calculated **
  Cycle:      3 Energy:     -3065.437038  Gnorm:      0.445041  CPU:    0.710
  Cycle:      4 Energy:     -3065.991726  Gnorm:      0.292493  CPU:    0.816
  Cycle:      5 Energy:     -3066.456345  Gnorm:      0.227147  CPU:    0.941
  Cycle:      6 Energy:     -3066.868167  Gnorm:      0.174035  CPU:    1.067
  Cycle:      7 Energy:     -3067.109832  Gnorm:      0.139167  CPU:    1.173
  Cycle:      8 Energy:     -3067.252390  Gnorm:      0.101927  CPU:    1.278
  Cycle:      9 Energy:     -3067.326745  Gnorm:      0.071034  CPU:    1.383
  Cycle:     10 Energy:     -3067.366015  Gnorm:      0.055767  CPU:    1.506
  Cycle:     11 Energy:     -3067.394654  Gnorm:      0.052520  CPU:    1.630
  Cycle:     12 Energy:     -3067.427708  Gnorm:      0.057255  CPU:    1.754
  ** Hessian calculated **
  Cycle:     13 Energy:     -3067.439318  Gnorm:      0.056290  CPU:    1.971
  Cycle:     14 Energy:     -3067.456584  Gnorm:      0.054735  CPU:    2.114
  Cycle:     15 Energy:     -3067.469499  Gnorm:      0.053229  CPU:    2.238
  ** Hessian calculated **
  Cycle:     16 Energy:     -3067.478937  Gnorm:      0.045241  CPU:    2.457
  ** Hessian has required structure
  Cycle:     17 Energy:     -3067.492081  Gnorm:      0.053171  CPU:    2.641
  ** Hessian has required structure
  Cycle:     18 Energy:     -3067.507518  Gnorm:      0.061538  CPU:    2.825
  ** Hessian has required structure
  Cycle:     19 Energy:     -3067.519509  Gnorm:      0.076807  CPU:    2.989
  ** Hessian has required structure
  Cycle:     20 Energy:     -3067.532509  Gnorm:      0.087903  CPU:    3.152
  ** Hessian has required structure
  Cycle:     21 Energy:     -3067.544280  Gnorm:      0.087114  CPU:    3.298
  ** Hessian has required structure
  Cycle:     22 Energy:     -3067.558059  Gnorm:      0.076222  CPU:    3.443
  ** Hessian has required structure
  Cycle:     23 Energy:     -3067.561331  Gnorm:      0.091749  CPU:    3.589
  ** Hessian has required structure
  Cycle:     24 Energy:     -3067.574498  Gnorm:      0.113770  CPU:    3.734
  ** Hessian has required structure
  Cycle:     25 Energy:     -3067.584018  Gnorm:      0.070777  CPU:    3.881
  ** Hessian has wrong structure
  ** Imaginary eigenvectors =   3
  Cycle:     26 Energy:     -3067.611399  Gnorm:      0.071166  CPU:    4.363
  ** Hessian has wrong structure
  ** Imaginary eigenvectors =   2
  Cycle:     27 Energy:     -3067.664250  Gnorm:      0.080307  CPU:    4.768
  ** Hessian has required structure
  Cycle:     28 Energy:     -3067.959469  Gnorm:      0.048333  CPU:    5.037
  ** Hessian has required structure
  Cycle:     29 Energy:     -3068.062141  Gnorm:      0.031558  CPU:    5.224
  ** Hessian has required structure
  Cycle:     30 Energy:     -3068.099202  Gnorm:      0.042764  CPU:    5.399
  ** Hessian has required structure
  Cycle:     31 Energy:     -3068.145823  Gnorm:      0.025957  CPU:    5.572
  ** Hessian has required structure
  Cycle:     32 Energy:     -3068.172616  Gnorm:      0.034147  CPU:    5.766
  ** Hessian has required structure
  Cycle:     33 Energy:     -3068.208074  Gnorm:      0.038110  CPU:    5.960
  ** Hessian has required structure
  Cycle:     34 Energy:     -3068.232937  Gnorm:      0.040422  CPU:    6.136
  ** Hessian has required structure
  Cycle:     35 Energy:     -3068.256242  Gnorm:      0.033032  CPU:    6.313
  ** Hessian has required structure
  Cycle:     36 Energy:     -3068.267999  Gnorm:      0.020501  CPU:    6.487
  ** Hessian has required structure
  Cycle:     37 Energy:     -3068.276574  Gnorm:      0.017217  CPU:    6.641
  ** Hessian has required structure
  Cycle:     38 Energy:     -3068.291634  Gnorm:      0.011922  CPU:    6.919
  ** Hessian has required structure
  Cycle:     39 Energy:     -3068.296423  Gnorm:      0.007634  CPU:    7.071
  ** Hessian has required structure
  Cycle:     40 Energy:     -3068.298445  Gnorm:      0.007236  CPU:    7.224
  ** Hessian has required structure
  Cycle:     41 Energy:     -3068.299752  Gnorm:      0.002856  CPU:    7.375
  ** Hessian has required structure
  Cycle:     42 Energy:     -3068.300255  Gnorm:      0.002754  CPU:    7.539
  ** Hessian has required structure
  Cycle:     43 Energy:     -3068.300533  Gnorm:      0.001976  CPU:    7.702
  ** Hessian has required structure
  Cycle:     44 Energy:     -3068.300705  Gnorm:      0.001416  CPU:    7.861
  ** Hessian has required structure
  Cycle:     45 Energy:     -3068.300791  Gnorm:      0.000981  CPU:    7.999
  ** Hessian has required structure
  Cycle:     46 Energy:     -3068.300832  Gnorm:      0.000540  CPU:    8.154
  ** Hessian has required structure
  Cycle:     47 Energy:     -3068.300847  Gnorm:      0.000379  CPU:    8.309
  ** Hessian has required structure
  Cycle:     48 Energy:     -3068.300852  Gnorm:      0.000282  CPU:    8.511
  ** Hessian has required structure
  Cycle:     49 Energy:     -3068.300853  Gnorm:      0.000244  CPU:    8.638
  ** Hessian has required structure
  Cycle:     50 Energy:     -3068.300853  Gnorm:      0.000242  CPU:    8.780
  ** Hessian has required structure
  Cycle:     51 Energy:     -3068.300853  Gnorm:      0.000217  CPU:    8.905
  ** Hessian has required structure
  Cycle:     52 Energy:     -3068.300853  Gnorm:      0.000205  CPU:    9.031
  ** Hessian has required structure
  Cycle:     53 Energy:     -3068.300853  Gnorm:      0.000201  CPU:    9.158
  ** Hessian has required structure
  Cycle:     54 Energy:     -3068.300853  Gnorm:      0.000201  CPU:    9.285
  ** Hessian has required structure
  Cycle:     55 Energy:     -3068.300853  Gnorm:      0.000200  CPU:    9.411
  ** Hessian has required structure
  Cycle:     56 Energy:     -3068.300853  Gnorm:      0.000200  CPU:    9.537
  ** Hessian has required structure
  Cycle:     57 Energy:     -3068.300853  Gnorm:      0.000200  CPU:    9.713
  ** Hessian has required structure
  Cycle:     58 Energy:     -3068.300853  Gnorm:      0.000200  CPU:    9.917
  ** Hessian has required structure
  Cycle:     59 Energy:     -3068.300853  Gnorm:      0.000200  CPU:   10.077
  ** Hessian has required structure
  Cycle:     60 Energy:     -3068.300853  Gnorm:      0.000200  CPU:   10.331
  ** Hessian calculated **


  **** Optimisation achieved ****


  Final energy =   -3068.30085336 eV      
  Final Gnorm  =       0.00020005

  Components of energy : 

--------------------------------------------------------------------------------
  Interatomic potentials     =         816.51577769 eV    
  Three-body potentials      =           0.21044891 eV    
  Monopole - monopole (real) =       -2204.32995472 eV    
  Monopole - monopole (recip)=       -1680.69712524 eV    
  Monopole - monopole (total)=       -3885.02707996 eV    
--------------------------------------------------------------------------------
  Total lattice energy       =       -3068.30085336 eV    
--------------------------------------------------------------------------------
  Total lattice energy       =         -296044.1291 kJ/(mole unit cells)
--------------------------------------------------------------------------------

  Final fractional coordinates of atoms :

--------------------------------------------------------------------------------
   No.  Atomic        x           y          z          Radius
        Label       (Frac)      (Frac)     (Frac)       (Angs) 
--------------------------------------------------------------------------------
     1  Ge    c     0.052090    0.000000    0.372270    0.000000
     2  Ge    c     0.846500    0.680030    0.039843    0.000000
     3  Ge    c     0.147066    0.669820    0.976320    0.000000
     4  Si    c     0.451358    0.011085    0.377038    0.000000
     5  Si    c     0.943699    0.998558    0.625089    0.000000
     6  Si    c     0.546692    0.002988    0.642136    0.000000
     7  Si    c     0.554531    0.000317    0.130501    0.000000
     8  Si    c     0.945328    0.996189    0.115443    0.000000
     9  Si    c     0.439238    0.994120    0.891231    0.000000
    10  Si    c     0.050709    0.980845    0.871129    0.000000
    11  Si    c     0.170319    0.283154    0.293947    0.000000
    12  Si    c     0.334810    0.718531    0.276557    0.000000
    13  Si    c     0.830603    0.289270    0.722286    0.000000
    14  Si    c     0.662283    0.713693    0.726220    0.000000
    15  Si    c     0.841035    0.694821    0.726708    0.000000
    16  Si    c     0.652418    0.309580    0.719647    0.000000
    17  Si    c     0.156492    0.691297    0.285994    0.000000
    18  Si    c     0.349183    0.316469    0.286540    0.000000
    19  Si    c     0.651333    0.310003    0.025635    0.000000
    20  Si    c     0.342549    0.305046    0.981343    0.000000
    21  Si    c     0.328989    0.700813    0.967734    0.000000
    22  Si    c     0.162429    0.262209    0.990451    0.000000
    23  Si    c     0.663846    0.708485    0.034106    0.000000
    24  Si    c     0.830272    0.276788    0.030159    0.000000
    25  O3    c     0.122001    0.163807    0.390723    0.000000
    26  O2    c     0.387865    0.858457    0.353309    0.000000
    27  O2    c     0.884019    0.159830    0.639552    0.000000
    28  O2    c     0.608929    0.845125    0.642503    0.000000
    29  O2    c     0.898518    0.814049    0.641846    0.000000
    30  O2    c     0.592929    0.188251    0.635902    0.000000
    31  O3    c     0.099327    0.800365    0.376713    0.000000
    32  O2    c     0.409301    0.200400    0.370925    0.000000
    33  O3    c     0.978582    0.005150    0.482537    0.000000
    34  O2    c     0.488820    0.985500    0.519488    0.000000
    35  O3    c     0.006190    0.047744    0.225384    0.000000
    36  O2    c     0.520698    0.998781    0.274989    0.000000
    37  O2    c     0.016952    0.016964    0.725912    0.000000
    38  O2    c     0.495514    0.989520    0.770395    0.000000
    39  O2    c     0.594956    0.188533    0.108733    0.000000
    40  O3    c     0.912368    0.799906    0.132901    0.000000
    41  O2    c     0.394447    0.179594    0.892222    0.000000
    42  O3    c     0.081136    0.782837    0.880690    0.000000
    43  O2    c     0.377352    0.835051    0.879654    0.000000
    44  O2    c     0.123591    0.110217    0.901606    0.000000
    45  O2    c     0.616166    0.843802    0.121205    0.000000
    46  O2    c     0.870209    0.123426    0.113505    0.000000
    47  O2    c     0.486290    0.965893    0.025750    0.000000
    48  O2    c     0.983565    0.018011    0.973539    0.000000
    49  O2    c     0.141692    0.483905    0.303316    0.000000
    50  O2    c     0.366485    0.523194    0.308348    0.000000
    51  O2    c     0.858799    0.489323    0.699494    0.000000
    52  O2    c     0.633899    0.514523    0.696257    0.000000
    53  O2    c     0.261729    0.273284    0.330572    0.000000
    54  O2    c     0.246209    0.737315    0.323655    0.000000
    55  O2    c     0.740533    0.268574    0.676762    0.000000
    56  O2    c     0.751821    0.736040    0.685071    0.000000
    57  O2    c     0.157136    0.213111    0.144417    0.000000
    58  O2    c     0.334822    0.754377    0.121235    0.000000
    59  O2    c     0.837474    0.240937    0.874923    0.000000
    60  O2    c     0.657295    0.759140    0.880534    0.000000
    61  O3    c     0.856341    0.739535    0.877799    0.000000
    62  O2    c     0.641403    0.262207    0.872184    0.000000
    63  O3    c     0.138159    0.743532    0.135996    0.000000
    64  O2    c     0.359787    0.265075    0.134200    0.000000
    65  O2    c     0.629160    0.512177    0.052482    0.000000
    66  O3    c     0.869315    0.462512    0.064071    0.000000
    67  O2    c     0.364067    0.505730    0.947964    0.000000
    68  O3    c     0.123319    0.449220    0.964950    0.000000
    69  O2    c     0.740240    0.279496    0.070075    0.000000
    70  O3    c     0.751902    0.716189    0.083718    0.000000
    71  O2    c     0.252063    0.273062    0.948900    0.000000
    72  O3    c     0.240086    0.704038    0.922074    0.000000
    73  O3    s     0.121441    0.163198    0.379386    0.000000
    74  O2    s     0.388762    0.859249    0.347043    0.000000
    75  O2    s     0.884415    0.157047    0.647350    0.000000
    76  O2    s     0.608218    0.847401    0.651848    0.000000
    77  O2    s     0.897055    0.820703    0.649347    0.000000
    78  O2    s     0.594572    0.182009    0.645709    0.000000
    79  O3    s     0.101274    0.805471    0.367244    0.000000
    80  O2    s     0.407133    0.193117    0.362275    0.000000
    81  O3    s     0.981299    0.003958    0.488227    0.000000
    82  O2    s     0.491243    0.990536    0.517277    0.000000
    83  O3    s     0.003218    0.038012    0.225401    0.000000
    84  O2    s     0.516778    0.000349    0.269852    0.000000
    85  O2    s     0.012972    0.011083    0.731152    0.000000
    86  O2    s     0.494686    0.991628    0.770113    0.000000
    87  O2    s     0.596965    0.181814    0.101579    0.000000
    88  O3    s     0.910211    0.808962    0.123755    0.000000
    89  O2    s     0.393481    0.173632    0.902071    0.000000
    90  O3    s     0.083543    0.793061    0.887597    0.000000
    91  O2    s     0.378663    0.837391    0.890619    0.000000
    92  O2    s     0.120168    0.113275    0.908276    0.000000
    93  O2    s     0.614736    0.845872    0.112299    0.000000
    94  O2    s     0.873599    0.127229    0.104372    0.000000
    95  O2    s     0.488756    0.972978    0.022522    0.000000
    96  O2    s     0.986980    0.011601    0.977318    0.000000
    97  O2    s     0.146378    0.484757    0.300459    0.000000
    98  O2    s     0.361293    0.521614    0.302665    0.000000
    99  O2    s     0.853926    0.489687    0.704746    0.000000
   100  O2    s     0.638921    0.513568    0.701958    0.000000
   101  O2    s     0.261349    0.279017    0.321951    0.000000
   102  O2    s     0.246302    0.730524    0.314772    0.000000
   103  O2    s     0.740746    0.275133    0.686070    0.000000
   104  O2    s     0.751612    0.729271    0.693816    0.000000
   105  O2    s     0.159029    0.225191    0.143761    0.000000
   106  O2    s     0.334195    0.744861    0.121833    0.000000
   107  O2    s     0.835910    0.250061    0.874779    0.000000
   108  O2    s     0.658509    0.749012    0.880261    0.000000
   109  O3    s     0.853996    0.730197    0.875569    0.000000
   110  O2    s     0.643638    0.272293    0.872411    0.000000
   111  O3    s     0.140578    0.732773    0.137700    0.000000
   112  O2    s     0.356836    0.274696    0.134082    0.000000
   113  O2    s     0.635154    0.510942    0.047637    0.000000
   114  O3    s     0.863564    0.461666    0.058723    0.000000
   115  O2    s     0.358083    0.504541    0.953659    0.000000
   116  O3    s     0.129085    0.448230    0.968361    0.000000
   117  O2    s     0.740273    0.282611    0.060864    0.000000
   118  O3    s     0.750718    0.712379    0.074962    0.000000
   119  O2    s     0.252326    0.275497    0.957039    0.000000
   120  O3    s     0.241518    0.700890    0.931188    0.000000
--------------------------------------------------------------------------------

  Final Cartesian lattice vectors (Angstroms) :

       17.203974   -0.041169   -0.151459
       -0.018116    7.608485   -0.022005
       -0.089271   -0.027285   10.187534


  Final cell parameters and derivatives :

--------------------------------------------------------------------------------
       a           17.204690 Angstrom     dE/de1(xx)     0.007941 eV/strain
       b            7.608538 Angstrom     dE/de2(yy)     0.000013 eV/strain
       c           10.187962 Angstrom     dE/de3(zz)     0.005895 eV/strain
       alpha       90.317954 Degrees      dE/de4(yz)     0.000982 eV/strain
       beta        91.006088 Degrees      dE/de5(xz)     0.002472 eV/strain
       gamma       90.272060 Degrees      dE/de6(xy)     0.000242 eV/strain
--------------------------------------------------------------------------------

  Primitive cell volume =          1333.388327 Angs**3

  Density of cell =      1.962359 g/cm**3

  Non-primitive cell volume =          1333.388327 Angs**3


  Final internal derivatives :

--------------------------------------------------------------------------------
   No.  Atomic          a             b             c           Radius
        Label          (eV)          (eV)          (eV)        (eV/Angs)
--------------------------------------------------------------------------------
      1 Ge    c       0.000000      0.000000      0.000000      0.000000
      2 Ge    c       0.003238     -0.000863     -0.001107      0.000000
      3 Ge    c      -0.001187      0.000766     -0.000694      0.000000
      4 Si    c      -0.007059      0.000388     -0.001306      0.000000
      5 Si    c      -0.000147     -0.000599     -0.001772      0.000000
      6 Si    c       0.019433      0.001926      0.001449      0.000000
      7 Si    c       0.012202      0.001063      0.008145      0.000000
      8 Si    c      -0.002866     -0.001588     -0.006904      0.000000
      9 Si    c      -0.016268     -0.001430      0.001632      0.000000
     10 Si    c      -0.001606     -0.002016      0.002081      0.000000
     11 Si    c      -0.000067      0.000462      0.000329      0.000000
     12 Si    c      -0.002791     -0.001898     -0.003832      0.000000
     13 Si    c       0.001446      0.000125      0.003684      0.000000
     14 Si    c      -0.002514      0.000212      0.001384      0.000000
     15 Si    c       0.002999     -0.000606      0.001744      0.000000
     16 Si    c      -0.003768     -0.000468      0.000749      0.000000
     17 Si    c       0.000132     -0.000276     -0.000986      0.000000
     18 Si    c       0.002072      0.000918      0.000880      0.000000
     19 Si    c      -0.003195     -0.000537     -0.001570      0.000000
     20 Si    c       0.002917      0.002064      0.000392      0.000000
     21 Si    c      -0.003638     -0.002954      0.003076      0.000000
     22 Si    c       0.002200      0.002026     -0.000660      0.000000
     23 Si    c      -0.000627     -0.001283     -0.001568      0.000000
     24 Si    c       0.000796      0.002520     -0.003422      0.000000
     25 O3    c      -0.001196     -0.000494     -0.000818      0.000000
     26 O2    c       0.002159     -0.000006      0.001503      0.000000
     27 O2    c      -0.001513      0.001014     -0.000316      0.000000
     28 O2    c       0.002425     -0.002869     -0.001193      0.000000
     29 O2    c      -0.000897     -0.000240      0.000034      0.000000
     30 O2    c       0.001435      0.002293     -0.000778      0.000000
     31 O3    c      -0.000788     -0.000022     -0.000192      0.000000
     32 O2    c       0.001589     -0.000221      0.000652      0.000000
     33 O3    c      -0.007303      0.000631      0.004643      0.000000
     34 O2    c      -0.023764     -0.001136     -0.008316      0.000000
     35 O3    c       0.015070      0.001797      0.007801      0.000000
     36 O2    c       0.016923     -0.000353     -0.004076      0.000000
     37 O2    c       0.004092     -0.000277      0.001090      0.000000
     38 O2    c       0.018545      0.000589     -0.003226      0.000000
     39 O2    c      -0.000187      0.001622     -0.000396      0.000000
     40 O3    c      -0.001982     -0.002489      0.000681      0.000000
     41 O2    c      -0.001898      0.003104     -0.001442      0.000000
     42 O3    c      -0.003205      0.004699      0.001320      0.000000
     43 O2    c       0.003710      0.001244     -0.001280      0.000000
     44 O2    c      -0.003381     -0.001152     -0.001994      0.000000
     45 O2    c       0.004281     -0.002697      0.002108      0.000000
     46 O2    c      -0.006393      0.001450      0.001799      0.000000
     47 O2    c      -0.022415     -0.002230     -0.002199      0.000000
     48 O2    c       0.006084     -0.000174     -0.003385      0.000000
     49 O2    c       0.001069     -0.000555     -0.000233      0.000000
     50 O2    c      -0.001260      0.002763     -0.001023      0.000000
     51 O2    c      -0.000646      0.001470      0.000898      0.000000
     52 O2    c      -0.001138      0.000524     -0.000345      0.000000
     53 O2    c      -0.005839      0.000237     -0.000004      0.000000
     54 O2    c       0.007896     -0.000975     -0.001128      0.000000
     55 O2    c       0.003202     -0.000083     -0.000028      0.000000
     56 O2    c      -0.000589      0.000345     -0.000272      0.000000
     57 O2    c      -0.000027      0.000288      0.000807      0.000000
     58 O2    c      -0.001932     -0.000855      0.001568      0.000000
     59 O2    c      -0.003554      0.000994      0.000073      0.000000
     60 O2    c       0.001496     -0.000638     -0.001515      0.000000
     61 O3    c      -0.002538     -0.001053     -0.000060      0.000000
     62 O2    c       0.001695      0.000651      0.001835      0.000000
     63 O3    c       0.003966     -0.000977      0.000526      0.000000
     64 O2    c      -0.001309      0.000464     -0.002054      0.000000
     65 O2    c      -0.000683     -0.000284      0.000292      0.000000
     66 O3    c      -0.001287     -0.003049     -0.002386      0.000000
     67 O2    c      -0.002288      0.004231      0.001085      0.000000
     68 O3    c       0.000213     -0.003637      0.000858      0.000000
     69 O2    c       0.002327      0.000090      0.000194      0.000000
     70 O3    c       0.000256      0.000353      0.000704      0.000000
     71 O2    c      -0.006317      0.000269      0.000078      0.000000
     72 O3    c       0.011782     -0.001781      0.001735      0.000000
     73 O3    s       0.003215      0.000374     -0.000331      0.000000
     74 O2    s      -0.008984     -0.000899     -0.000936      0.000000
     75 O2    s      -0.000690      0.000008      0.000613      0.000000
     76 O2    s       0.008907     -0.001610      0.000426      0.000000
     77 O2    s       0.000380     -0.000648      0.000761      0.000000
     78 O2    s       0.008364      0.001928      0.000915      0.000000
     79 O3    s       0.001966      0.000034     -0.000979      0.000000
     80 O2    s      -0.004436      0.000656     -0.001129      0.000000
     81 O3    s       0.004113     -0.000157     -0.001635      0.000000
     82 O2    s      -0.000897     -0.000442      0.000185      0.000000
     83 O3    s      -0.001142      0.000110     -0.002243      0.000000
     84 O2    s      -0.005001      0.002653      0.002859      0.000000
     85 O2    s      -0.000496     -0.000926      0.002231      0.000000
     86 O2    s      -0.004685     -0.001604      0.000256      0.000000
     87 O2    s       0.006407      0.002596      0.001042      0.000000
     88 O3    s      -0.000879     -0.000474     -0.001972      0.000000
     89 O2    s      -0.010232      0.000901      0.002689      0.000000
     90 O3    s      -0.001059      0.000487      0.001487      0.000000
     91 O2    s      -0.012334     -0.002871     -0.001403      0.000000
     92 O2    s      -0.001343     -0.001285      0.002096      0.000000
     93 O2    s       0.009173     -0.000954     -0.000789      0.000000
     94 O2    s      -0.003307      0.001518     -0.000386      0.000000
     95 O2    s       0.000712      0.000762      0.003864      0.000000
     96 O2    s       0.007631     -0.000903     -0.002617      0.000000
     97 O2    s       0.001080     -0.000629     -0.000850      0.000000
     98 O2    s      -0.003608      0.000896     -0.002192      0.000000
     99 O2    s      -0.002828     -0.000723      0.001333      0.000000
    100 O2    s       0.002918      0.000181      0.001166      0.000000
    101 O2    s      -0.000150      0.000516     -0.001071      0.000000
    102 O2    s       0.000724     -0.001229     -0.002015      0.000000
    103 O2    s       0.001329      0.000875      0.001638      0.000000
    104 O2    s       0.001142     -0.000850      0.001738      0.000000
    105 O2    s       0.002579      0.000142     -0.000635      0.000000
    106 O2    s      -0.006705     -0.001790      0.000567      0.000000
    107 O2    s      -0.002081     -0.000100      0.000910      0.000000
    108 O2    s      -0.000434      0.000466      0.000309      0.000000
    109 O3    s      -0.000581      0.000027     -0.001147      0.000000
    110 O2    s       0.001454     -0.000296      0.000499      0.000000
    111 O3    s      -0.002553      0.000912      0.000346      0.000000
    112 O2    s       0.000893     -0.000913      0.000814      0.000000
    113 O2    s       0.002656     -0.000506     -0.001937      0.000000
    114 O3    s      -0.003041      0.000495     -0.001132      0.000000
    115 O2    s      -0.002272      0.000238      0.002560      0.000000
    116 O3    s       0.002195      0.000658      0.000067      0.000000
    117 O2    s       0.000508      0.001425     -0.002825      0.000000
    118 O3    s       0.001258     -0.000251     -0.001939      0.000000
    119 O2    s       0.000991      0.000261      0.002062      0.000000
    120 O3    s      -0.002124      0.000461      0.001182      0.000000
--------------------------------------------------------------------------------
  Maximum abs         0.023764      0.004699      0.008316      0.000000
--------------------------------------------------------------------------------


  Born effective charge tensors : 

-------------------------------------------------------------------------------
  Atom             x           y             z
-------------------------------------------------------------------------------
    1 Ge    x       4.3186     -0.1673     -0.0708
            y       0.1138      3.8632      0.0080
            z      -0.9119     -0.1027      4.3944
-------------------------------------------------------------------------------
    2 Ge    x       4.0345      0.3271      0.1313
            y       0.3265      4.1643      0.2174
            z       0.1949      0.0228      3.2894
-------------------------------------------------------------------------------
    3 Ge    x       4.0419     -0.3117      0.1591
            y      -0.3221      4.1857     -0.3203
            z       0.2312     -0.0326      3.3067
-------------------------------------------------------------------------------
    4 Si    x       3.4283     -0.1360      0.3135
            y       0.1059      3.2448      0.0328
            z       0.3221     -0.1138      3.8312
-------------------------------------------------------------------------------
    5 Si    x       3.5999      0.0545     -0.5162
            y      -0.1072      3.2778     -0.0286
            z      -0.4804     -0.0267      4.2127
-------------------------------------------------------------------------------
    6 Si    x       3.4604      0.1023      0.0735
            y      -0.0876      3.2406     -0.0293
            z       0.5773      0.0456      3.7667
-------------------------------------------------------------------------------
    7 Si    x       3.4625      0.1047     -0.3074
            y      -0.1146      3.2513     -0.0269
            z      -0.4030     -0.0022      3.1423
-------------------------------------------------------------------------------
    8 Si    x       3.8320      0.4170      0.2356
            y      -0.0041      3.5195      0.0150
            z       0.7921      0.2229      3.2899
-------------------------------------------------------------------------------
    9 Si    x       3.4737     -0.0994     -0.1199
            y       0.0979      3.2385      0.0276
            z      -0.5982      0.0041      3.0556
-------------------------------------------------------------------------------
   10 Si    x       3.6078     -0.3628      0.3743
            y       0.0607      3.5143      0.0331
            z       0.4232     -0.1289      3.1467
-------------------------------------------------------------------------------
   11 Si    x       3.4034      0.4462     -0.2751
            y       0.3018      3.5644     -0.3729
            z      -0.2384     -0.1482      2.9849
-------------------------------------------------------------------------------
   12 Si    x       3.1688      0.3107      0.0633
            y       0.1811      3.4917      0.1351
            z       0.1402      0.0934      2.8134
-------------------------------------------------------------------------------
   13 Si    x       3.2272     -0.2891     -0.0995
            y      -0.1996      3.4424      0.1534
            z      -0.1468      0.0565      2.7798
-------------------------------------------------------------------------------
   14 Si    x       3.1943     -0.3074      0.0863
            y      -0.1930      3.4744     -0.1627
            z       0.1252     -0.0645      2.7992
-------------------------------------------------------------------------------
   15 Si    x       3.2994      0.2723      0.0086
            y       0.3007      3.5269     -0.0967
            z      -0.0613     -0.0047      3.0990
-------------------------------------------------------------------------------
   16 Si    x       3.1993      0.2507      0.0517
            y       0.2789      3.4480      0.1775
            z       0.1119      0.0571      2.8044
-------------------------------------------------------------------------------
   17 Si    x       3.4958     -0.3864     -0.1684
            y      -0.4244      3.6158      0.2726
            z      -0.2299      0.0997      3.2709
-------------------------------------------------------------------------------
   18 Si    x       3.1728     -0.2341      0.0574
            y      -0.2983      3.4480     -0.1857
            z       0.1047     -0.0628      2.8166
-------------------------------------------------------------------------------
   19 Si    x       3.2376      0.2608     -0.1458
            y       0.2231      3.3759     -0.1849
            z      -0.1959     -0.0594      2.7516
-------------------------------------------------------------------------------
   20 Si    x       3.2453     -0.2817     -0.1580
            y      -0.2043      3.3744      0.1741
            z      -0.1392      0.0627      2.7397
-------------------------------------------------------------------------------
   21 Si    x       3.5940      0.3430     -0.0363
            y       0.1208      3.4913     -0.2080
            z      -0.0648     -0.0700      2.8104
-------------------------------------------------------------------------------
   22 Si    x       3.3474      0.2835      0.1865
            y      -0.0662      3.7317      0.1362
            z       0.1634      0.0247      2.8046
-------------------------------------------------------------------------------
   23 Si    x       3.5650     -0.3184     -0.0301
            y      -0.1159      3.5049      0.2146
            z      -0.0673      0.0829      2.8336
-------------------------------------------------------------------------------
   24 Si    x       3.3245     -0.2623      0.1581
            y       0.0655      3.6920     -0.0617
            z       0.1544     -0.0034      2.7840
-------------------------------------------------------------------------------
   25 O3    x      -2.1065     -0.9242      0.4357
            y      -0.9600     -2.2277      0.4787
            z       0.5252      0.4561     -1.6634
-------------------------------------------------------------------------------
   26 O2    x      -1.7572     -0.7358     -0.3615
            y      -0.7727     -1.9847     -0.3819
            z      -0.3763     -0.3522     -1.3387
-------------------------------------------------------------------------------
   27 O2    x      -1.7491      0.7292      0.3502
            y       0.7491     -1.9651     -0.3435
            z       0.3681     -0.3373     -1.3451
-------------------------------------------------------------------------------
   28 O2    x      -1.7559      0.7311     -0.2851
            y       0.7648     -1.9595      0.3261
            z      -0.3569      0.3000     -1.3303
-------------------------------------------------------------------------------
   29 O2    x      -1.6765     -0.6965      0.3230
            y      -0.6655     -2.0106      0.3367
            z       0.3437      0.3391     -1.3543
-------------------------------------------------------------------------------
   30 O2    x      -1.6647     -0.7173     -0.2710
            y      -0.6917     -2.0021     -0.2790
            z      -0.3603     -0.2912     -1.3394
-------------------------------------------------------------------------------
   31 O3    x      -2.0329      0.9405      0.4646
            y       0.8946     -2.3422     -0.4728
            z       0.5822     -0.4767     -1.6068
-------------------------------------------------------------------------------
   32 O2    x      -1.6460      0.7052     -0.3357
            y       0.6701     -2.0148      0.3267
            z      -0.3506      0.3318     -1.3594
-------------------------------------------------------------------------------
   33 O3    x      -2.0577      0.0023      1.0967
            y       0.0129     -1.1934      0.0014
            z       1.4278      0.0163     -3.3674
-------------------------------------------------------------------------------
   34 O2    x      -1.6089      0.0182     -0.8028
            y      -0.0003     -1.0929      0.0191
            z      -1.0114      0.0519     -2.7589
-------------------------------------------------------------------------------
   35 O3    x      -2.1084     -0.1050     -0.9762
            y      -0.0825     -1.2749     -0.0621
            z      -0.9699     -0.0567     -2.6326
-------------------------------------------------------------------------------
   36 O2    x      -1.7142      0.0232      0.6915
            y       0.0183     -1.1041     -0.0142
            z       0.6850     -0.0154     -2.2204
-------------------------------------------------------------------------------
   37 O2    x      -1.7691      0.0367     -0.6451
            y      -0.0050     -1.1208      0.0390
            z      -0.6217      0.0647     -2.1422
-------------------------------------------------------------------------------
   38 O2    x      -1.7605     -0.0149      0.7553
            y      -0.0077     -1.1147      0.0103
            z       0.7658      0.0194     -2.2083
-------------------------------------------------------------------------------
   39 O2    x      -1.6638     -0.7009      0.3846
            y      -0.6185     -2.0051      0.4051
            z       0.3806      0.3749     -1.2620
-------------------------------------------------------------------------------
   40 O3    x      -1.9350     -0.8631     -0.2885
            y      -0.7713     -2.5353     -0.2558
            z      -0.3730     -0.2484     -1.3770
-------------------------------------------------------------------------------
   41 O2    x      -1.6522      0.7103      0.3131
            y       0.6211     -1.9969     -0.3469
            z       0.3529     -0.3281     -1.2421
-------------------------------------------------------------------------------
   42 O3    x      -1.9606      0.8966     -0.4627
            y       0.7739     -2.5693      0.4535
            z      -0.4369      0.3947     -1.4165
-------------------------------------------------------------------------------
   43 O2    x      -1.7183     -0.7053      0.2593
            y      -0.6778     -1.9392      0.3029
            z       0.3107      0.2871     -1.2460
-------------------------------------------------------------------------------
   44 O2    x      -1.8289     -0.6526     -0.4445
            y      -0.6395     -1.8428     -0.4341
            z      -0.3818     -0.3425     -1.3022
-------------------------------------------------------------------------------
   45 O2    x      -1.7203      0.7114      0.3613
            y       0.6719     -1.9442     -0.3711
            z       0.3363     -0.3390     -1.2663
-------------------------------------------------------------------------------
   46 O2    x      -1.8169      0.6415     -0.2489
            y       0.6433     -1.8331      0.2911
            z      -0.3169      0.2572     -1.2336
-------------------------------------------------------------------------------
   47 O2    x      -1.8081     -0.0250     -0.5871
            y      -0.0201     -1.1669     -0.0032
            z      -0.3344      0.0011     -1.7078
-------------------------------------------------------------------------------
   48 O2    x      -1.7891      0.0308      0.5502
            y       0.0255     -1.1805     -0.0368
            z       0.3031     -0.0300     -1.7311
-------------------------------------------------------------------------------
   49 O2    x      -1.2141      0.0620      0.0521
            y       0.1081     -2.4961      0.0086
            z       0.0753     -0.0009     -1.0706
-------------------------------------------------------------------------------
   50 O2    x      -1.1632      0.0458     -0.0501
            y       0.1192     -2.5612      0.0526
            z      -0.0759      0.0160     -1.0647
-------------------------------------------------------------------------------
   51 O2    x      -1.1901     -0.0488      0.0458
            y      -0.0831     -2.5802      0.0131
            z       0.0718      0.0083     -1.0552
-------------------------------------------------------------------------------
   52 O2    x      -1.1611     -0.0280     -0.0513
            y      -0.0775     -2.5675     -0.0296
            z      -0.0761     -0.0037     -1.0615
-------------------------------------------------------------------------------
   53 O2    x      -2.3680     -0.0819      0.0273
            y      -0.0394     -1.2380      0.0760
            z       0.0277      0.0396     -1.0913
-------------------------------------------------------------------------------
   54 O2    x      -2.3682     -0.0974      0.0692
            y      -0.0562     -1.2710     -0.0663
            z       0.0771     -0.0427     -1.0942
-------------------------------------------------------------------------------
   55 O2    x      -2.3921      0.0661      0.0022
            y       0.0367     -1.2371     -0.0680
            z      -0.0053     -0.0405     -1.0873
-------------------------------------------------------------------------------
   56 O2    x      -2.4033      0.0667      0.0361
            y       0.0249     -1.2587      0.0638
            z       0.0413      0.0408     -1.0696
-------------------------------------------------------------------------------
   57 O2    x      -1.2233     -0.1516     -0.0600
            y      -0.0932     -1.3156     -0.0613
            z      -0.0486     -0.0782     -2.0308
-------------------------------------------------------------------------------
   58 O2    x      -1.1695     -0.1153      0.0359
            y      -0.0665     -1.3016     -0.0254
            z       0.0194     -0.0284     -2.0936
-------------------------------------------------------------------------------
   59 O2    x      -1.1935      0.1235     -0.0171
            y       0.0734     -1.2644      0.0443
            z       0.0067      0.0616     -2.0655
-------------------------------------------------------------------------------
   60 O2    x      -1.1676      0.1168      0.0667
            y       0.0734     -1.3039      0.0193
            z       0.0365      0.0120     -2.0849
-------------------------------------------------------------------------------
   61 O3    x      -1.3554     -0.1617     -0.1117
            y      -0.1478     -1.4401     -0.0579
            z      -0.0983     -0.0112     -2.6065
-------------------------------------------------------------------------------
   62 O2    x      -1.1825     -0.1228      0.0367
            y      -0.1108     -1.2754      0.0070
            z       0.0419     -0.0024     -2.0746
-------------------------------------------------------------------------------
   63 O3    x      -1.3718      0.1654     -0.1690
            y       0.1528     -1.4781      0.0721
            z      -0.1353      0.0079     -2.5530
-------------------------------------------------------------------------------
   64 O2    x      -1.1935      0.1299     -0.0066
            y       0.1166     -1.2718     -0.0291
            z      -0.0024     -0.0321     -2.0691
-------------------------------------------------------------------------------
   65 O2    x      -1.2183     -0.0198      0.0760
            y      -0.0680     -2.5060     -0.0282
            z       0.0996     -0.0181     -1.0309
-------------------------------------------------------------------------------
   66 O3    x      -1.4463     -0.1894     -0.1219
            y      -0.2492     -3.0714     -0.0995
            z      -0.1531     -0.1093     -1.1537
-------------------------------------------------------------------------------
   67 O2    x      -1.2191      0.0271      0.0813
            y       0.0803     -2.4822      0.0602
            z       0.0935      0.0428     -1.0376
-------------------------------------------------------------------------------
   68 O3    x      -1.4644      0.1987     -0.1122
            y       0.2468     -3.1244      0.1220
            z      -0.1386      0.1077     -1.1308
-------------------------------------------------------------------------------
   69 O2    x      -2.4057      0.1355      0.0034
            y       0.0791     -1.2329      0.0540
            z       0.0031      0.0252     -1.0696
-------------------------------------------------------------------------------
   70 O3    x      -3.0568      0.1026     -0.1037
            y       0.0481     -1.3735     -0.0822
            z      -0.0902     -0.0378     -1.2111
-------------------------------------------------------------------------------
   71 O2    x      -2.4480     -0.1673      0.0571
            y      -0.1064     -1.2435     -0.0464
            z       0.0202     -0.0196     -1.0530
-------------------------------------------------------------------------------
   72 O3    x      -3.0574     -0.1083     -0.0344
            y      -0.0335     -1.3662      0.0925
            z      -0.0849      0.0340     -1.2165
-------------------------------------------------------------------------------




  Elastic Constant Matrix: (Units=GPa)

-------------------------------------------------------------------------------
  Indices      1         2         3         4         5         6    
-------------------------------------------------------------------------------
       1     56.5869   28.0947   23.8967   -0.7102   -5.9934   -2.1033
       2     28.0947   70.3829   23.9765   -0.5181   -6.5903   -0.9063
       3     23.8967   23.9765   23.0153   -0.8997   -1.0671   -2.7439
       4     -0.7102   -0.5181   -0.8997   11.6577   -0.4455    0.8771
       5     -5.9934   -6.5903   -1.0671   -0.4455   24.2309   -1.7008
       6     -2.1033   -0.9063   -2.7439    0.8771   -1.7008   24.9436
-------------------------------------------------------------------------------


  Elastic Compliance Matrix: (Units=1/GPa)

-------------------------------------------------------------------------------
  Indices      1         2         3         4         5         6    
-------------------------------------------------------------------------------
       1    0.032590 -0.001529 -0.032017 -0.000287  0.006202 -0.000396
       2   -0.001529  0.022767 -0.022097 -0.000501  0.004734 -0.001392
       3   -0.032017 -0.022097  0.100259  0.003953 -0.008966  0.006776
       4   -0.000287 -0.000501  0.003953  0.086290  0.001374 -0.002548
       5    0.006202  0.004734 -0.008966  0.001374  0.043908  0.002654
       6   -0.000396 -0.001392  0.006776 -0.002548  0.002654  0.041022
-------------------------------------------------------------------------------

  Mechanical properties :

-------------------------------------------------------------------------------
  Convention :                    Reuss         Voigt         Hill
-------------------------------------------------------------------------------
  Bulk  Modulus (GPa)     =      22.55729      33.54678      28.05204
  Shear Modulus (GPa)     =      11.04001      17.10094      14.07048
-------------------------------------------------------------------------------
  Velocity S-wave (km/s)  =       2.37190       2.95203       2.67772
  Velocity P-wave (km/s)  =       4.35846       5.35859       4.88419
-------------------------------------------------------------------------------
  Compressibility (1/GPa) =    0.04433156
-------------------------------------------------------------------------------
  Stress axis :                     x             y             z
-------------------------------------------------------------------------------
  Youngs Moduli (GPa)     =      30.68415      43.92237       9.97419
-------------------------------------------------------------------------------
  Poissons Ratio (x)      =                     0.06715       0.31934
  Poissons Ratio (y)      =       0.04691                     0.22040
  Poissons Ratio (z)      =       0.98240       0.97056
-------------------------------------------------------------------------------


  Piezoelectric Strain Matrix: (Units=C/m**2)

-------------------------------------------------------------------------------
  Indices      1         2         3         4         5         6    
-------------------------------------------------------------------------------
       x    -0.03207   0.17223  -0.10928  -0.01666   0.00542   0.16404
       y     0.74014  -0.28653  -0.21668  -0.00342   0.12444   0.10087
       z     0.15711   0.04573   0.05767   0.10400  -0.43433   0.11134
-------------------------------------------------------------------------------


  Piezoelectric Stress Matrix: (Units=10**-11 C/N)

-------------------------------------------------------------------------------
  Indices      1         2         3         4         5         6    
-------------------------------------------------------------------------------
       x     0.21638   0.61908  -1.27386  -0.23569   0.22466   0.58186
       y     3.22295  -0.24166  -3.95354  -0.13063   1.09037   0.31142
       z     0.04360  -0.27366   0.48012   0.82535  -1.79581   0.34145
-------------------------------------------------------------------------------


  Static dielectric constant tensor : 

-------------------------------------------------------------------------------
              x         y         z
-------------------------------------------------------------------------------
       x     3.98709   0.02460  -0.05697
       y     0.02460   4.13832   0.05285
       z    -0.05697   0.05285   3.30232
--------------------------------------------------------------------------------

  High frequency dielectric constant tensor : 

-------------------------------------------------------------------------------
              x         y         z
-------------------------------------------------------------------------------
       x     1.68181   0.00003  -0.00122
       y     0.00003   1.68840  -0.00017
       z    -0.00122  -0.00017   1.62048
-------------------------------------------------------------------------------

  Static refractive indices : 

-------------------------------------------------------------------------------
    1 =    1.81496      2 =    1.99729      3 =    2.03581
-------------------------------------------------------------------------------

  High frequency refractive indices : 

-------------------------------------------------------------------------------
    1 =    1.27297      2 =    1.29686      3 =    1.29939
-------------------------------------------------------------------------------


  Time to end of optimisation =      10.7036 seconds


  Peak dynamic memory used =       5.01 MB 


  Timing analysis for GULP :

--------------------------------------------------------------------------------
  Task / Subroutine                                          Time (Seconds)
--------------------------------------------------------------------------------
  Calculation of reciprocal space energy and derivatives          0.6252
  Calculation of real space energy and derivatives                6.7686
  Calculation of three-body energy and derivatives                0.6370
  Calculation and manipulation of Hessian matrix                  2.8642
  Calculation of matrix inversion                                 0.0446
  Global summation overhead                                       0.0002
--------------------------------------------------------------------------------
  Total CPU time                                                 10.7036
--------------------------------------------------------------------------------


  Dump file written as c00114.vasp.grs
  CIF file written as c00114.vasp.cif


  Job Finished at 11:46.27  7th October    2025                               

