********************************************************************************
*                       GENERAL UTILITY LATTICE PROGRAM                        *
*                                 Julian Gale                                  *
*                       Curtin Institute for Computation                       *
*                    School of Molecular and Life Sciences                     *
*                    Curtin University, Western Australia                      *
********************************************************************************
* Version = 6.1.2 * Last modified =   3rd November 2022                        *
********************************************************************************
*  optimise     - perform optimisation run                                     *
*  conp         - constant pressure calculation                                *
*  property     - calculate properties for final geometry                      *
********************************************************************************

  Job Started  at 11:57.17  7th October    2025                               

  Number of CPUs =     1


  Total number of configurations input =      1

********************************************************************************
*  Input for Configuration =   1 : c00175.vasp                                 *
********************************************************************************

  Formula = Ge3Si21O48                                                  

  Number of irreducible atoms/shells =     120


  Total number atoms/shells =     120

  Dimensionality = 3               :  Bulk   



  Cartesian lattice vectors (Angstroms) :

       17.182800    0.000000    0.000000
        0.000000    7.513760    0.000000
        0.000000    0.000000   10.447700

  Cell parameters (Angstroms/Degrees):

  a =      17.1828    alpha =  90.0000
  b =       7.5138    beta  =  90.0000
  c =      10.4477    gamma =  90.0000

  Initial cell volume =        1348.875752 Angs**3

  Temperature of configuration =   0.00     K 

  Pressure of configuration =         0.000 GPa 

  Fractional coordinates of asymmetric unit :

--------------------------------------------------------------------------------
   No.  Atomic       x           y          z         Charge      Occupancy
        Label      (Frac)      (Frac)     (Frac)        (e)         (Frac)  
--------------------------------------------------------------------------------
      1 Ge    c    0.556730    0.000000    0.122130     4.00000    1.000000    
      2 Ge    c    0.660190 *  0.706090 *  0.726560 *   4.00000    1.000000    
      3 Ge    c    0.660660 *  0.294090 *  0.017440 *   4.00000    1.000000    
      4 Si    c    0.052090 *  0.000000 *  0.372270 *   4.00000    1.000000    
      5 Si    c    0.447910 *  0.000000 *  0.372270 *   4.00000    1.000000    
      6 Si    c    0.947910 *  0.000000 *  0.627730 *   4.00000    1.000000    
      7 Si    c    0.552090 *  0.000000 *  0.627730 *   4.00000    1.000000    
      8 Si    c    0.943270 *  0.000000 *  0.122130 *   4.00000    1.000000    
      9 Si    c    0.443270 *  0.000000 *  0.877870 *   4.00000    1.000000    
     10 Si    c    0.056730 *  0.000000 *  0.877870 *   4.00000    1.000000    
     11 Si    c    0.160190 *  0.293910 *  0.273440 *   4.00000    1.000000    
     12 Si    c    0.339810 *  0.706090 *  0.273440 *   4.00000    1.000000    
     13 Si    c    0.839810 *  0.293910 *  0.726560 *   4.00000    1.000000    
     14 Si    c    0.839810 *  0.706090 *  0.726560 *   4.00000    1.000000    
     15 Si    c    0.660190 *  0.293910 *  0.726560 *   4.00000    1.000000    
     16 Si    c    0.160190 *  0.706090 *  0.273440 *   4.00000    1.000000    
     17 Si    c    0.339810 *  0.293910 *  0.273440 *   4.00000    1.000000    
     18 Si    c    0.839340 *  0.705910 *  0.017440 *   4.00000    1.000000    
     19 Si    c    0.339340 *  0.294090 *  0.982560 *   4.00000    1.000000    
     20 Si    c    0.160660 *  0.705910 *  0.982560 *   4.00000    1.000000    
     21 Si    c    0.339340 *  0.705910 *  0.982560 *   4.00000    1.000000    
     22 Si    c    0.160660 *  0.294090 *  0.982560 *   4.00000    1.000000    
     23 Si    c    0.660660 *  0.705910 *  0.017440 *   4.00000    1.000000    
     24 Si    c    0.839340 *  0.294090 *  0.017440 *   4.00000    1.000000    
     25 O2    c    0.106570 *  0.174340 *  0.366200 *   0.87073    1.000000    
     26 O2    c    0.393430 *  0.825660 *  0.366200 *   0.87073    1.000000    
     27 O2    c    0.893430 *  0.174340 *  0.633800 *   0.87073    1.000000    
     28 O3    c    0.606570 *  0.825660 *  0.633800 *   1.33043    1.000000    
     29 O2    c    0.893430 *  0.825660 *  0.633800 *   0.87073    1.000000    
     30 O2    c    0.606570 *  0.174340 *  0.633800 *   0.87073    1.000000    
     31 O2    c    0.106570 *  0.825660 *  0.366200 *   0.87073    1.000000    
     32 O2    c    0.393430 *  0.174340 *  0.366200 *   0.87073    1.000000    
     33 O2    c    0.000000 *  0.000000 *  0.500000 *   0.87073    1.000000    
     34 O2    c    0.500000 *  0.000000 *  0.500000 *   0.87073    1.000000    
     35 O2    c    0.994520 *  0.000000 *  0.250840 *   0.87073    1.000000    
     36 O3    c    0.505480 *  0.000000 *  0.250840 *   1.33043    1.000000    
     37 O2    c    0.005480 *  0.000000 *  0.749160 *   0.87073    1.000000    
     38 O2    c    0.494520 *  0.000000 *  0.749160 *   0.87073    1.000000    
     39 O1    c    0.610230 *  0.175520 *  0.115390 *   1.73396    1.000000    
     40 O2    c    0.889770 *  0.824480 *  0.115390 *   0.87073    1.000000    
     41 O2    c    0.389770 *  0.175520 *  0.884610 *   0.87073    1.000000    
     42 O2    c    0.110230 *  0.824480 *  0.884610 *   0.87073    1.000000    
     43 O2    c    0.389770 *  0.824480 *  0.884610 *   0.87073    1.000000    
     44 O2    c    0.110230 *  0.175520 *  0.884610 *   0.87073    1.000000    
     45 O3    c    0.610230 *  0.824480 *  0.115390 *   1.33043    1.000000    
     46 O2    c    0.889770 *  0.175520 *  0.115390 *   0.87073    1.000000    
     47 O3    c    0.500000 *  0.000000 *  0.000000 *   1.33043    1.000000    
     48 O2    c    0.000000 *  0.000000 *  0.000000 *   0.87073    1.000000    
     49 O2    c    0.151750 *  0.500000 *  0.313330 *   0.87073    1.000000    
     50 O2    c    0.348250 *  0.500000 *  0.313330 *   0.87073    1.000000    
     51 O2    c    0.848250 *  0.500000 *  0.686670 *   0.87073    1.000000    
     52 O3    c    0.651750 *  0.500000 *  0.686670 *   1.33043    1.000000    
     53 O2    c    0.250000 *  0.234950 *  0.285720 *   0.87073    1.000000    
     54 O2    c    0.250000 *  0.765050 *  0.285720 *   0.87073    1.000000    
     55 O2    c    0.750000 *  0.234950 *  0.714280 *   0.87073    1.000000    
     56 O3    c    0.750000 *  0.765050 *  0.714280 *   1.33043    1.000000    
     57 O2    c    0.131410 *  0.268650 *  0.127790 *   0.87073    1.000000    
     58 O2    c    0.368590 *  0.731350 *  0.127790 *   0.87073    1.000000    
     59 O2    c    0.868590 *  0.268650 *  0.872210 *   0.87073    1.000000    
     60 O3    c    0.631410 *  0.731350 *  0.872210 *   1.33043    1.000000    
     61 O2    c    0.868590 *  0.731350 *  0.872210 *   0.87073    1.000000    
     62 O3    c    0.631410 *  0.268650 *  0.872210 *   1.33043    1.000000    
     63 O2    c    0.131410 *  0.731350 *  0.127790 *   0.87073    1.000000    
     64 O2    c    0.368590 *  0.268650 *  0.127790 *   0.87073    1.000000    
     65 O3    c    0.653920 *  0.500000 *  0.058200 *   1.33043    1.000000    
     66 O2    c    0.846080 *  0.500000 *  0.058200 *   0.87073    1.000000    
     67 O2    c    0.346080 *  0.500000 *  0.941800 *   0.87073    1.000000    
     68 O2    c    0.153920 *  0.500000 *  0.941800 *   0.87073    1.000000    
     69 O3    c    0.750000 *  0.231060 *  0.027050 *   1.33043    1.000000    
     70 O2    c    0.750000 *  0.768940 *  0.027050 *   0.87073    1.000000    
     71 O2    c    0.250000 *  0.231060 *  0.972950 *   0.87073    1.000000    
     72 O2    c    0.250000 *  0.768940 *  0.972950 *   0.87073    1.000000    
     73 O2    s    0.106570 *  0.174340 *  0.366200 *  -2.87073    1.000000    
     74 O2    s    0.393430 *  0.825660 *  0.366200 *  -2.87073    1.000000    
     75 O2    s    0.893430 *  0.174340 *  0.633800 *  -2.87073    1.000000    
     76 O3    s    0.606570 *  0.825660 *  0.633800 *  -3.33043    1.000000    
     77 O2    s    0.893430 *  0.825660 *  0.633800 *  -2.87073    1.000000    
     78 O2    s    0.606570 *  0.174340 *  0.633800 *  -2.87073    1.000000    
     79 O2    s    0.106570 *  0.825660 *  0.366200 *  -2.87073    1.000000    
     80 O2    s    0.393430 *  0.174340 *  0.366200 *  -2.87073    1.000000    
     81 O2    s    0.000000 *  0.000000 *  0.500000 *  -2.87073    1.000000    
     82 O2    s    0.500000 *  0.000000 *  0.500000 *  -2.87073    1.000000    
     83 O2    s    0.994520 *  0.000000 *  0.250840 *  -2.87073    1.000000    
     84 O3    s    0.505480 *  0.000000 *  0.250840 *  -3.33043    1.000000    
     85 O2    s    0.005480 *  0.000000 *  0.749160 *  -2.87073    1.000000    
     86 O2    s    0.494520 *  0.000000 *  0.749160 *  -2.87073    1.000000    
     87 O1    s    0.610230 *  0.175520 *  0.115390 *  -3.73396    1.000000    
     88 O2    s    0.889770 *  0.824480 *  0.115390 *  -2.87073    1.000000    
     89 O2    s    0.389770 *  0.175520 *  0.884610 *  -2.87073    1.000000    
     90 O2    s    0.110230 *  0.824480 *  0.884610 *  -2.87073    1.000000    
     91 O2    s    0.389770 *  0.824480 *  0.884610 *  -2.87073    1.000000    
     92 O2    s    0.110230 *  0.175520 *  0.884610 *  -2.87073    1.000000    
     93 O3    s    0.610230 *  0.824480 *  0.115390 *  -3.33043    1.000000    
     94 O2    s    0.889770 *  0.175520 *  0.115390 *  -2.87073    1.000000    
     95 O3    s    0.500000 *  0.000000 *  0.000000 *  -3.33043    1.000000    
     96 O2    s    0.000000 *  0.000000 *  0.000000 *  -2.87073    1.000000    
     97 O2    s    0.151750 *  0.500000 *  0.313330 *  -2.87073    1.000000    
     98 O2    s    0.348250 *  0.500000 *  0.313330 *  -2.87073    1.000000    
     99 O2    s    0.848250 *  0.500000 *  0.686670 *  -2.87073    1.000000    
    100 O3    s    0.651750 *  0.500000 *  0.686670 *  -3.33043    1.000000    
    101 O2    s    0.250000 *  0.234950 *  0.285720 *  -2.87073    1.000000    
    102 O2    s    0.250000 *  0.765050 *  0.285720 *  -2.87073    1.000000    
    103 O2    s    0.750000 *  0.234950 *  0.714280 *  -2.87073    1.000000    
    104 O3    s    0.750000 *  0.765050 *  0.714280 *  -3.33043    1.000000    
    105 O2    s    0.131410 *  0.268650 *  0.127790 *  -2.87073    1.000000    
    106 O2    s    0.368590 *  0.731350 *  0.127790 *  -2.87073    1.000000    
    107 O2    s    0.868590 *  0.268650 *  0.872210 *  -2.87073    1.000000    
    108 O3    s    0.631410 *  0.731350 *  0.872210 *  -3.33043    1.000000    
    109 O2    s    0.868590 *  0.731350 *  0.872210 *  -2.87073    1.000000    
    110 O3    s    0.631410 *  0.268650 *  0.872210 *  -3.33043    1.000000    
    111 O2    s    0.131410 *  0.731350 *  0.127790 *  -2.87073    1.000000    
    112 O2    s    0.368590 *  0.268650 *  0.127790 *  -2.87073    1.000000    
    113 O3    s    0.653920 *  0.500000 *  0.058200 *  -3.33043    1.000000    
    114 O2    s    0.846080 *  0.500000 *  0.058200 *  -2.87073    1.000000    
    115 O2    s    0.346080 *  0.500000 *  0.941800 *  -2.87073    1.000000    
    116 O2    s    0.153920 *  0.500000 *  0.941800 *  -2.87073    1.000000    
    117 O3    s    0.750000 *  0.231060 *  0.027050 *  -3.33043    1.000000    
    118 O2    s    0.750000 *  0.768940 *  0.027050 *  -2.87073    1.000000    
    119 O2    s    0.250000 *  0.231060 *  0.972950 *  -2.87073    1.000000    
    120 O2    s    0.250000 *  0.768940 *  0.972950 *  -2.87073    1.000000    
--------------------------------------------------------------------------------



********************************************************************************
*  General input information                                                   *
********************************************************************************

  Species output for all configurations : 

--------------------------------------------------------------------------------
  Species    Type    Atomic    Atomic    Charge       Radii (Angs)     Library
                     Number     Mass       (e)     Cova   Ionic  VDW   Symbol
--------------------------------------------------------------------------------
    Ge       Core       32      72.61   4.000000   1.170  0.000  1.750 Ge       
    Si       Core       14      28.09   4.000000   1.200  0.000  2.100 Si       
    O1       Core        8      16.00   1.733957   0.730  0.000  1.360 O1       
    O2       Core        8      16.00   0.870733   0.730  0.000  1.360 O2       
    O3       Core        8      16.00   1.330431   0.730  0.000  1.360 O3       
    O1       Shell       8       0.00  -3.733957   0.730  0.000  0.000 O1       
    O2       Shell       8       0.00  -2.870733   0.730  0.000  0.000 O2       
    O3       Shell       8       0.00  -3.330431   0.730  0.000  0.000 O3       
--------------------------------------------------------------------------------


  Lattice summation method               =    Ewald          (3-D)
                                         =    Parry          (2-D)
                                         =    Saunders et al (1-D)
  Accuracy factor for lattice sums       =   12.000


  Analytic derivatives to be used

  Time limit = Infinity

  Maximum range for interatomic potentials =    100000.000000 Angstroms

  General interatomic potentials :

--------------------------------------------------------------------------------
Atom  Types   Potential      Parameter       Value         Units   Cutoffs(Ang)
  1     2                                                            Min /  Max 
--------------------------------------------------------------------------------
Si   c O1   s Buckingham    Buckingham A     1315.2478    eV        0.000 16.000
                            Buckingham rho  0.31775900    Ang       
                            Buckingham C     10.141118    eV*Ang^6  
--------------------------------------------------------------------------------
Si   c O2   s Buckingham    Buckingham A     1315.2478    eV        0.000 16.000
                            Buckingham rho  0.31775900    Ang       
                            Buckingham C     10.141118    eV*Ang^6  
--------------------------------------------------------------------------------
Si   c O3   s Buckingham    Buckingham A     1315.2478    eV        0.000 16.000
                            Buckingham rho  0.31775900    Ang       
                            Buckingham C     10.141118    eV*Ang^6  
--------------------------------------------------------------------------------
Ge   c O1   s Buckingham    Buckingham A     1497.3996    eV        0.000 16.000
                            Buckingham rho  0.32564600    Ang       
                            Buckingham C     16.808599    eV*Ang^6  
--------------------------------------------------------------------------------
Ge   c O2   s Buckingham    Buckingham A     1497.3996    eV        0.000 16.000
                            Buckingham rho  0.32564600    Ang       
                            Buckingham C     16.808599    eV*Ang^6  
--------------------------------------------------------------------------------
Ge   c O3   s Buckingham    Buckingham A     1497.3996    eV        0.000 16.000
                            Buckingham rho  0.32564600    Ang       
                            Buckingham C     16.808599    eV*Ang^6  
--------------------------------------------------------------------------------
O1   s O1   s Buckingham    Buckingham A     22764.000    eV        0.000 16.000
                            Buckingham rho  0.14900000    Ang       
                            Buckingham C     10.937044    eV*Ang^6  
--------------------------------------------------------------------------------
O1   s O2   s Buckingham    Buckingham A     22764.000    eV        0.000 16.000
                            Buckingham rho  0.14900000    Ang       
                            Buckingham C     10.937044    eV*Ang^6  
--------------------------------------------------------------------------------
O1   s O3   s Buckingham    Buckingham A     22764.000    eV        0.000 16.000
                            Buckingham rho  0.14900000    Ang       
                            Buckingham C     10.937044    eV*Ang^6  
--------------------------------------------------------------------------------
O2   s O2   s Buckingham    Buckingham A     22764.000    eV        0.000 16.000
                            Buckingham rho  0.14900000    Ang       
                            Buckingham C     10.937044    eV*Ang^6  
--------------------------------------------------------------------------------
O2   s O3   s Buckingham    Buckingham A     22764.000    eV        0.000 16.000
                            Buckingham rho  0.14900000    Ang       
                            Buckingham C     10.937044    eV*Ang^6  
--------------------------------------------------------------------------------
O3   s O3   s Buckingham    Buckingham A     22764.000    eV        0.000 16.000
                            Buckingham rho  0.14900000    Ang       
                            Buckingham C     10.937044    eV*Ang^6  
--------------------------------------------------------------------------------
O1   c O1   s Spring (c-s)  Spring k 2       180.31577    eV*Ang^-2 0.000  0.800
                            Spring k 4       0.0000000    eV*Ang^-4 
--------------------------------------------------------------------------------
O2   c O2   s Spring (c-s)  Spring k 2       75.969800    eV*Ang^-2 0.000  0.800
                            Spring k 4       0.0000000    eV*Ang^-4 
--------------------------------------------------------------------------------
O3   c O3   s Spring (c-s)  Spring k 2       128.14270    eV*Ang^-2 0.000  0.800
                            Spring k 4       0.0000000    eV*Ang^-4 
--------------------------------------------------------------------------------

  General Three-body potentials :

--------------------------------------------------------------------------------
  Atoms       Potential      Parameter       Value         Units   Cutoffs(Ang)
  1 / 2 / 3                                                          Min /  Max 
--------------------------------------------------------------------------------
Si    core    Harmonic      Three-body cnst  1.2614000    eV*rad^-2 0.000  1.900
O1    shel                  Three-body angl  109.47000    degrees   0.000  1.900
O1    shel                  Three-body k4    0.0000000    eV*rad^-4 0.000  3.500
                            Three-body k3    0.0000000    eV*rad^-3 
--------------------------------------------------------------------------------
Si    core    Harmonic      Three-body cnst  1.2614000    eV*rad^-2 0.000  1.900
O1    shel                  Three-body angl  109.47000    degrees   0.000  1.900
õ(1   shel                  Three-body k4    0.0000000    eV*rad^-4 0.000  3.500
                            Three-body k3    0.0000000    eV*rad^-3 
--------------------------------------------------------------------------------
Si    core    Harmonic      Three-body cnst  1.2614000    eV*rad^-2 0.000  1.900
õ(1   shel                  Three-body angl  109.47000    degrees   0.000  1.900
õ(1   shel                  Three-body k4    0.0000000    eV*rad^-4 0.000  3.500
                            Three-body k3    0.0000000    eV*rad^-3 
--------------------------------------------------------------------------------
Si    core    Harmonic      Three-body cnst  1.2614000    eV*rad^-2 0.000  1.900
O1    shel                  Three-body angl  109.47000    degrees   0.000  1.900
O2    shel                  Three-body k4    0.0000000    eV*rad^-4 0.000  3.500
                            Three-body k3    0.0000000    eV*rad^-3 
--------------------------------------------------------------------------------
Si    core    Harmonic      Three-body cnst  1.2614000    eV*rad^-2 0.000  1.900
O1    shel                  Three-body angl  109.47000    degrees   0.000  1.900
õ(2   shel                  Three-body k4    0.0000000    eV*rad^-4 0.000  3.500
                            Three-body k3    0.0000000    eV*rad^-3 
--------------------------------------------------------------------------------
Si    core    Harmonic      Three-body cnst  1.2614000    eV*rad^-2 0.000  1.900
O2    shel                  Three-body angl  109.47000    degrees   0.000  1.900
õ(1   shel                  Three-body k4    0.0000000    eV*rad^-4 0.000  3.500
                            Three-body k3    0.0000000    eV*rad^-3 
--------------------------------------------------------------------------------
Si    core    Harmonic      Three-body cnst  1.2614000    eV*rad^-2 0.000  1.900
õ(1   shel                  Three-body angl  109.47000    degrees   0.000  1.900
õ(2   shel                  Three-body k4    0.0000000    eV*rad^-4 0.000  3.500
                            Three-body k3    0.0000000    eV*rad^-3 
--------------------------------------------------------------------------------
Si    core    Harmonic      Three-body cnst  1.2614000    eV*rad^-2 0.000  1.900
O2    shel                  Three-body angl  109.47000    degrees   0.000  1.900
O2    shel                  Three-body k4    0.0000000    eV*rad^-4 0.000  3.500
                            Three-body k3    0.0000000    eV*rad^-3 
--------------------------------------------------------------------------------
Si    core    Harmonic      Three-body cnst  1.2614000    eV*rad^-2 0.000  1.900
O2    shel                  Three-body angl  109.47000    degrees   0.000  1.900
õ(2   shel                  Three-body k4    0.0000000    eV*rad^-4 0.000  3.500
                            Three-body k3    0.0000000    eV*rad^-3 
--------------------------------------------------------------------------------
Si    core    Harmonic      Three-body cnst  1.2614000    eV*rad^-2 0.000  1.900
õ(2   shel                  Three-body angl  109.47000    degrees   0.000  1.900
õ(2   shel                  Three-body k4    0.0000000    eV*rad^-4 0.000  3.500
                            Three-body k3    0.0000000    eV*rad^-3 
--------------------------------------------------------------------------------

********************************************************************************
*  Output for configuration   1 : c00175.vasp                                  *
********************************************************************************


  Components of energy : 

--------------------------------------------------------------------------------
  Interatomic potentials     =         760.34908818 eV    
  Three-body potentials      =           0.01504172 eV    
  Monopole - monopole (real) =       -2676.00317478 eV    
  Monopole - monopole (recip)=       -1115.35404472 eV    
  Monopole - monopole (total)=       -3791.35721950 eV    
--------------------------------------------------------------------------------
  Total lattice energy       =       -3030.99308960 eV    
--------------------------------------------------------------------------------
  Total lattice energy       =         -292444.5002 kJ/(mole unit cells)
--------------------------------------------------------------------------------


  Number of variables =      363

  Maximum number of calculations  =          1000
  Maximum Hessian update interval =            10
  Maximum step size               =   0.100000000
  Maximum parameter tolerance     =   0.000010000
  Maximum function  tolerance     =   0.000010000
  Maximum gradient  tolerance     =   0.001000000
  Maximum gradient  component     =   0.010000000

  Symmetry not applied to optimisation

  Cell parameters to be optimised using strains

  Newton-Raphson optimiser to be used

  BFGS hessian update to be used

  Lower half triangular hessian to be used

  Minimiser to switch to RFO
  When gradient norm is less than     0.050000

  Dumpfile to be written after every cycle

  Start of bulk optimisation :

  Cycle:      0 Energy:     -3030.993090  Gnorm:      4.409416  CPU:    0.127
  ** Hessian calculated **
  Cycle:      1 Energy:     -3061.749529  Gnorm:      0.965374  CPU:    0.263
  ** Hessian calculated **
  Cycle:      2 Energy:     -3064.262631  Gnorm:      0.541097  CPU:    0.466
  Cycle:      3 Energy:     -3065.055847  Gnorm:      0.345468  CPU:    0.571
  Cycle:      4 Energy:     -3065.661835  Gnorm:      0.263406  CPU:    0.698
  Cycle:      5 Energy:     -3066.199919  Gnorm:      0.203687  CPU:    0.824
  Cycle:      6 Energy:     -3066.544517  Gnorm:      0.164181  CPU:    0.930
  Cycle:      7 Energy:     -3066.758849  Gnorm:      0.124779  CPU:    1.036
  Cycle:      8 Energy:     -3066.877271  Gnorm:      0.094456  CPU:    1.143
  Cycle:      9 Energy:     -3066.941963  Gnorm:      0.072334  CPU:    1.270
  Cycle:     10 Energy:     -3066.984061  Gnorm:      0.067674  CPU:    1.397
  Cycle:     11 Energy:     -3067.031753  Gnorm:      0.073678  CPU:    1.529
  ** Hessian calculated **
  Cycle:     12 Energy:     -3067.046577  Gnorm:      0.072797  CPU:    1.776
  Cycle:     13 Energy:     -3067.075714  Gnorm:      0.071123  CPU:    1.934
  Cycle:     14 Energy:     -3067.129106  Gnorm:      0.068208  CPU:    2.092
  Cycle:     15 Energy:     -3067.195895  Gnorm:      0.064274  CPU:    2.228
  Cycle:     16 Energy:     -3067.263111  Gnorm:      0.058576  CPU:    2.385
  Cycle:     17 Energy:     -3067.297551  Gnorm:      0.055255  CPU:    2.499
  ** Hessian calculated **
  Cycle:     18 Energy:     -3067.307054  Gnorm:      0.043946  CPU:    2.715
  ** Hessian has required structure
  Cycle:     19 Energy:     -3067.323369  Gnorm:      0.070179  CPU:    2.929
  ** Hessian has required structure
  Cycle:     20 Energy:     -3067.341173  Gnorm:      0.060095  CPU:    3.121
  ** Hessian has required structure
  Cycle:     21 Energy:     -3067.352187  Gnorm:      0.082236  CPU:    3.290
  ** Hessian has required structure
  Cycle:     22 Energy:     -3067.358469  Gnorm:      0.073230  CPU:    3.460
  ** Hessian has required structure
  Cycle:     23 Energy:     -3067.368812  Gnorm:      0.086928  CPU:    3.631
  ** Hessian has required structure
  Cycle:     24 Energy:     -3067.375284  Gnorm:      0.067566  CPU:    3.800
  ** Hessian has required structure
  Cycle:     25 Energy:     -3067.380460  Gnorm:      0.089569  CPU:    3.969
  ** Hessian has required structure
  Cycle:     26 Energy:     -3067.395913  Gnorm:      0.087240  CPU:    4.135
  ** Hessian has required structure
  Cycle:     27 Energy:     -3067.399613  Gnorm:      0.074921  CPU:    4.302
  ** Hessian has wrong structure
  ** Imaginary eigenvectors =   2
  Cycle:     28 Energy:     -3067.429901  Gnorm:      0.078162  CPU:    4.840
  ** Hessian has wrong structure
  ** Imaginary eigenvectors =   2
  Cycle:     29 Energy:     -3067.489739  Gnorm:      0.090411  CPU:    5.328
  ** Hessian has required structure
  Cycle:     30 Energy:     -3067.711046  Gnorm:      0.060800  CPU:    5.646
  ** Hessian has required structure
  Cycle:     31 Energy:     -3067.783668  Gnorm:      0.025969  CPU:    5.839
  ** Hessian has required structure
  Cycle:     32 Energy:     -3067.816098  Gnorm:      0.031640  CPU:    6.053
  ** Hessian has required structure
  Cycle:     33 Energy:     -3067.858807  Gnorm:      0.033242  CPU:    6.266
  ** Hessian has required structure
  Cycle:     34 Energy:     -3067.882818  Gnorm:      0.023681  CPU:    6.457
  ** Hessian has required structure
  Cycle:     35 Energy:     -3067.902471  Gnorm:      0.030761  CPU:    6.672
  ** Hessian has required structure
  Cycle:     36 Energy:     -3067.933588  Gnorm:      0.032147  CPU:    6.884
  ** Hessian has required structure
  Cycle:     37 Energy:     -3067.954763  Gnorm:      0.026502  CPU:    7.077
  ** Hessian has required structure
  Cycle:     38 Energy:     -3067.974742  Gnorm:      0.028242  CPU:    7.271
  ** Hessian has required structure
  Cycle:     39 Energy:     -3067.992869  Gnorm:      0.026925  CPU:    7.461
  ** Hessian has wrong structure
  ** Imaginary eigenvectors =   1
  Cycle:     40 Energy:     -3068.025229  Gnorm:      0.031693  CPU:    7.907
  ** Hessian has required structure
  Cycle:     41 Energy:     -3068.074964  Gnorm:      0.020552  CPU:    8.223
  ** Hessian has required structure
  Cycle:     42 Energy:     -3068.089638  Gnorm:      0.010629  CPU:    8.435
  ** Hessian has required structure
  Cycle:     43 Energy:     -3068.093923  Gnorm:      0.009329  CPU:    8.626
  ** Hessian has required structure
  Cycle:     44 Energy:     -3068.096160  Gnorm:      0.002886  CPU:    8.820
  ** Hessian has required structure
  Cycle:     45 Energy:     -3068.096744  Gnorm:      0.002247  CPU:    9.017
  ** Hessian has required structure
  Cycle:     46 Energy:     -3068.097004  Gnorm:      0.001222  CPU:    9.233
  ** Hessian has required structure
  Cycle:     47 Energy:     -3068.097090  Gnorm:      0.000788  CPU:    9.448
  ** Hessian has required structure
  Cycle:     48 Energy:     -3068.097122  Gnorm:      0.000402  CPU:    9.661
  ** Hessian has required structure
  Cycle:     49 Energy:     -3068.097129  Gnorm:      0.000297  CPU:    9.851
  ** Hessian has required structure
  Cycle:     50 Energy:     -3068.097133  Gnorm:      0.000202  CPU:   10.021
  ** Hessian has required structure
  Cycle:     51 Energy:     -3068.097133  Gnorm:      0.000202  CPU:   10.356
  ** Hessian calculated **


  **** Optimisation achieved ****


  Final energy =   -3068.09713322 eV      
  Final Gnorm  =       0.00020238

  Components of energy : 

--------------------------------------------------------------------------------
  Interatomic potentials     =         816.47607206 eV    
  Three-body potentials      =           0.24352725 eV    
  Monopole - monopole (real) =       -2202.76653758 eV    
  Monopole - monopole (recip)=       -1682.05019496 eV    
  Monopole - monopole (total)=       -3884.81673254 eV    
--------------------------------------------------------------------------------
  Total lattice energy       =       -3068.09713322 eV    
--------------------------------------------------------------------------------
  Total lattice energy       =         -296024.4732 kJ/(mole unit cells)
--------------------------------------------------------------------------------

  Final fractional coordinates of atoms :

--------------------------------------------------------------------------------
   No.  Atomic        x           y          z          Radius
        Label       (Frac)      (Frac)     (Frac)       (Angs) 
--------------------------------------------------------------------------------
     1  Ge    c     0.556730    0.000000    0.122130    0.000000
     2  Ge    c     0.668052    0.698710    0.694891    0.000000
     3  Ge    c     0.647612    0.322426    0.012434    0.000000
     4  Si    c     0.046378    0.973554    0.348062    0.000000
     5  Si    c     0.445824    0.980877    0.367893    0.000000
     6  Si    c     0.952433    0.955326    0.612156    0.000000
     7  Si    c     0.546657    0.978564    0.618508    0.000000
     8  Si    c     0.943745    0.975587    0.095030    0.000000
     9  Si    c     0.447898    0.961796    0.876456    0.000000
    10  Si    c     0.059324    0.966043    0.858675    0.000000
    11  Si    c     0.162380    0.258949    0.259931    0.000000
    12  Si    c     0.332667    0.690190    0.263994    0.000000
    13  Si    c     0.831625    0.245828    0.705866    0.000000
    14  Si    c     0.852065    0.647512    0.693232    0.000000
    15  Si    c     0.650716    0.283753    0.707234    0.000000
    16  Si    c     0.151609    0.664155    0.260966    0.000000
    17  Si    c     0.343901    0.284882    0.264326    0.000000
    18  Si    c     0.852598    0.656281    0.995666    0.000000
    19  Si    c     0.350512    0.281531    0.962954    0.000000
    20  Si    c     0.153181    0.652370    0.958794    0.000000
    21  Si    c     0.334872    0.681018    0.961314    0.000000
    22  Si    c     0.168405    0.252662    0.957751    0.000000
    23  Si    c     0.671488    0.726301    0.999230    0.000000
    24  Si    c     0.830828    0.265835    0.010458    0.000000
    25  O2    c     0.110089    0.130015    0.345041    0.000000
    26  O2    c     0.383751    0.823124    0.349954    0.000000
    27  O2    c     0.882092    0.097429    0.629873    0.000000
    28  O3    c     0.611377    0.826458    0.595258    0.000000
    29  O2    c     0.915739    0.759502    0.613086    0.000000
    30  O2    c     0.591669    0.164898    0.621626    0.000000
    31  O2    c     0.092017    0.786214    0.344310    0.000000
    32  O2    c     0.402340    0.168159    0.348185    0.000000
    33  O2    c     0.995263    0.988758    0.477355    0.000000
    34  O2    c     0.478993    0.979470    0.512176    0.000000
    35  O2    c     0.987784    0.992068    0.229429    0.000000
    36  O3    c     0.519415    0.957281    0.272642    0.000000
    37  O2    c     0.017385    0.978971    0.722320    0.000000
    38  O2    c     0.504086    0.937697    0.753941    0.000000
    39  O1    c     0.581350    0.216035    0.107640    0.000000
    40  O2    c     0.908173    0.780342    0.081518    0.000000
    41  O2    c     0.410247    0.159274    0.879492    0.000000
    42  O2    c     0.096300    0.770726    0.872628    0.000000
    43  O2    c     0.378908    0.816484    0.869978    0.000000
    44  O2    c     0.127833    0.111224    0.863909    0.000000
    45  O3    c     0.642257    0.877171    0.096766    0.000000
    46  O2    c     0.874935    0.121764    0.095422    0.000000
    47  O3    c     0.493773    0.921946    0.005706    0.000000
    48  O2    c     0.000328    0.015242    0.975077    0.000000
    49  O2    c     0.135381    0.460037    0.289635    0.000000
    50  O2    c     0.359499    0.490585    0.293861    0.000000
    51  O2    c     0.866756    0.437640    0.673881    0.000000
    52  O3    c     0.632527    0.487130    0.686827    0.000000
    53  O2    c     0.253947    0.236585    0.296836    0.000000
    54  O2    c     0.240668    0.713672    0.299192    0.000000
    55  O2    c     0.740808    0.238650    0.661645    0.000000
    56  O3    c     0.765469    0.695521    0.646145    0.000000
    57  O2    c     0.152772    0.209388    0.108186    0.000000
    58  O2    c     0.345638    0.731774    0.112866    0.000000
    59  O2    c     0.832571    0.208771    0.858761    0.000000
    60  O3    c     0.663989    0.784207    0.850993    0.000000
    61  O2    c     0.863695    0.700318    0.844444    0.000000
    62  O3    c     0.638483    0.236938    0.856533    0.000000
    63  O2    c     0.137575    0.701044    0.109588    0.000000
    64  O2    c     0.364372    0.239876    0.114089    0.000000
    65  O3    c     0.625324    0.543707    0.017221    0.000000
    66  O2    c     0.875032    0.454075    0.024651    0.000000
    67  O2    c     0.369654    0.484439    0.934837    0.000000
    68  O2    c     0.134919    0.447697    0.929236    0.000000
    69  O3    c     0.742776    0.281115    0.062349    0.000000
    70  O2    c     0.761983    0.684209    0.033256    0.000000
    71  O2    c     0.260968    0.241348    0.926472    0.000000
    72  O2    c     0.243574    0.689740    0.924060    0.000000
    73  O2    s     0.109177    0.127791    0.335788    0.000000
    74  O2    s     0.384655    0.825124    0.342139    0.000000
    75  O2    s     0.884028    0.098670    0.636551    0.000000
    76  O3    s     0.609623    0.831007    0.605598    0.000000
    77  O2    s     0.912836    0.768172    0.621465    0.000000
    78  O2    s     0.593180    0.157894    0.630348    0.000000
    79  O2    s     0.093811    0.792597    0.335398    0.000000
    80  O2    s     0.400377    0.161312    0.340768    0.000000
    81  O2    s     0.996294    0.983062    0.477855    0.000000
    82  O2    s     0.482901    0.979507    0.507831    0.000000
    83  O2    s     0.989367    0.987976    0.227198    0.000000
    84  O3    s     0.515039    0.963355    0.269596    0.000000
    85  O2    s     0.014980    0.974781    0.725951    0.000000
    86  O2    s     0.502197    0.944970    0.753488    0.000000
    87  O1    s     0.584534    0.207490    0.101452    0.000000
    88  O2    s     0.905839    0.787574    0.073368    0.000000
    89  O2    s     0.407571    0.152486    0.888376    0.000000
    90  O2    s     0.098680    0.778321    0.880762    0.000000
    91  O2    s     0.381187    0.816541    0.880926    0.000000
    92  O2    s     0.125039    0.111536    0.873982    0.000000
    93  O3    s     0.638571    0.871213    0.088606    0.000000
    94  O2    s     0.877574    0.121696    0.085895    0.000000
    95  O3    s     0.494252    0.932626    0.001898    0.000000
    96  O2    s     0.000639    0.005253    0.975391    0.000000
    97  O2    s     0.140056    0.460593    0.283341    0.000000
    98  O2    s     0.354949    0.489575    0.287494    0.000000
    99  O2    s     0.861546    0.439555    0.679261    0.000000
   100  O3    s     0.637326    0.483636    0.689575    0.000000
   101  O2    s     0.253882    0.244228    0.289384    0.000000
   102  O2    s     0.241102    0.705808    0.291307    0.000000
   103  O2    s     0.741337    0.243946    0.670881    0.000000
   104  O3    s     0.766294    0.690969    0.654780    0.000000
   105  O2    s     0.155458    0.219183    0.108366    0.000000
   106  O2    s     0.343108    0.722028    0.113026    0.000000
   107  O2    s     0.832279    0.218770    0.858282    0.000000
   108  O3    s     0.665023    0.771827    0.852775    0.000000
   109  O2    s     0.861328    0.690249    0.844700    0.000000
   110  O3    s     0.640362    0.248190    0.854183    0.000000
   111  O2    s     0.140726    0.692015    0.109606    0.000000
   112  O2    s     0.360833    0.248818    0.114052    0.000000
   113  O3    s     0.631477    0.542929    0.015171    0.000000
   114  O2    s     0.868178    0.456339    0.020111    0.000000
   115  O2    s     0.363940    0.483185    0.940672    0.000000
   116  O2    s     0.140432    0.449015    0.935449    0.000000
   117  O3    s     0.744201    0.282868    0.053040    0.000000
   118  O2    s     0.762468    0.685436    0.025353    0.000000
   119  O2    s     0.260748    0.247148    0.934011    0.000000
   120  O2    s     0.243699    0.684572    0.932046    0.000000
--------------------------------------------------------------------------------

  Final Cartesian lattice vectors (Angstroms) :

       16.998494    0.080288    0.070765
        0.035358    7.592665   -0.077244
        0.042515   -0.106853   10.315224


  Final cell parameters and derivatives :

--------------------------------------------------------------------------------
       a           16.998831 Angstrom     dE/de1(xx)     0.014735 eV/strain
       b            7.593140 Angstrom     dE/de2(yy)     0.010201 eV/strain
       c           10.315865 Angstrom     dE/de3(zz)     0.014299 eV/strain
       alpha       91.175249 Degrees      dE/de4(yz)     0.002048 eV/strain
       beta        89.528166 Degrees      dE/de5(xz)    -0.000804 eV/strain
       gamma       89.465023 Degrees      dE/de6(xy)    -0.000242 eV/strain
--------------------------------------------------------------------------------

  Primitive cell volume =          1331.129807 Angs**3

  Density of cell =      1.965688 g/cm**3

  Non-primitive cell volume =          1331.129807 Angs**3


  Final internal derivatives :

--------------------------------------------------------------------------------
   No.  Atomic          a             b             c           Radius
        Label          (eV)          (eV)          (eV)        (eV/Angs)
--------------------------------------------------------------------------------
      1 Ge    c       0.000000      0.000000      0.000000      0.000000
      2 Ge    c       0.000259     -0.000649      0.000884      0.000000
      3 Ge    c      -0.002582     -0.000495      0.000717      0.000000
      4 Si    c       0.004973     -0.000786     -0.007628      0.000000
      5 Si    c       0.001771      0.001565      0.007911      0.000000
      6 Si    c      -0.002294      0.000231     -0.002161      0.000000
      7 Si    c       0.003790      0.000908     -0.002882      0.000000
      8 Si    c      -0.004436      0.000036     -0.004912      0.000000
      9 Si    c      -0.014101      0.004192      0.003224      0.000000
     10 Si    c       0.002426     -0.001001     -0.005887      0.000000
     11 Si    c      -0.005779     -0.001611     -0.000071      0.000000
     12 Si    c       0.001619      0.000703     -0.003117      0.000000
     13 Si    c      -0.000900      0.000353     -0.000452      0.000000
     14 Si    c      -0.002446      0.000151      0.000161      0.000000
     15 Si    c      -0.002083      0.002843     -0.001249      0.000000
     16 Si    c      -0.000379     -0.000319     -0.001009      0.000000
     17 Si    c       0.000928      0.000193      0.000114      0.000000
     18 Si    c      -0.004240     -0.000804     -0.000937      0.000000
     19 Si    c       0.004856      0.000116     -0.001784      0.000000
     20 Si    c      -0.000656      0.000140      0.000824      0.000000
     21 Si    c       0.008866      0.002147      0.005714      0.000000
     22 Si    c      -0.008349     -0.003115      0.001764      0.000000
     23 Si    c       0.004569     -0.001614     -0.000464      0.000000
     24 Si    c       0.000350      0.000258      0.001165      0.000000
     25 O2    c       0.005696      0.003071      0.000205      0.000000
     26 O2    c      -0.007776     -0.002715      0.001277      0.000000
     27 O2    c       0.001498     -0.000232     -0.000006      0.000000
     28 O3    c       0.001278     -0.001486      0.000632      0.000000
     29 O2    c      -0.000590     -0.000605     -0.000374      0.000000
     30 O2    c       0.001430      0.000842      0.000091      0.000000
     31 O2    c       0.001998     -0.002805      0.000880      0.000000
     32 O2    c      -0.000980      0.002078     -0.000759      0.000000
     33 O2    c      -0.010879      0.000498      0.013620      0.000000
     34 O2    c      -0.014641     -0.000321     -0.006653      0.000000
     35 O2    c       0.004577      0.000722      0.010900      0.000000
     36 O3    c       0.016214     -0.003598     -0.007778      0.000000
     37 O2    c       0.006009      0.000711      0.004219      0.000000
     38 O2    c       0.011755     -0.003375     -0.013324      0.000000
     39 O1    c       0.000913     -0.001539     -0.001266      0.000000
     40 O2    c      -0.000503     -0.001506      0.000629      0.000000
     41 O2    c      -0.002502      0.006784     -0.000052      0.000000
     42 O2    c       0.001503     -0.001709      0.000834      0.000000
     43 O2    c      -0.008327     -0.002208     -0.002815      0.000000
     44 O2    c       0.005100      0.001512     -0.001539      0.000000
     45 O3    c       0.001703     -0.000034      0.000974      0.000000
     46 O2    c      -0.000346      0.000509     -0.000234      0.000000
     47 O3    c       0.003493     -0.011294      0.001603      0.000000
     48 O2    c      -0.003800      0.003786      0.006924      0.000000
     49 O2    c      -0.002912      0.003424      0.000426      0.000000
     50 O2    c       0.002543     -0.003008      0.000887      0.000000
     51 O2    c      -0.001271     -0.000827      0.001564      0.000000
     52 O3    c       0.003111     -0.002938      0.003900      0.000000
     53 O2    c       0.009398     -0.000222      0.002152      0.000000
     54 O2    c      -0.005400      0.000190      0.000658      0.000000
     55 O2    c       0.002588      0.000656      0.000762      0.000000
     56 O3    c      -0.003199     -0.001410      0.002033      0.000000
     57 O2    c       0.000599     -0.000613     -0.001421      0.000000
     58 O2    c      -0.000579     -0.000048     -0.000505      0.000000
     59 O2    c       0.000652      0.000245     -0.001794      0.000000
     60 O3    c       0.005541     -0.002321     -0.000204      0.000000
     61 O2    c      -0.002087     -0.000826      0.001863      0.000000
     62 O3    c       0.000995      0.000913     -0.001592      0.000000
     63 O2    c       0.000396     -0.000121     -0.000036      0.000000
     64 O2    c       0.000441     -0.000789      0.002744      0.000000
     65 O3    c       0.003759      0.004198     -0.001682      0.000000
     66 O2    c      -0.002480      0.000527     -0.001212      0.000000
     67 O2    c       0.006697     -0.003334     -0.001288      0.000000
     68 O2    c      -0.006336      0.006200     -0.001526      0.000000
     69 O3    c       0.005546      0.000650      0.000552      0.000000
     70 O2    c      -0.003606     -0.000810     -0.001477      0.000000
     71 O2    c       0.011526      0.000133     -0.003862      0.000000
     72 O2    c      -0.018665      0.000028     -0.002598      0.000000
     73 O2    s       0.000343     -0.000226      0.001155      0.000000
     74 O2    s      -0.000892      0.000875      0.000872      0.000000
     75 O2    s      -0.001601      0.001258      0.000337      0.000000
     76 O3    s       0.004827     -0.000075     -0.000197      0.000000
     77 O2    s      -0.002335     -0.000427      0.000611      0.000000
     78 O2    s       0.005130      0.001564      0.000507      0.000000
     79 O2    s       0.002787     -0.001536     -0.001509      0.000000
     80 O2    s      -0.001398      0.001946      0.001842      0.000000
     81 O2    s       0.001145      0.001047     -0.002300      0.000000
     82 O2    s       0.003988      0.000907      0.001192      0.000000
     83 O2    s      -0.006680      0.000757     -0.003364      0.000000
     84 O3    s      -0.001236      0.001154      0.004001      0.000000
     85 O2    s      -0.006569     -0.000781     -0.003297      0.000000
     86 O2    s       0.003486     -0.002330     -0.002191      0.000000
     87 O1    s       0.000207      0.003230      0.001206      0.000000
     88 O2    s      -0.005995     -0.001705     -0.001536      0.000000
     89 O2    s      -0.006248      0.003913      0.001579      0.000000
     90 O2    s       0.001996     -0.002120     -0.001462      0.000000
     91 O2    s      -0.009094     -0.000530     -0.002597      0.000000
     92 O2    s       0.000230     -0.001433     -0.000262      0.000000
     93 O3    s       0.003987     -0.002510     -0.002269      0.000000
     94 O2    s      -0.004742      0.001094     -0.000373      0.000000
     95 O3    s       0.012555      0.002915      0.005170      0.000000
     96 O2    s       0.000199     -0.000467     -0.003706      0.000000
     97 O2    s      -0.001706      0.001018      0.001283      0.000000
     98 O2    s       0.001366     -0.000705     -0.000150      0.000000
     99 O2    s      -0.003015      0.000076      0.001681      0.000000
    100 O3    s       0.003840      0.001173      0.000865      0.000000
    101 O2    s       0.002242     -0.000867      0.001644      0.000000
    102 O2    s      -0.001833      0.000569      0.000989      0.000000
    103 O2    s      -0.000977      0.002017      0.003148      0.000000
    104 O3    s       0.000844     -0.001251      0.001747      0.000000
    105 O2    s      -0.005236     -0.003762      0.001307      0.000000
    106 O2    s       0.002795      0.002535      0.003047      0.000000
    107 O2    s      -0.004707      0.001037     -0.000990      0.000000
    108 O3    s      -0.000188     -0.001135      0.003086      0.000000
    109 O2    s      -0.004164     -0.000508      0.000296      0.000000
    110 O3    s       0.001929      0.000851     -0.001333      0.000000
    111 O2    s      -0.001181      0.000110     -0.000460      0.000000
    112 O2    s       0.002795     -0.000343      0.000438      0.000000
    113 O3    s       0.002880     -0.000128     -0.002263      0.000000
    114 O2    s      -0.003189      0.000676     -0.001670      0.000000
    115 O2    s       0.003807     -0.002113      0.000221      0.000000
    116 O2    s      -0.002367      0.001337     -0.000745      0.000000
    117 O3    s      -0.000898     -0.000340     -0.002259      0.000000
    118 O2    s       0.000111     -0.001395     -0.003252      0.000000
    119 O2    s       0.000697     -0.000961     -0.001303      0.000000
    120 O2    s      -0.004173      0.000688     -0.000890      0.000000
--------------------------------------------------------------------------------
  Maximum abs         0.018665      0.011294      0.013620      0.000000
--------------------------------------------------------------------------------


  Born effective charge tensors : 

-------------------------------------------------------------------------------
  Atom             x           y             z
-------------------------------------------------------------------------------
    1 Ge    x       4.2319      0.4028     -0.3886
            y      -0.2096      3.9351      0.0175
            z      -0.5075     -0.1034      3.8804
-------------------------------------------------------------------------------
    2 Ge    x       4.0435     -0.4136      0.1825
            y      -0.2079      4.1590     -0.2721
            z       0.1900     -0.0021      3.3637
-------------------------------------------------------------------------------
    3 Ge    x       4.1615      0.3454     -0.2210
            y       0.3148      4.1436     -0.3270
            z      -0.3375     -0.0340      3.3657
-------------------------------------------------------------------------------
    4 Si    x       3.4314     -0.0938     -0.1778
            y       0.1153      3.2459     -0.0324
            z      -0.5070      0.0067      3.8240
-------------------------------------------------------------------------------
    5 Si    x       3.6809     -0.0916      0.2395
            y       0.1059      3.2992     -0.0093
            z       0.1548      0.0100      3.9505
-------------------------------------------------------------------------------
    6 Si    x       3.4421      0.1836     -0.2395
            y      -0.1634      3.2110      0.0003
            z      -0.3862     -0.1500      3.8518
-------------------------------------------------------------------------------
    7 Si    x       3.6945     -0.0355      0.0055
            y      -0.2622      3.3635      0.0614
            z       0.6773     -0.0774      3.7033
-------------------------------------------------------------------------------
    8 Si    x       3.4355      0.1561      0.2081
            y      -0.1718      3.2383      0.0289
            z       0.5016      0.0368      3.1123
-------------------------------------------------------------------------------
    9 Si    x       3.6078     -0.2009      0.0060
            y       0.1414      3.3114     -0.0475
            z      -0.4913     -0.0182      3.2996
-------------------------------------------------------------------------------
   10 Si    x       3.4396     -0.1583      0.2550
            y       0.1662      3.2621     -0.0191
            z       0.4995     -0.0307      3.1400
-------------------------------------------------------------------------------
   11 Si    x       3.1952      0.2873     -0.1258
            y       0.2027      3.4675     -0.1673
            z      -0.1049     -0.0757      2.8165
-------------------------------------------------------------------------------
   12 Si    x       3.1685      0.2726      0.1351
            y       0.1898      3.4674      0.1599
            z       0.1382      0.0910      2.8395
-------------------------------------------------------------------------------
   13 Si    x       3.2055     -0.3392     -0.0735
            y      -0.1238      3.4730      0.1358
            z      -0.1452      0.0805      2.8090
-------------------------------------------------------------------------------
   14 Si    x       3.5171      0.1734      0.0868
            y       0.2610      3.5549     -0.2456
            z      -0.0152     -0.1026      2.8959
-------------------------------------------------------------------------------
   15 Si    x       3.4195      0.2188      0.0455
            y       0.2096      3.8433      0.0763
            z       0.1270     -0.0891      3.1286
-------------------------------------------------------------------------------
   16 Si    x       3.1763     -0.2133     -0.0687
            y      -0.2790      3.4382      0.1611
            z      -0.0955      0.0768      2.8155
-------------------------------------------------------------------------------
   17 Si    x       3.1774     -0.1994      0.0774
            y      -0.2675      3.4177     -0.1701
            z       0.1095     -0.0943      2.8308
-------------------------------------------------------------------------------
   18 Si    x       3.2157      0.3148      0.1363
            y       0.2330      3.3636      0.1728
            z       0.1676      0.0443      2.7212
-------------------------------------------------------------------------------
   19 Si    x       3.2522     -0.2406     -0.1217
            y      -0.2564      3.3844      0.1453
            z      -0.1486      0.0526      2.7115
-------------------------------------------------------------------------------
   20 Si    x       3.2465     -0.2482      0.1571
            y      -0.2615      3.4124     -0.1871
            z       0.1650     -0.0778      2.7316
-------------------------------------------------------------------------------
   21 Si    x       3.2108      0.3020     -0.1688
            y       0.0988      3.4306     -0.1802
            z      -0.1169     -0.0735      2.7346
-------------------------------------------------------------------------------
   22 Si    x       3.2138      0.3246      0.1896
            y       0.1048      3.4462      0.1737
            z       0.1023      0.0756      2.7393
-------------------------------------------------------------------------------
   23 Si    x       3.4795     -0.4759     -0.2600
            y       0.0140      3.9408      0.2439
            z      -0.1865      0.0930      3.2165
-------------------------------------------------------------------------------
   24 Si    x       3.5659     -0.4072      0.0030
            y      -0.0899      3.5107     -0.2126
            z       0.0576     -0.0825      2.8180
-------------------------------------------------------------------------------
   25 O2    x      -1.7481     -0.7186      0.3275
            y      -0.7621     -1.9491      0.3519
            z       0.3655      0.3263     -1.3575
-------------------------------------------------------------------------------
   26 O2    x      -1.7083     -0.7086     -0.4084
            y      -0.7320     -1.9734     -0.4086
            z      -0.3982     -0.3842     -1.3856
-------------------------------------------------------------------------------
   27 O2    x      -1.7948      0.7316      0.3331
            y       0.7731     -1.9610     -0.3540
            z       0.3755     -0.3348     -1.3300
-------------------------------------------------------------------------------
   28 O3    x      -2.1949      0.9484     -0.2843
            y       1.0009     -2.2597      0.3003
            z      -0.3783      0.2693     -1.5516
-------------------------------------------------------------------------------
   29 O2    x      -1.6130     -0.6848      0.3076
            y      -0.6180     -2.0362      0.3137
            z       0.3356      0.3210     -1.3690
-------------------------------------------------------------------------------
   30 O2    x      -1.7326     -0.6925     -0.2875
            y      -0.6704     -1.9298     -0.3003
            z      -0.3841     -0.2724     -1.3501
-------------------------------------------------------------------------------
   31 O2    x      -1.6421      0.6989      0.3068
            y       0.6741     -2.0003     -0.3140
            z       0.3562     -0.3131     -1.3492
-------------------------------------------------------------------------------
   32 O2    x      -1.6198      0.6629     -0.3829
            y       0.6279     -1.9929      0.4144
            z      -0.3829      0.4061     -1.4079
-------------------------------------------------------------------------------
   33 O2    x      -1.5851     -0.0542      0.8213
            y      -0.0137     -1.0962      0.0481
            z       1.0235      0.1160     -2.8156
-------------------------------------------------------------------------------
   34 O2    x      -1.6900     -0.0111     -0.7881
            y      -0.0051     -1.0839     -0.0040
            z      -1.0163     -0.0029     -2.6080
-------------------------------------------------------------------------------
   35 O2    x      -1.6862     -0.0064     -0.7407
            y       0.0162     -1.1202      0.0058
            z      -0.7153     -0.0015     -2.2607
-------------------------------------------------------------------------------
   36 O3    x      -2.1431     -0.0346      0.8933
            y       0.0256     -1.2360      0.0431
            z       0.9025      0.0987     -2.6047
-------------------------------------------------------------------------------
   37 O2    x      -1.7195     -0.0160     -0.7304
            y      -0.0166     -1.1099     -0.0024
            z      -0.7462      0.0099     -2.2383
-------------------------------------------------------------------------------
   38 O2    x      -1.6990     -0.0063      0.6949
            y      -0.0125     -1.1619      0.0590
            z       0.6587      0.0783     -2.2098
-------------------------------------------------------------------------------
   39 O1    x      -2.0956     -0.9014      0.5576
            y      -0.7140     -2.5976      0.5345
            z       0.5427      0.4917     -1.5940
-------------------------------------------------------------------------------
   40 O2    x      -1.6214     -0.6879     -0.3377
            y      -0.5672     -2.0238     -0.3757
            z      -0.3520     -0.3489     -1.2364
-------------------------------------------------------------------------------
   41 O2    x      -1.6542      0.6683      0.3181
            y       0.5841     -2.0238     -0.3377
            z       0.3644     -0.3236     -1.2333
-------------------------------------------------------------------------------
   42 O2    x      -1.6336      0.6790     -0.3656
            y       0.5902     -2.0283      0.3972
            z      -0.3777      0.3760     -1.2639
-------------------------------------------------------------------------------
   43 O2    x      -1.7430     -0.6893      0.3169
            y      -0.6710     -1.9028      0.3494
            z       0.3376      0.3135     -1.2572
-------------------------------------------------------------------------------
   44 O2    x      -1.7353     -0.6983     -0.3447
            y      -0.6739     -1.9112     -0.3707
            z      -0.3302     -0.3369     -1.2696
-------------------------------------------------------------------------------
   45 O3    x      -2.0959      0.8244      0.5480
            y       0.7577     -2.1777     -0.6273
            z       0.4616     -0.5354     -1.5785
-------------------------------------------------------------------------------
   46 O2    x      -1.7380      0.7007     -0.3015
            y       0.6615     -1.9261      0.3437
            z      -0.3224      0.3256     -1.2499
-------------------------------------------------------------------------------
   47 O3    x      -2.0770     -0.0420     -0.8289
            y      -0.0099     -1.3496     -0.0068
            z      -0.4920     -0.0304     -2.1538
-------------------------------------------------------------------------------
   48 O2    x      -1.7925      0.0074      0.6011
            y      -0.0006     -1.1948     -0.0050
            z       0.3353     -0.0121     -1.6884
-------------------------------------------------------------------------------
   49 O2    x      -1.1523      0.0416      0.0600
            y       0.0822     -2.5626      0.0082
            z       0.0701      0.0159     -1.0671
-------------------------------------------------------------------------------
   50 O2    x      -1.1553      0.0490     -0.0640
            y       0.0853     -2.5629      0.0174
            z      -0.0758      0.0049     -1.0759
-------------------------------------------------------------------------------
   51 O2    x      -1.1802     -0.1072      0.0509
            y      -0.2009     -2.5562      0.0696
            z       0.0768      0.0316     -1.0829
-------------------------------------------------------------------------------
   52 O3    x      -1.3667     -0.0239     -0.0586
            y      -0.1089     -3.2284      0.0995
            z      -0.0808      0.0960     -1.1550
-------------------------------------------------------------------------------
   53 O2    x      -2.3885     -0.0891     -0.0228
            y      -0.0456     -1.2510      0.0674
            z      -0.0371      0.0469     -1.0646
-------------------------------------------------------------------------------
   54 O2    x      -2.3763     -0.0878     -0.0210
            y      -0.0378     -1.2513     -0.0667
            z      -0.0119     -0.0488     -1.0686
-------------------------------------------------------------------------------
   55 O2    x      -2.4518      0.0929     -0.0317
            y       0.0236     -1.2507     -0.0613
            z      -0.0550     -0.0264     -1.0978
-------------------------------------------------------------------------------
   56 O3    x      -3.0079      0.2313     -0.0917
            y       0.1624     -1.4021      0.1100
            z      -0.0930      0.0602     -1.2407
-------------------------------------------------------------------------------
   57 O2    x      -1.1751     -0.1304     -0.0047
            y      -0.0950     -1.2871      0.0085
            z       0.0121     -0.0094     -2.0692
-------------------------------------------------------------------------------
   58 O2    x      -1.1658     -0.1203      0.0343
            y      -0.0856     -1.2890     -0.0216
            z       0.0272     -0.0060     -2.0837
-------------------------------------------------------------------------------
   59 O2    x      -1.1738      0.1110     -0.0679
            y       0.0433     -1.3023     -0.0453
            z      -0.0367     -0.0268     -2.0905
-------------------------------------------------------------------------------
   60 O3    x      -1.3620      0.1634     -0.0577
            y       0.0833     -1.4713      0.0656
            z      -0.0530      0.0080     -2.5113
-------------------------------------------------------------------------------
   61 O2    x      -1.1931     -0.1293     -0.0030
            y      -0.1144     -1.2889     -0.0126
            z      -0.0196     -0.0101     -2.0833
-------------------------------------------------------------------------------
   62 O3    x      -1.3798     -0.1557      0.0577
            y      -0.1308     -1.4510     -0.0374
            z       0.0731     -0.0609     -2.5672
-------------------------------------------------------------------------------
   63 O2    x      -1.1911      0.1232     -0.0207
            y       0.1234     -1.2719     -0.0053
            z      -0.0277     -0.0162     -2.0696
-------------------------------------------------------------------------------
   64 O2    x      -1.2178      0.1295      0.0441
            y       0.1329     -1.2717      0.0017
            z       0.0648      0.0038     -2.0690
-------------------------------------------------------------------------------
   65 O3    x      -1.5490     -0.2312      0.0961
            y      -0.2967     -2.9734      0.0943
            z       0.1327      0.0755     -1.1192
-------------------------------------------------------------------------------
   66 O2    x      -1.2569     -0.0663     -0.0721
            y      -0.1410     -2.4535      0.0785
            z      -0.0992      0.0443     -1.0240
-------------------------------------------------------------------------------
   67 O2    x      -1.2315      0.0598      0.0855
            y       0.1263     -2.4941      0.0238
            z       0.0995      0.0120     -1.0194
-------------------------------------------------------------------------------
   68 O2    x      -1.2159      0.0496     -0.0922
            y       0.1191     -2.5059      0.0098
            z      -0.0990      0.0160     -1.0240
-------------------------------------------------------------------------------
   69 O3    x      -3.0394      0.2281      0.1081
            y       0.1402     -1.3853      0.0748
            z       0.1149      0.0152     -1.2308
-------------------------------------------------------------------------------
   70 O2    x      -2.3883      0.2076      0.0114
            y       0.1346     -1.2837     -0.0453
            z       0.0374     -0.0193     -1.0546
-------------------------------------------------------------------------------
   71 O2    x      -2.4217     -0.0915     -0.0268
            y      -0.0566     -1.2403     -0.0601
            z      -0.0122     -0.0353     -1.0309
-------------------------------------------------------------------------------
   72 O2    x      -2.4090     -0.0880     -0.0207
            y      -0.0518     -1.2392      0.0653
            z      -0.0193      0.0367     -1.0376
-------------------------------------------------------------------------------




  Elastic Constant Matrix: (Units=GPa)

-------------------------------------------------------------------------------
  Indices      1         2         3         4         5         6    
-------------------------------------------------------------------------------
       1     50.3700   26.4187   26.5051   -2.1280    5.9204    4.4976
       2     26.4187   75.5602   20.0339   -0.9313    5.1461    3.7526
       3     26.5051   20.0339   45.1797   -1.7166    3.0243    3.9462
       4     -2.1280   -0.9313   -1.7166   12.4459    1.2984    0.0466
       5      5.9204    5.1461    3.0243    1.2984   24.6357   -2.9640
       6      4.4976    3.7526    3.9462    0.0466   -2.9640   27.8327
-------------------------------------------------------------------------------


  Elastic Compliance Matrix: (Units=1/GPa)

-------------------------------------------------------------------------------
  Indices      1         2         3         4         5         6    
-------------------------------------------------------------------------------
       1    0.032443 -0.006760 -0.015333  0.003459 -0.005009 -0.002696
       2   -0.006760  0.016598 -0.003224 -0.000195 -0.001539 -0.000852
       3   -0.015333 -0.003224  0.032770  0.001659  0.000039 -0.001732
       4    0.003459 -0.000195  0.001659  0.081731 -0.005481 -0.001489
       5   -0.005009 -0.001539  0.000039 -0.005481  0.043075  0.005608
       6   -0.002696 -0.000852 -0.001732 -0.001489  0.005608  0.037325
-------------------------------------------------------------------------------

  Mechanical properties :

-------------------------------------------------------------------------------
  Convention :                    Reuss         Voigt         Hill
-------------------------------------------------------------------------------
  Bulk  Modulus (GPa)     =      32.07533      35.22504      33.65018
  Shear Modulus (GPa)     =      16.39516      19.52633      17.96075
-------------------------------------------------------------------------------
  Velocity S-wave (km/s)  =       2.88802       3.15176       3.02277
  Velocity P-wave (km/s)  =       5.23818       5.58254       5.41310
-------------------------------------------------------------------------------
  Compressibility (1/GPa) =    0.03117661
-------------------------------------------------------------------------------
  Stress axis :                     x             y             z
-------------------------------------------------------------------------------
  Youngs Moduli (GPa)     =      30.82350      60.24971      30.51543
-------------------------------------------------------------------------------
  Poissons Ratio (x)      =                     0.40730       0.46789
  Poissons Ratio (y)      =       0.20837                     0.09838
  Poissons Ratio (z)      =       0.47262       0.19424
-------------------------------------------------------------------------------


  Piezoelectric Strain Matrix: (Units=C/m**2)

-------------------------------------------------------------------------------
  Indices      1         2         3         4         5         6    
-------------------------------------------------------------------------------
       x     0.22113   0.52467  -0.41338   0.20064  -0.19776  -0.07801
       y    -0.80295  -0.00323   0.40903  -0.37401   0.56913   0.04585
       z    -0.41602  -0.35883   0.19645   0.05808  -0.23793   0.10482
-------------------------------------------------------------------------------


  Piezoelectric Stress Matrix: (Units=10**-11 C/N)

-------------------------------------------------------------------------------
  Indices      1         2         3         4         5         6    
-------------------------------------------------------------------------------
       x     1.18605   0.88777  -1.81683   1.75752  -1.19872  -0.46465
       y    -3.65679   0.32138   2.50485  -3.58542   3.08657   0.69188
       z    -1.29733  -0.35111   1.38789   0.48522  -0.73358   0.35786
-------------------------------------------------------------------------------


  Static dielectric constant tensor : 

-------------------------------------------------------------------------------
              x         y         z
-------------------------------------------------------------------------------
       x     3.95558   0.00901  -0.03830
       y     0.00901   4.16195  -0.02715
       z    -0.03830  -0.02715   3.22558
--------------------------------------------------------------------------------

  High frequency dielectric constant tensor : 

-------------------------------------------------------------------------------
              x         y         z
-------------------------------------------------------------------------------
       x     1.68133   0.00054   0.00204
       y     0.00054   1.68977  -0.00171
       z     0.00204  -0.00171   1.62358
-------------------------------------------------------------------------------

  Static refractive indices : 

-------------------------------------------------------------------------------
    1 =    1.79522      2 =    1.98924      3 =    2.04040
-------------------------------------------------------------------------------

  High frequency refractive indices : 

-------------------------------------------------------------------------------
    1 =    1.27415      2 =    1.29668      3 =    1.29994
-------------------------------------------------------------------------------


  Time to end of optimisation =      10.8393 seconds


  Peak dynamic memory used =       5.01 MB 


  Timing analysis for GULP :

--------------------------------------------------------------------------------
  Task / Subroutine                                          Time (Seconds)
--------------------------------------------------------------------------------
  Calculation of reciprocal space energy and derivatives          0.6642
  Calculation of real space energy and derivatives                6.9688
  Calculation of three-body energy and derivatives                0.6925
  Calculation and manipulation of Hessian matrix                  2.8790
  Calculation of matrix inversion                                 0.0412
  Global summation overhead                                       0.0002
--------------------------------------------------------------------------------
  Total CPU time                                                 10.8393
--------------------------------------------------------------------------------


  Dump file written as c00175.vasp.grs
  CIF file written as c00175.vasp.cif


  Job Finished at 11:57.28  7th October    2025                               

