********************************************************************************
*                       GENERAL UTILITY LATTICE PROGRAM                        *
*                                 Julian Gale                                  *
*                       Curtin Institute for Computation                       *
*                    School of Molecular and Life Sciences                     *
*                    Curtin University, Western Australia                      *
********************************************************************************
* Version = 6.1.2 * Last modified =   3rd November 2022                        *
********************************************************************************
*  optimise     - perform optimisation run                                     *
*  conp         - constant pressure calculation                                *
*  property     - calculate properties for final geometry                      *
********************************************************************************

  Job Started  at 11:58.23  7th October    2025                               

  Number of CPUs =     1


  Total number of configurations input =      1

********************************************************************************
*  Input for Configuration =   1 : c00181.vasp                                 *
********************************************************************************

  Formula = Ge3Si21O48                                                  

  Number of irreducible atoms/shells =     120


  Total number atoms/shells =     120

  Dimensionality = 3               :  Bulk   



  Cartesian lattice vectors (Angstroms) :

       17.182800    0.000000    0.000000
        0.000000    7.513760    0.000000
        0.000000    0.000000   10.447700

  Cell parameters (Angstroms/Degrees):

  a =      17.1828    alpha =  90.0000
  b =       7.5138    beta  =  90.0000
  c =      10.4477    gamma =  90.0000

  Initial cell volume =        1348.875752 Angs**3

  Temperature of configuration =   0.00     K 

  Pressure of configuration =         0.000 GPa 

  Fractional coordinates of asymmetric unit :

--------------------------------------------------------------------------------
   No.  Atomic       x           y          z         Charge      Occupancy
        Label      (Frac)      (Frac)     (Frac)        (e)         (Frac)  
--------------------------------------------------------------------------------
      1 Ge    c    0.556730    0.000000    0.122130     4.00000    1.000000    
      2 Ge    c    0.660190 *  0.706090 *  0.726560 *   4.00000    1.000000    
      3 Ge    c    0.660660 *  0.705910 *  0.017440 *   4.00000    1.000000    
      4 Si    c    0.052090 *  0.000000 *  0.372270 *   4.00000    1.000000    
      5 Si    c    0.447910 *  0.000000 *  0.372270 *   4.00000    1.000000    
      6 Si    c    0.947910 *  0.000000 *  0.627730 *   4.00000    1.000000    
      7 Si    c    0.552090 *  0.000000 *  0.627730 *   4.00000    1.000000    
      8 Si    c    0.943270 *  0.000000 *  0.122130 *   4.00000    1.000000    
      9 Si    c    0.443270 *  0.000000 *  0.877870 *   4.00000    1.000000    
     10 Si    c    0.056730 *  0.000000 *  0.877870 *   4.00000    1.000000    
     11 Si    c    0.160190 *  0.293910 *  0.273440 *   4.00000    1.000000    
     12 Si    c    0.339810 *  0.706090 *  0.273440 *   4.00000    1.000000    
     13 Si    c    0.839810 *  0.293910 *  0.726560 *   4.00000    1.000000    
     14 Si    c    0.839810 *  0.706090 *  0.726560 *   4.00000    1.000000    
     15 Si    c    0.660190 *  0.293910 *  0.726560 *   4.00000    1.000000    
     16 Si    c    0.160190 *  0.706090 *  0.273440 *   4.00000    1.000000    
     17 Si    c    0.339810 *  0.293910 *  0.273440 *   4.00000    1.000000    
     18 Si    c    0.660660 *  0.294090 *  0.017440 *   4.00000    1.000000    
     19 Si    c    0.839340 *  0.705910 *  0.017440 *   4.00000    1.000000    
     20 Si    c    0.339340 *  0.294090 *  0.982560 *   4.00000    1.000000    
     21 Si    c    0.160660 *  0.705910 *  0.982560 *   4.00000    1.000000    
     22 Si    c    0.339340 *  0.705910 *  0.982560 *   4.00000    1.000000    
     23 Si    c    0.160660 *  0.294090 *  0.982560 *   4.00000    1.000000    
     24 Si    c    0.839340 *  0.294090 *  0.017440 *   4.00000    1.000000    
     25 O2    c    0.106570 *  0.174340 *  0.366200 *   0.87073    1.000000    
     26 O2    c    0.393430 *  0.825660 *  0.366200 *   0.87073    1.000000    
     27 O2    c    0.893430 *  0.174340 *  0.633800 *   0.87073    1.000000    
     28 O3    c    0.606570 *  0.825660 *  0.633800 *   1.33043    1.000000    
     29 O2    c    0.893430 *  0.825660 *  0.633800 *   0.87073    1.000000    
     30 O2    c    0.606570 *  0.174340 *  0.633800 *   0.87073    1.000000    
     31 O2    c    0.106570 *  0.825660 *  0.366200 *   0.87073    1.000000    
     32 O2    c    0.393430 *  0.174340 *  0.366200 *   0.87073    1.000000    
     33 O2    c    0.000000 *  0.000000 *  0.500000 *   0.87073    1.000000    
     34 O2    c    0.500000 *  0.000000 *  0.500000 *   0.87073    1.000000    
     35 O2    c    0.994520 *  0.000000 *  0.250840 *   0.87073    1.000000    
     36 O3    c    0.505480 *  0.000000 *  0.250840 *   1.33043    1.000000    
     37 O2    c    0.005480 *  0.000000 *  0.749160 *   0.87073    1.000000    
     38 O2    c    0.494520 *  0.000000 *  0.749160 *   0.87073    1.000000    
     39 O3    c    0.610230 *  0.175520 *  0.115390 *   1.33043    1.000000    
     40 O2    c    0.889770 *  0.824480 *  0.115390 *   0.87073    1.000000    
     41 O2    c    0.389770 *  0.175520 *  0.884610 *   0.87073    1.000000    
     42 O2    c    0.110230 *  0.824480 *  0.884610 *   0.87073    1.000000    
     43 O2    c    0.389770 *  0.824480 *  0.884610 *   0.87073    1.000000    
     44 O2    c    0.110230 *  0.175520 *  0.884610 *   0.87073    1.000000    
     45 O1    c    0.610230 *  0.824480 *  0.115390 *   1.73396    1.000000    
     46 O2    c    0.889770 *  0.175520 *  0.115390 *   0.87073    1.000000    
     47 O3    c    0.500000 *  0.000000 *  0.000000 *   1.33043    1.000000    
     48 O2    c    0.000000 *  0.000000 *  0.000000 *   0.87073    1.000000    
     49 O2    c    0.151750 *  0.500000 *  0.313330 *   0.87073    1.000000    
     50 O2    c    0.348250 *  0.500000 *  0.313330 *   0.87073    1.000000    
     51 O2    c    0.848250 *  0.500000 *  0.686670 *   0.87073    1.000000    
     52 O3    c    0.651750 *  0.500000 *  0.686670 *   1.33043    1.000000    
     53 O2    c    0.250000 *  0.234950 *  0.285720 *   0.87073    1.000000    
     54 O2    c    0.250000 *  0.765050 *  0.285720 *   0.87073    1.000000    
     55 O2    c    0.750000 *  0.234950 *  0.714280 *   0.87073    1.000000    
     56 O3    c    0.750000 *  0.765050 *  0.714280 *   1.33043    1.000000    
     57 O2    c    0.131410 *  0.268650 *  0.127790 *   0.87073    1.000000    
     58 O2    c    0.368590 *  0.731350 *  0.127790 *   0.87073    1.000000    
     59 O2    c    0.868590 *  0.268650 *  0.872210 *   0.87073    1.000000    
     60 O1    c    0.631410 *  0.731350 *  0.872210 *   1.73396    1.000000    
     61 O2    c    0.868590 *  0.731350 *  0.872210 *   0.87073    1.000000    
     62 O2    c    0.631410 *  0.268650 *  0.872210 *   0.87073    1.000000    
     63 O2    c    0.131410 *  0.731350 *  0.127790 *   0.87073    1.000000    
     64 O2    c    0.368590 *  0.268650 *  0.127790 *   0.87073    1.000000    
     65 O3    c    0.653920 *  0.500000 *  0.058200 *   1.33043    1.000000    
     66 O2    c    0.846080 *  0.500000 *  0.058200 *   0.87073    1.000000    
     67 O2    c    0.346080 *  0.500000 *  0.941800 *   0.87073    1.000000    
     68 O2    c    0.153920 *  0.500000 *  0.941800 *   0.87073    1.000000    
     69 O2    c    0.750000 *  0.231060 *  0.027050 *   0.87073    1.000000    
     70 O3    c    0.750000 *  0.768940 *  0.027050 *   1.33043    1.000000    
     71 O2    c    0.250000 *  0.231060 *  0.972950 *   0.87073    1.000000    
     72 O2    c    0.250000 *  0.768940 *  0.972950 *   0.87073    1.000000    
     73 O2    s    0.106570 *  0.174340 *  0.366200 *  -2.87073    1.000000    
     74 O2    s    0.393430 *  0.825660 *  0.366200 *  -2.87073    1.000000    
     75 O2    s    0.893430 *  0.174340 *  0.633800 *  -2.87073    1.000000    
     76 O3    s    0.606570 *  0.825660 *  0.633800 *  -3.33043    1.000000    
     77 O2    s    0.893430 *  0.825660 *  0.633800 *  -2.87073    1.000000    
     78 O2    s    0.606570 *  0.174340 *  0.633800 *  -2.87073    1.000000    
     79 O2    s    0.106570 *  0.825660 *  0.366200 *  -2.87073    1.000000    
     80 O2    s    0.393430 *  0.174340 *  0.366200 *  -2.87073    1.000000    
     81 O2    s    0.000000 *  0.000000 *  0.500000 *  -2.87073    1.000000    
     82 O2    s    0.500000 *  0.000000 *  0.500000 *  -2.87073    1.000000    
     83 O2    s    0.994520 *  0.000000 *  0.250840 *  -2.87073    1.000000    
     84 O3    s    0.505480 *  0.000000 *  0.250840 *  -3.33043    1.000000    
     85 O2    s    0.005480 *  0.000000 *  0.749160 *  -2.87073    1.000000    
     86 O2    s    0.494520 *  0.000000 *  0.749160 *  -2.87073    1.000000    
     87 O3    s    0.610230 *  0.175520 *  0.115390 *  -3.33043    1.000000    
     88 O2    s    0.889770 *  0.824480 *  0.115390 *  -2.87073    1.000000    
     89 O2    s    0.389770 *  0.175520 *  0.884610 *  -2.87073    1.000000    
     90 O2    s    0.110230 *  0.824480 *  0.884610 *  -2.87073    1.000000    
     91 O2    s    0.389770 *  0.824480 *  0.884610 *  -2.87073    1.000000    
     92 O2    s    0.110230 *  0.175520 *  0.884610 *  -2.87073    1.000000    
     93 O1    s    0.610230 *  0.824480 *  0.115390 *  -3.73396    1.000000    
     94 O2    s    0.889770 *  0.175520 *  0.115390 *  -2.87073    1.000000    
     95 O3    s    0.500000 *  0.000000 *  0.000000 *  -3.33043    1.000000    
     96 O2    s    0.000000 *  0.000000 *  0.000000 *  -2.87073    1.000000    
     97 O2    s    0.151750 *  0.500000 *  0.313330 *  -2.87073    1.000000    
     98 O2    s    0.348250 *  0.500000 *  0.313330 *  -2.87073    1.000000    
     99 O2    s    0.848250 *  0.500000 *  0.686670 *  -2.87073    1.000000    
    100 O3    s    0.651750 *  0.500000 *  0.686670 *  -3.33043    1.000000    
    101 O2    s    0.250000 *  0.234950 *  0.285720 *  -2.87073    1.000000    
    102 O2    s    0.250000 *  0.765050 *  0.285720 *  -2.87073    1.000000    
    103 O2    s    0.750000 *  0.234950 *  0.714280 *  -2.87073    1.000000    
    104 O3    s    0.750000 *  0.765050 *  0.714280 *  -3.33043    1.000000    
    105 O2    s    0.131410 *  0.268650 *  0.127790 *  -2.87073    1.000000    
    106 O2    s    0.368590 *  0.731350 *  0.127790 *  -2.87073    1.000000    
    107 O2    s    0.868590 *  0.268650 *  0.872210 *  -2.87073    1.000000    
    108 O1    s    0.631410 *  0.731350 *  0.872210 *  -3.73396    1.000000    
    109 O2    s    0.868590 *  0.731350 *  0.872210 *  -2.87073    1.000000    
    110 O2    s    0.631410 *  0.268650 *  0.872210 *  -2.87073    1.000000    
    111 O2    s    0.131410 *  0.731350 *  0.127790 *  -2.87073    1.000000    
    112 O2    s    0.368590 *  0.268650 *  0.127790 *  -2.87073    1.000000    
    113 O3    s    0.653920 *  0.500000 *  0.058200 *  -3.33043    1.000000    
    114 O2    s    0.846080 *  0.500000 *  0.058200 *  -2.87073    1.000000    
    115 O2    s    0.346080 *  0.500000 *  0.941800 *  -2.87073    1.000000    
    116 O2    s    0.153920 *  0.500000 *  0.941800 *  -2.87073    1.000000    
    117 O2    s    0.750000 *  0.231060 *  0.027050 *  -2.87073    1.000000    
    118 O3    s    0.750000 *  0.768940 *  0.027050 *  -3.33043    1.000000    
    119 O2    s    0.250000 *  0.231060 *  0.972950 *  -2.87073    1.000000    
    120 O2    s    0.250000 *  0.768940 *  0.972950 *  -2.87073    1.000000    
--------------------------------------------------------------------------------



********************************************************************************
*  General input information                                                   *
********************************************************************************

  Species output for all configurations : 

--------------------------------------------------------------------------------
  Species    Type    Atomic    Atomic    Charge       Radii (Angs)     Library
                     Number     Mass       (e)     Cova   Ionic  VDW   Symbol
--------------------------------------------------------------------------------
    Ge       Core       32      72.61   4.000000   1.170  0.000  1.750 Ge       
    Si       Core       14      28.09   4.000000   1.200  0.000  2.100 Si       
    O1       Core        8      16.00   1.733957   0.730  0.000  1.360 O1       
    O2       Core        8      16.00   0.870733   0.730  0.000  1.360 O2       
    O3       Core        8      16.00   1.330431   0.730  0.000  1.360 O3       
    O1       Shell       8       0.00  -3.733957   0.730  0.000  0.000 O1       
    O2       Shell       8       0.00  -2.870733   0.730  0.000  0.000 O2       
    O3       Shell       8       0.00  -3.330431   0.730  0.000  0.000 O3       
--------------------------------------------------------------------------------


  Lattice summation method               =    Ewald          (3-D)
                                         =    Parry          (2-D)
                                         =    Saunders et al (1-D)
  Accuracy factor for lattice sums       =   12.000


  Analytic derivatives to be used

  Time limit = Infinity

  Maximum range for interatomic potentials =    100000.000000 Angstroms

  General interatomic potentials :

--------------------------------------------------------------------------------
Atom  Types   Potential      Parameter       Value         Units   Cutoffs(Ang)
  1     2                                                            Min /  Max 
--------------------------------------------------------------------------------
Si   c O1   s Buckingham    Buckingham A     1315.2478    eV        0.000 16.000
                            Buckingham rho  0.31775900    Ang       
                            Buckingham C     10.141118    eV*Ang^6  
--------------------------------------------------------------------------------
Si   c O2   s Buckingham    Buckingham A     1315.2478    eV        0.000 16.000
                            Buckingham rho  0.31775900    Ang       
                            Buckingham C     10.141118    eV*Ang^6  
--------------------------------------------------------------------------------
Si   c O3   s Buckingham    Buckingham A     1315.2478    eV        0.000 16.000
                            Buckingham rho  0.31775900    Ang       
                            Buckingham C     10.141118    eV*Ang^6  
--------------------------------------------------------------------------------
Ge   c O1   s Buckingham    Buckingham A     1497.3996    eV        0.000 16.000
                            Buckingham rho  0.32564600    Ang       
                            Buckingham C     16.808599    eV*Ang^6  
--------------------------------------------------------------------------------
Ge   c O2   s Buckingham    Buckingham A     1497.3996    eV        0.000 16.000
                            Buckingham rho  0.32564600    Ang       
                            Buckingham C     16.808599    eV*Ang^6  
--------------------------------------------------------------------------------
Ge   c O3   s Buckingham    Buckingham A     1497.3996    eV        0.000 16.000
                            Buckingham rho  0.32564600    Ang       
                            Buckingham C     16.808599    eV*Ang^6  
--------------------------------------------------------------------------------
O1   s O1   s Buckingham    Buckingham A     22764.000    eV        0.000 16.000
                            Buckingham rho  0.14900000    Ang       
                            Buckingham C     10.937044    eV*Ang^6  
--------------------------------------------------------------------------------
O1   s O2   s Buckingham    Buckingham A     22764.000    eV        0.000 16.000
                            Buckingham rho  0.14900000    Ang       
                            Buckingham C     10.937044    eV*Ang^6  
--------------------------------------------------------------------------------
O1   s O3   s Buckingham    Buckingham A     22764.000    eV        0.000 16.000
                            Buckingham rho  0.14900000    Ang       
                            Buckingham C     10.937044    eV*Ang^6  
--------------------------------------------------------------------------------
O2   s O2   s Buckingham    Buckingham A     22764.000    eV        0.000 16.000
                            Buckingham rho  0.14900000    Ang       
                            Buckingham C     10.937044    eV*Ang^6  
--------------------------------------------------------------------------------
O2   s O3   s Buckingham    Buckingham A     22764.000    eV        0.000 16.000
                            Buckingham rho  0.14900000    Ang       
                            Buckingham C     10.937044    eV*Ang^6  
--------------------------------------------------------------------------------
O3   s O3   s Buckingham    Buckingham A     22764.000    eV        0.000 16.000
                            Buckingham rho  0.14900000    Ang       
                            Buckingham C     10.937044    eV*Ang^6  
--------------------------------------------------------------------------------
O1   c O1   s Spring (c-s)  Spring k 2       180.31577    eV*Ang^-2 0.000  0.800
                            Spring k 4       0.0000000    eV*Ang^-4 
--------------------------------------------------------------------------------
O2   c O2   s Spring (c-s)  Spring k 2       75.969800    eV*Ang^-2 0.000  0.800
                            Spring k 4       0.0000000    eV*Ang^-4 
--------------------------------------------------------------------------------
O3   c O3   s Spring (c-s)  Spring k 2       128.14270    eV*Ang^-2 0.000  0.800
                            Spring k 4       0.0000000    eV*Ang^-4 
--------------------------------------------------------------------------------

  General Three-body potentials :

--------------------------------------------------------------------------------
  Atoms       Potential      Parameter       Value         Units   Cutoffs(Ang)
  1 / 2 / 3                                                          Min /  Max 
--------------------------------------------------------------------------------
Si    core    Harmonic      Three-body cnst  1.2614000    eV*rad^-2 0.000  1.900
O1    shel                  Three-body angl  109.47000    degrees   0.000  1.900
O1    shel                  Three-body k4    0.0000000    eV*rad^-4 0.000  3.500
                            Three-body k3    0.0000000    eV*rad^-3 
--------------------------------------------------------------------------------
Si    core    Harmonic      Three-body cnst  1.2614000    eV*rad^-2 0.000  1.900
O1    shel                  Three-body angl  109.47000    degrees   0.000  1.900
õ(1   shel                  Three-body k4    0.0000000    eV*rad^-4 0.000  3.500
                            Three-body k3    0.0000000    eV*rad^-3 
--------------------------------------------------------------------------------
Si    core    Harmonic      Three-body cnst  1.2614000    eV*rad^-2 0.000  1.900
õ(1   shel                  Three-body angl  109.47000    degrees   0.000  1.900
õ(1   shel                  Three-body k4    0.0000000    eV*rad^-4 0.000  3.500
                            Three-body k3    0.0000000    eV*rad^-3 
--------------------------------------------------------------------------------
Si    core    Harmonic      Three-body cnst  1.2614000    eV*rad^-2 0.000  1.900
O1    shel                  Three-body angl  109.47000    degrees   0.000  1.900
O2    shel                  Three-body k4    0.0000000    eV*rad^-4 0.000  3.500
                            Three-body k3    0.0000000    eV*rad^-3 
--------------------------------------------------------------------------------
Si    core    Harmonic      Three-body cnst  1.2614000    eV*rad^-2 0.000  1.900
O1    shel                  Three-body angl  109.47000    degrees   0.000  1.900
õ(2   shel                  Three-body k4    0.0000000    eV*rad^-4 0.000  3.500
                            Three-body k3    0.0000000    eV*rad^-3 
--------------------------------------------------------------------------------
Si    core    Harmonic      Three-body cnst  1.2614000    eV*rad^-2 0.000  1.900
O2    shel                  Three-body angl  109.47000    degrees   0.000  1.900
õ(1   shel                  Three-body k4    0.0000000    eV*rad^-4 0.000  3.500
                            Three-body k3    0.0000000    eV*rad^-3 
--------------------------------------------------------------------------------
Si    core    Harmonic      Three-body cnst  1.2614000    eV*rad^-2 0.000  1.900
õ(1   shel                  Three-body angl  109.47000    degrees   0.000  1.900
õ(2   shel                  Three-body k4    0.0000000    eV*rad^-4 0.000  3.500
                            Three-body k3    0.0000000    eV*rad^-3 
--------------------------------------------------------------------------------
Si    core    Harmonic      Three-body cnst  1.2614000    eV*rad^-2 0.000  1.900
O2    shel                  Three-body angl  109.47000    degrees   0.000  1.900
O2    shel                  Three-body k4    0.0000000    eV*rad^-4 0.000  3.500
                            Three-body k3    0.0000000    eV*rad^-3 
--------------------------------------------------------------------------------
Si    core    Harmonic      Three-body cnst  1.2614000    eV*rad^-2 0.000  1.900
O2    shel                  Three-body angl  109.47000    degrees   0.000  1.900
õ(2   shel                  Three-body k4    0.0000000    eV*rad^-4 0.000  3.500
                            Three-body k3    0.0000000    eV*rad^-3 
--------------------------------------------------------------------------------
Si    core    Harmonic      Three-body cnst  1.2614000    eV*rad^-2 0.000  1.900
õ(2   shel                  Three-body angl  109.47000    degrees   0.000  1.900
õ(2   shel                  Three-body k4    0.0000000    eV*rad^-4 0.000  3.500
                            Three-body k3    0.0000000    eV*rad^-3 
--------------------------------------------------------------------------------

********************************************************************************
*  Output for configuration   1 : c00181.vasp                                  *
********************************************************************************


  Components of energy : 

--------------------------------------------------------------------------------
  Interatomic potentials     =         760.34908818 eV    
  Three-body potentials      =           0.01517644 eV    
  Monopole - monopole (real) =       -2676.00317478 eV    
  Monopole - monopole (recip)=       -1115.35404472 eV    
  Monopole - monopole (total)=       -3791.35721950 eV    
--------------------------------------------------------------------------------
  Total lattice energy       =       -3030.99295488 eV    
--------------------------------------------------------------------------------
  Total lattice energy       =         -292444.4872 kJ/(mole unit cells)
--------------------------------------------------------------------------------


  Number of variables =      363

  Maximum number of calculations  =          1000
  Maximum Hessian update interval =            10
  Maximum step size               =   0.100000000
  Maximum parameter tolerance     =   0.000010000
  Maximum function  tolerance     =   0.000010000
  Maximum gradient  tolerance     =   0.001000000
  Maximum gradient  component     =   0.010000000

  Symmetry not applied to optimisation

  Cell parameters to be optimised using strains

  Newton-Raphson optimiser to be used

  BFGS hessian update to be used

  Lower half triangular hessian to be used

  Minimiser to switch to RFO
  When gradient norm is less than     0.050000

  Dumpfile to be written after every cycle

  Start of bulk optimisation :

  Cycle:      0 Energy:     -3030.992955  Gnorm:      4.409738  CPU:    0.129
  ** Hessian calculated **
  Cycle:      1 Energy:     -3061.655610  Gnorm:      0.960322  CPU:    0.274
  ** Hessian calculated **
  Cycle:      2 Energy:     -3064.122394  Gnorm:      0.535197  CPU:    0.494
  Cycle:      3 Energy:     -3064.869414  Gnorm:      0.340867  CPU:    0.610
  Cycle:      4 Energy:     -3065.424421  Gnorm:      0.265590  CPU:    0.745
  Cycle:      5 Energy:     -3065.953678  Gnorm:      0.212775  CPU:    0.882
  Cycle:      6 Energy:     -3066.398922  Gnorm:      0.181683  CPU:    1.015
  Cycle:      7 Energy:     -3066.610726  Gnorm:      0.135848  CPU:    1.127
  Cycle:      8 Energy:     -3066.734233  Gnorm:      0.104266  CPU:    1.241
  Cycle:      9 Energy:     -3066.805474  Gnorm:      0.079457  CPU:    1.376
  Cycle:     10 Energy:     -3066.851595  Gnorm:      0.071654  CPU:    1.508
  Cycle:     11 Energy:     -3066.902684  Gnorm:      0.076210  CPU:    1.640
  ** Hessian calculated **
  Cycle:     12 Energy:     -3066.925655  Gnorm:      0.074843  CPU:    1.878
  Cycle:     13 Energy:     -3066.963609  Gnorm:      0.072515  CPU:    2.032
  Cycle:     14 Energy:     -3067.019335  Gnorm:      0.068921  CPU:    2.185
  Cycle:     15 Energy:     -3067.082276  Gnorm:      0.064563  CPU:    2.311
  Cycle:     16 Energy:     -3067.168705  Gnorm:      0.058005  CPU:    2.458
  Cycle:     17 Energy:     -3067.232645  Gnorm:      0.054033  CPU:    2.585
  ** Hessian calculated **
  Cycle:     18 Energy:     -3067.440676  Gnorm:      0.042196  CPU:    2.818
  ** Hessian has wrong structure
  ** Imaginary eigenvectors =   2
  Cycle:     19 Energy:     -3067.447841  Gnorm:      0.077719  CPU:    3.112
  ** Hessian has wrong structure
  ** Imaginary eigenvectors =   2
  ** Hessian has wrong structure
  ** Imaginary eigenvectors =   1
  Cycle:     20 Energy:     -3067.464460  Gnorm:      0.079064  CPU:    3.695
  ** Hessian has required structure
  Cycle:     21 Energy:     -3067.646545  Gnorm:      0.044294  CPU:    4.011
  ** Hessian has required structure
  Cycle:     22 Energy:     -3067.717099  Gnorm:      0.029339  CPU:    4.228
  ** Hessian has required structure
  Cycle:     23 Energy:     -3067.757837  Gnorm:      0.022283  CPU:    4.443
  ** Hessian has required structure
  Cycle:     24 Energy:     -3067.788822  Gnorm:      0.021233  CPU:    4.658
  ** Hessian has required structure
  Cycle:     25 Energy:     -3067.807216  Gnorm:      0.029955  CPU:    4.850
  ** Hessian has required structure
  Cycle:     26 Energy:     -3067.837065  Gnorm:      0.030900  CPU:    5.042
  ** Hessian has required structure
  Cycle:     27 Energy:     -3067.844246  Gnorm:      0.025408  CPU:    5.211
  ** Hessian has required structure
  Cycle:     28 Energy:     -3067.853087  Gnorm:      0.033057  CPU:    5.400
  ** Hessian has required structure
  Cycle:     29 Energy:     -3067.870923  Gnorm:      0.034739  CPU:    5.573
  ** Hessian has required structure
  Cycle:     30 Energy:     -3067.888020  Gnorm:      0.029866  CPU:    5.747
  ** Hessian has required structure
  Cycle:     31 Energy:     -3067.917523  Gnorm:      0.021459  CPU:    6.037
  ** Hessian has required structure
  Cycle:     32 Energy:     -3067.935916  Gnorm:      0.012095  CPU:    6.202
  ** Hessian has required structure
  Cycle:     33 Energy:     -3067.940685  Gnorm:      0.012215  CPU:    6.368
  ** Hessian has required structure
  Cycle:     34 Energy:     -3067.944030  Gnorm:      0.003596  CPU:    6.534
  ** Hessian has required structure
  Cycle:     35 Energy:     -3067.944324  Gnorm:      0.002869  CPU:    6.702
  ** Hessian has required structure
  Cycle:     36 Energy:     -3067.944512  Gnorm:      0.001883  CPU:    6.883
  ** Hessian has required structure
  Cycle:     37 Energy:     -3067.944627  Gnorm:      0.001237  CPU:    7.089
  ** Hessian has required structure
  Cycle:     38 Energy:     -3067.944690  Gnorm:      0.000869  CPU:    7.296
  ** Hessian has required structure
  Cycle:     39 Energy:     -3067.944728  Gnorm:      0.000573  CPU:    7.504
  ** Hessian has required structure
  Cycle:     40 Energy:     -3067.944743  Gnorm:      0.000412  CPU:    7.689
  ** Hessian has required structure
  Cycle:     41 Energy:     -3067.944754  Gnorm:      0.000212  CPU:    7.997
  ** Hessian has required structure
  Cycle:     42 Energy:     -3067.944756  Gnorm:      0.000151  CPU:    8.159
  ** Hessian has required structure
  Cycle:     43 Energy:     -3067.944757  Gnorm:      0.000106  CPU:    8.323
  ** Hessian has required structure
  Cycle:     44 Energy:     -3067.944757  Gnorm:      0.000105  CPU:    8.509
  ** Hessian has required structure
  Cycle:     45 Energy:     -3067.944757  Gnorm:      0.000104  CPU:    8.673
  ** Hessian has required structure
  Cycle:     46 Energy:     -3067.944757  Gnorm:      0.000104  CPU:    8.839
  ** Hessian has required structure
  Cycle:     47 Energy:     -3067.944757  Gnorm:      0.000099  CPU:    9.005
  ** Hessian has required structure
  Cycle:     48 Energy:     -3067.944757  Gnorm:      0.000098  CPU:    9.167
  ** Hessian has required structure
  Cycle:     49 Energy:     -3067.944757  Gnorm:      0.000098  CPU:    9.329
  ** Hessian has required structure
  Cycle:     50 Energy:     -3067.944731  Gnorm:      0.001660  CPU:    9.595
  ** Hessian has required structure
  Cycle:     51 Energy:     -3067.944747  Gnorm:      0.000996  CPU:    9.870
  ** Hessian has required structure
  Cycle:     52 Energy:     -3067.944754  Gnorm:      0.000498  CPU:   10.084
  ** Hessian has required structure
  Cycle:     53 Energy:     -3067.944756  Gnorm:      0.000349  CPU:   10.266
  ** Hessian has required structure
  Cycle:     54 Energy:     -3067.944756  Gnorm:      0.000244  CPU:   10.422
  ** Hessian has required structure
  Cycle:     55 Energy:     -3067.944756  Gnorm:      0.000171  CPU:   10.596
  ** Hessian has required structure
  Cycle:     56 Energy:     -3067.944757  Gnorm:      0.000120  CPU:   10.768
  ** Hessian has required structure
  Cycle:     57 Energy:     -3067.944757  Gnorm:      0.000084  CPU:   10.940
  ** Hessian has required structure
  Cycle:     58 Energy:     -3067.944757  Gnorm:      0.000059  CPU:   11.110
  ** Hessian has required structure


  **** Optimisation achieved ****


  Final energy =   -3067.94475672 eV      
  Final Gnorm  =       0.00004103

  Components of energy : 

--------------------------------------------------------------------------------
  Interatomic potentials     =         815.70342820 eV    
  Three-body potentials      =           0.24275657 eV    
  Monopole - monopole (real) =       -2204.74424335 eV    
  Monopole - monopole (recip)=       -1679.14669815 eV    
  Monopole - monopole (total)=       -3883.89094150 eV    
--------------------------------------------------------------------------------
  Total lattice energy       =       -3067.94475672 eV    
--------------------------------------------------------------------------------
  Total lattice energy       =         -296009.7712 kJ/(mole unit cells)
--------------------------------------------------------------------------------

  Final fractional coordinates of atoms :

--------------------------------------------------------------------------------
   No.  Atomic        x           y          z          Radius
        Label       (Frac)      (Frac)     (Frac)       (Angs) 
--------------------------------------------------------------------------------
     1  Ge    c     0.556730    0.000000    0.122130    0.000000
     2  Ge    c     0.667424    0.706697    0.716897    0.000000
     3  Ge    c     0.675640    0.716702    0.029655    0.000000
     4  Si    c     0.045376    0.982255    0.366033    0.000000
     5  Si    c     0.441514    0.997710    0.371952    0.000000
     6  Si    c     0.951983    0.972257    0.632570    0.000000
     7  Si    c     0.546271    0.992023    0.623733    0.000000
     8  Si    c     0.946890    0.977235    0.110519    0.000000
     9  Si    c     0.447669    0.987490    0.878646    0.000000
    10  Si    c     0.062067    0.991402    0.877703    0.000000
    11  Si    c     0.159113    0.276728    0.275418    0.000000
    12  Si    c     0.331919    0.703178    0.287965    0.000000
    13  Si    c     0.834592    0.260732    0.715197    0.000000
    14  Si    c     0.846500    0.661435    0.709774    0.000000
    15  Si    c     0.654204    0.288725    0.724001    0.000000
    16  Si    c     0.151441    0.680150    0.277102    0.000000
    17  Si    c     0.338558    0.300855    0.290141    0.000000
    18  Si    c     0.654556    0.308941    0.023134    0.000000
    19  Si    c     0.853386    0.657543    0.019810    0.000000
    20  Si    c     0.350046    0.301307    0.985828    0.000000
    21  Si    c     0.156351    0.677406    0.974334    0.000000
    22  Si    c     0.337209    0.700816    0.983772    0.000000
    23  Si    c     0.170118    0.278256    0.971215    0.000000
    24  Si    c     0.835516    0.265033    0.019383    0.000000
    25  O2    c     0.104277    0.146327    0.355956    0.000000
    26  O2    c     0.381302    0.833672    0.378674    0.000000
    27  O2    c     0.884019    0.118994    0.633713    0.000000
    28  O3    c     0.603697    0.827479    0.624173    0.000000
    29  O2    c     0.913478    0.779914    0.643923    0.000000
    30  O2    c     0.597047    0.169151    0.638489    0.000000
    31  O2    c     0.093892    0.801096    0.361278    0.000000
    32  O2    c     0.392845    0.179615    0.379578    0.000000
    33  O2    c     0.999707    0.990355    0.500534    0.000000
    34  O2    c     0.504381    0.994426    0.484901    0.000000
    35  O2    c     0.981403    0.989067    0.253556    0.000000
    36  O3    c     0.485964    0.983657    0.236371    0.000000
    37  O2    c     0.012276    0.004326    0.748389    0.000000
    38  O2    c     0.477851    0.982241    0.730970    0.000000
    39  O3    c     0.598412    0.205985    0.119729    0.000000
    40  O2    c     0.920436    0.778207    0.081222    0.000000
    41  O2    c     0.411647    0.180019    0.910049    0.000000
    42  O2    c     0.102174    0.799503    0.885256    0.000000
    43  O2    c     0.381820    0.838215    0.894015    0.000000
    44  O2    c     0.128041    0.141951    0.875800    0.000000
    45  O1    c     0.629713    0.849096    0.138910    0.000000
    46  O2    c     0.874547    0.112732    0.104623    0.000000
    47  O3    c     0.517765    0.943111    0.972443    0.000000
    48  O2    c     0.009532    0.034335    0.003147    0.000000
    49  O2    c     0.132752    0.476490    0.304617    0.000000
    50  O2    c     0.356433    0.503858    0.321780    0.000000
    51  O2    c     0.865265    0.456071    0.681769    0.000000
    52  O3    c     0.635733    0.491384    0.707188    0.000000
    53  O2    c     0.248629    0.253887    0.319819    0.000000
    54  O2    c     0.240005    0.726650    0.315959    0.000000
    55  O2    c     0.743345    0.246457    0.679058    0.000000
    56  O3    c     0.762210    0.710876    0.655581    0.000000
    57  O2    c     0.153452    0.232515    0.122165    0.000000
    58  O2    c     0.349035    0.745436    0.136267    0.000000
    59  O2    c     0.844556    0.216176    0.867511    0.000000
    60  O1    c     0.668266    0.788305    0.871702    0.000000
    61  O2    c     0.843819    0.692482    0.865474    0.000000
    62  O2    c     0.642606    0.235391    0.875749    0.000000
    63  O2    c     0.137643    0.721504    0.124939    0.000000
    64  O2    c     0.358612    0.261760    0.139114    0.000000
    65  O3    c     0.633496    0.510733    0.030855    0.000000
    66  O2    c     0.876078    0.453749    0.045796    0.000000
    67  O2    c     0.369723    0.504558    0.956217    0.000000
    68  O2    c     0.138832    0.474302    0.941774    0.000000
    69  O2    c     0.745229    0.277327    0.060773    0.000000
    70  O3    c     0.771059    0.702777    0.082885    0.000000
    71  O2    c     0.262029    0.262012    0.941214    0.000000
    72  O2    c     0.246802    0.715396    0.945999    0.000000
    73  O2    s     0.104104    0.143284    0.347908    0.000000
    74  O2    s     0.382122    0.836369    0.368074    0.000000
    75  O2    s     0.885807    0.118932    0.642672    0.000000
    76  O3    s     0.603156    0.834275    0.631850    0.000000
    77  O2    s     0.910316    0.787696    0.649853    0.000000
    78  O2    s     0.597953    0.163581    0.646368    0.000000
    79  O2    s     0.095149    0.807060    0.352280    0.000000
    80  O2    s     0.391970    0.173833    0.368929    0.000000
    81  O2    s     0.999490    0.987237    0.500173    0.000000
    82  O2    s     0.501739    0.994554    0.487324    0.000000
    83  O2    s     0.984653    0.986899    0.249576    0.000000
    84  O3    s     0.487818    0.986703    0.240223    0.000000
    85  O2    s     0.011303    0.999137    0.750585    0.000000
    86  O2    s     0.481956    0.983911    0.735791    0.000000
    87  O3    s     0.600787    0.199892    0.110074    0.000000
    88  O2    s     0.915899    0.786234    0.077542    0.000000
    89  O2    s     0.408531    0.173516    0.915329    0.000000
    90  O2    s     0.103895    0.806327    0.894311    0.000000
    91  O2    s     0.383776    0.838549    0.902723    0.000000
    92  O2    s     0.125640    0.140944    0.886649    0.000000
    93  O1    s     0.627688    0.850229    0.128933    0.000000
    94  O2    s     0.877942    0.115041    0.095735    0.000000
    95  O3    s     0.513489    0.952131    0.974394    0.000000
    96  O2    s     0.008308    0.023216    0.001295    0.000000
    97  O2    s     0.137611    0.477143    0.298514    0.000000
    98  O2    s     0.351871    0.503197    0.314735    0.000000
    99  O2    s     0.860084    0.456813    0.688205    0.000000
   100  O3    s     0.640215    0.487470    0.709721    0.000000
   101  O2    s     0.248690    0.261448    0.311830    0.000000
   102  O2    s     0.240434    0.719042    0.308717    0.000000
   103  O2    s     0.743946    0.252309    0.687512    0.000000
   104  O3    s     0.763300    0.705680    0.665671    0.000000
   105  O2    s     0.155846    0.242059    0.122503    0.000000
   106  O2    s     0.345991    0.736326    0.136101    0.000000
   107  O2    s     0.842514    0.226153    0.867570    0.000000
   108  O1    s     0.668753    0.776643    0.871584    0.000000
   109  O2    s     0.845067    0.685451    0.865297    0.000000
   110  O2    s     0.644974    0.248003    0.875154    0.000000
   111  O2    s     0.141087    0.712524    0.125064    0.000000
   112  O2    s     0.355579    0.270095    0.138709    0.000000
   113  O3    s     0.639096    0.505995    0.029944    0.000000
   114  O2    s     0.869577    0.455202    0.040378    0.000000
   115  O2    s     0.364237    0.503555    0.962261    0.000000
   116  O2    s     0.144034    0.475362    0.948404    0.000000
   117  O2    s     0.745667    0.279312    0.052319    0.000000
   118  O3    s     0.771954    0.699216    0.072148    0.000000
   119  O2    s     0.261653    0.268134    0.949373    0.000000
   120  O2    s     0.246789    0.709484    0.953368    0.000000
--------------------------------------------------------------------------------

  Final Cartesian lattice vectors (Angstroms) :

       17.134081    0.017985    0.041401
        0.007868    7.617303   -0.008172
        0.024081   -0.012407   10.260115


  Final cell parameters and derivatives :

--------------------------------------------------------------------------------
       a           17.134140 Angstrom     dE/de1(xx)    -0.001299 eV/strain
       b            7.617312 Angstrom     dE/de2(yy)    -0.001775 eV/strain
       c           10.260150 Angstrom     dE/de3(zz)     0.007772 eV/strain
       alpha       90.130617 Degrees      dE/de4(yz)     0.000141 eV/strain
       beta        89.727153 Degrees      dE/de5(xz)     0.000344 eV/strain
       gamma       89.880822 Degrees      dE/de6(xy)     0.000174 eV/strain
--------------------------------------------------------------------------------

  Primitive cell volume =          1339.093101 Angs**3

  Density of cell =      1.953999 g/cm**3

  Non-primitive cell volume =          1339.093101 Angs**3


  Final internal derivatives :

--------------------------------------------------------------------------------
   No.  Atomic          a             b             c           Radius
        Label          (eV)          (eV)          (eV)        (eV/Angs)
--------------------------------------------------------------------------------
      1 Ge    c       0.000000      0.000000      0.000000      0.000000
      2 Ge    c       0.000738     -0.000533     -0.001559      0.000000
      3 Ge    c       0.000876     -0.000613      0.001494      0.000000
      4 Si    c       0.002975     -0.000078     -0.000501      0.000000
      5 Si    c      -0.002814      0.000112     -0.000152      0.000000
      6 Si    c      -0.003118     -0.000125      0.000439      0.000000
      7 Si    c       0.002446     -0.000130      0.000923      0.000000
      8 Si    c      -0.002417     -0.000038     -0.001134      0.000000
      9 Si    c      -0.002337      0.000011      0.000921      0.000000
     10 Si    c       0.002591     -0.000140      0.000688      0.000000
     11 Si    c       0.000627      0.000329      0.001614      0.000000
     12 Si    c      -0.001326     -0.000363      0.001329      0.000000
     13 Si    c      -0.000724      0.000284     -0.001594      0.000000
     14 Si    c      -0.000497     -0.000153     -0.001553      0.000000
     15 Si    c       0.001112      0.000423     -0.001466      0.000000
     16 Si    c       0.000814     -0.000233      0.001608      0.000000
     17 Si    c      -0.001305      0.000226      0.001337      0.000000
     18 Si    c       0.001008      0.000507      0.001443      0.000000
     19 Si    c      -0.000607     -0.000249      0.001602      0.000000
     20 Si    c      -0.000572      0.000254     -0.001666      0.000000
     21 Si    c       0.001269     -0.000293     -0.001452      0.000000
     22 Si    c      -0.000848     -0.000397     -0.001548      0.000000
     23 Si    c       0.001298      0.000456     -0.001327      0.000000
     24 Si    c      -0.000974      0.000411      0.001592      0.000000
     25 O2    c      -0.000516     -0.000259     -0.000075      0.000000
     26 O2    c       0.000862      0.000443      0.000051      0.000000
     27 O2    c       0.000688     -0.000270      0.000132      0.000000
     28 O3    c      -0.001163      0.000611      0.000008      0.000000
     29 O2    c       0.000063      0.000174      0.000159      0.000000
     30 O2    c      -0.000677     -0.000371     -0.000074      0.000000
     31 O2    c      -0.000487      0.000317     -0.000112      0.000000
     32 O2    c       0.000731     -0.000434     -0.000025      0.000000
     33 O2    c       0.000174      0.000135      0.000021      0.000000
     34 O2    c      -0.000140     -0.000004     -0.000672      0.000000
     35 O2    c      -0.000114      0.000089      0.000885      0.000000
     36 O3    c       0.000631     -0.000129     -0.001087      0.000000
     37 O2    c      -0.000265      0.000215     -0.000417      0.000000
     38 O2    c       0.000411     -0.000045     -0.001094      0.000000
     39 O3    c      -0.000846     -0.000502     -0.000010      0.000000
     40 O2    c       0.000091      0.000161     -0.000042      0.000000
     41 O2    c       0.000107     -0.000184      0.000064      0.000000
     42 O2    c      -0.000645      0.000389     -0.000050      0.000000
     43 O2    c       0.000779      0.000359     -0.000061      0.000000
     44 O2    c      -0.000992     -0.000479     -0.000176      0.000000
     45 O1    c      -0.001866      0.000815      0.000056      0.000000
     46 O2    c       0.000903     -0.000384      0.000035      0.000000
     47 O3    c      -0.000301     -0.000495     -0.001232      0.000000
     48 O2    c      -0.000131      0.000293      0.000360      0.000000
     49 O2    c       0.000221     -0.000017     -0.000249      0.000000
     50 O2    c      -0.000141      0.000026     -0.000258      0.000000
     51 O2    c      -0.000278     -0.000001      0.000292      0.000000
     52 O3    c       0.000385     -0.000224      0.000284      0.000000
     53 O2    c       0.000333      0.000094     -0.000368      0.000000
     54 O2    c       0.000402     -0.000085     -0.000352      0.000000
     55 O2    c      -0.000082      0.000071      0.000425      0.000000
     56 O3    c      -0.000202     -0.000046      0.000688      0.000000
     57 O2    c      -0.000604     -0.000506     -0.000188      0.000000
     58 O2    c       0.000816      0.000484      0.000120      0.000000
     59 O2    c       0.000518     -0.000519      0.000047      0.000000
     60 O1    c      -0.000196      0.001356     -0.000048      0.000000
     61 O2    c      -0.000457      0.000368      0.000076      0.000000
     62 O2    c      -0.000614     -0.000632      0.000100      0.000000
     63 O2    c      -0.000920      0.000471     -0.000137      0.000000
     64 O2    c       0.000827     -0.000444      0.000184      0.000000
     65 O3    c       0.000663     -0.000055     -0.000164      0.000000
     66 O2    c      -0.000375      0.000091     -0.000280      0.000000
     67 O2    c      -0.000258      0.000045      0.000250      0.000000
     68 O2    c       0.000171     -0.000056      0.000237      0.000000
     69 O2    c       0.000221      0.000006     -0.000432      0.000000
     70 O3    c       0.000298     -0.000120     -0.000789      0.000000
     71 O2    c      -0.000472      0.000048      0.000358      0.000000
     72 O2    c      -0.000263     -0.000074      0.000355      0.000000
     73 O2    s       0.000317      0.000105      0.000409      0.000000
     74 O2    s      -0.000383     -0.000170      0.000532      0.000000
     75 O2    s      -0.000450      0.000131     -0.000484      0.000000
     76 O3    s       0.000530     -0.000314     -0.000362      0.000000
     77 O2    s      -0.000197     -0.000088     -0.000338      0.000000
     78 O2    s       0.000259      0.000133     -0.000382      0.000000
     79 O2    s       0.000319     -0.000116      0.000456      0.000000
     80 O2    s      -0.000353      0.000155      0.000578      0.000000
     81 O2    s       0.000000     -0.000058     -0.000024      0.000000
     82 O2    s       0.000285      0.000018      0.000287      0.000000
     83 O2    s      -0.000072     -0.000056     -0.000154      0.000000
     84 O3    s      -0.000410      0.000087      0.000470      0.000000
     85 O2    s       0.000097     -0.000113     -0.000012      0.000000
     86 O2    s      -0.000261      0.000062      0.000150      0.000000
     87 O3    s       0.000638      0.000324      0.000571      0.000000
     88 O2    s      -0.000314     -0.000097      0.000189      0.000000
     89 O2    s      -0.000077      0.000030     -0.000299      0.000000
     90 O2    s       0.000516     -0.000166     -0.000423      0.000000
     91 O2    s      -0.000394     -0.000135     -0.000337      0.000000
     92 O2    s       0.000631      0.000195     -0.000404      0.000000
     93 O1    s       0.001400     -0.000540      0.000581      0.000000
     94 O2    s      -0.000471      0.000180      0.000321      0.000000
     95 O3    s       0.000093      0.000336      0.000630      0.000000
     96 O2    s       0.000082     -0.000148     -0.000010      0.000000
     97 O2    s       0.000155      0.000006      0.000434      0.000000
     98 O2    s      -0.000246     -0.000003      0.000471      0.000000
     99 O2    s      -0.000152     -0.000014     -0.000435      0.000000
    100 O3    s       0.000149      0.000095     -0.000366      0.000000
    101 O2    s      -0.000084      0.000090      0.000568      0.000000
    102 O2    s      -0.000103     -0.000089      0.000507      0.000000
    103 O2    s      -0.000019      0.000144     -0.000557      0.000000
    104 O3    s       0.000050     -0.000118     -0.000946      0.000000
    105 O2    s       0.000125      0.000160      0.000047      0.000000
    106 O2    s      -0.000299     -0.000171      0.000020      0.000000
    107 O2    s      -0.000204      0.000206     -0.000031      0.000000
    108 O1    s       0.000066     -0.000819      0.000075      0.000000
    109 O2    s       0.000376     -0.000124     -0.000013      0.000000
    110 O2    s       0.000299      0.000219     -0.000090      0.000000
    111 O2    s       0.000344     -0.000164      0.000054      0.000000
    112 O2    s      -0.000332      0.000148     -0.000005      0.000000
    113 O3    s       0.000114     -0.000005      0.000149      0.000000
    114 O2    s      -0.000233      0.000024      0.000407      0.000000
    115 O2    s      -0.000199     -0.000034     -0.000436      0.000000
    116 O2    s       0.000310      0.000050     -0.000408      0.000000
    117 O2    s       0.000024      0.000189      0.000470      0.000000
    118 O3    s      -0.000121     -0.000103      0.000941      0.000000
    119 O2    s       0.000133      0.000101     -0.000540      0.000000
    120 O2    s       0.000082     -0.000093     -0.000482      0.000000
--------------------------------------------------------------------------------
  Maximum abs         0.003118      0.001356      0.001666      0.000000
--------------------------------------------------------------------------------


  Born effective charge tensors : 

-------------------------------------------------------------------------------
  Atom             x           y             z
-------------------------------------------------------------------------------
    1 Ge    x       4.4513      0.1714     -0.0787
            y      -0.1948      3.8762     -0.0818
            z      -0.7611     -0.0776      3.6647
-------------------------------------------------------------------------------
    2 Ge    x       4.0558     -0.3881      0.1311
            y      -0.2741      4.2275     -0.1981
            z       0.2641      0.0203      3.4518
-------------------------------------------------------------------------------
    3 Ge    x       4.0670     -0.4964     -0.1830
            y      -0.1613      4.1780      0.3313
            z      -0.2452      0.0882      3.4562
-------------------------------------------------------------------------------
    4 Si    x       3.4230     -0.0398     -0.2320
            y       0.0802      3.2583     -0.0173
            z      -0.4237      0.0258      3.8299
-------------------------------------------------------------------------------
    5 Si    x       3.5719     -0.0623     -0.0755
            y       0.0717      3.2907     -0.0000
            z       0.5433      0.0257      3.9704
-------------------------------------------------------------------------------
    6 Si    x       3.4487      0.1576     -0.1818
            y      -0.1350      3.2302     -0.0325
            z      -0.4419     -0.0188      3.8282
-------------------------------------------------------------------------------
    7 Si    x       3.7277     -0.1329      0.2958
            y      -0.2195      3.4456      0.0490
            z       0.3759     -0.0061      3.8220
-------------------------------------------------------------------------------
    8 Si    x       3.4097      0.1633      0.2947
            y      -0.2340      3.2428      0.0538
            z       0.4229     -0.0048      3.1262
-------------------------------------------------------------------------------
    9 Si    x       3.7701     -0.1778     -0.2038
            y       0.1329      3.3351     -0.0086
            z      -0.2738     -0.0349      3.3334
-------------------------------------------------------------------------------
   10 Si    x       3.4451     -0.1575      0.1812
            y       0.1373      3.2567     -0.0155
            z       0.5605     -0.0168      3.1029
-------------------------------------------------------------------------------
   11 Si    x       3.1846      0.2879     -0.0922
            y       0.2283      3.4725     -0.1520
            z      -0.1209     -0.0774      2.8233
-------------------------------------------------------------------------------
   12 Si    x       3.1696      0.2889      0.1596
            y       0.2036      3.4469      0.1661
            z       0.1061      0.0764      2.8213
-------------------------------------------------------------------------------
   13 Si    x       3.2220     -0.3271     -0.1054
            y      -0.1526      3.4397      0.1334
            z      -0.1092      0.0681      2.8182
-------------------------------------------------------------------------------
   14 Si    x       3.5010      0.1750      0.1056
            y       0.2553      3.5553     -0.1938
            z      -0.0923     -0.1363      2.8891
-------------------------------------------------------------------------------
   15 Si    x       3.3680      0.1882      0.0931
            y       0.1606      3.7730      0.1773
            z       0.1492     -0.0021      2.8562
-------------------------------------------------------------------------------
   16 Si    x       3.1744     -0.2197     -0.0678
            y      -0.2592      3.4324      0.1705
            z      -0.0835      0.0841      2.8155
-------------------------------------------------------------------------------
   17 Si    x       3.1540     -0.2215      0.1052
            y      -0.2363      3.4137     -0.1678
            z       0.1009     -0.0878      2.8210
-------------------------------------------------------------------------------
   18 Si    x       3.6224      0.3301     -0.3223
            y       0.2514      3.8008     -0.3485
            z      -0.3426     -0.0846      2.9371
-------------------------------------------------------------------------------
   19 Si    x       3.5282      0.2051     -0.0686
            y       0.2356      3.5089      0.1820
            z       0.1667      0.1197      2.8024
-------------------------------------------------------------------------------
   20 Si    x       3.2704     -0.2507     -0.1169
            y      -0.2793      3.4112      0.1394
            z      -0.1847      0.0725      2.7440
-------------------------------------------------------------------------------
   21 Si    x       3.2435     -0.2635      0.1623
            y      -0.2639      3.4172     -0.1733
            z       0.1375     -0.0741      2.7281
-------------------------------------------------------------------------------
   22 Si    x       3.1900      0.2818     -0.1706
            y       0.1046      3.4462     -0.1774
            z      -0.1119     -0.0953      2.7739
-------------------------------------------------------------------------------
   23 Si    x       3.2180      0.3086      0.1879
            y       0.1238      3.4496      0.1877
            z       0.1092      0.0798      2.7430
-------------------------------------------------------------------------------
   24 Si    x       3.1946     -0.3954      0.1512
            y      -0.0788      3.4291     -0.1557
            z       0.1141     -0.0762      2.7344
-------------------------------------------------------------------------------
   25 O2    x      -1.7316     -0.7371      0.3372
            y      -0.7667     -1.9912      0.3557
            z       0.3697      0.3368     -1.3431
-------------------------------------------------------------------------------
   26 O2    x      -1.6856     -0.7108     -0.3077
            y      -0.7166     -1.9760     -0.3515
            z      -0.3620     -0.3203     -1.3683
-------------------------------------------------------------------------------
   27 O2    x      -1.7756      0.7294      0.2946
            y       0.7551     -1.9388     -0.3128
            z       0.3528     -0.3305     -1.3418
-------------------------------------------------------------------------------
   28 O3    x      -2.1995      0.9904     -0.4197
            y       1.0402     -2.3720      0.3816
            z      -0.4582      0.3536     -1.5113
-------------------------------------------------------------------------------
   29 O2    x      -1.6557     -0.7195      0.2763
            y      -0.6757     -2.0650      0.3108
            z       0.3372      0.3092     -1.3065
-------------------------------------------------------------------------------
   30 O2    x      -1.7805     -0.7050     -0.3845
            y      -0.6900     -1.8924     -0.3694
            z      -0.3833     -0.3207     -1.3858
-------------------------------------------------------------------------------
   31 O2    x      -1.6570      0.7026      0.3211
            y       0.6872     -1.9823     -0.3266
            z       0.3501     -0.3262     -1.3553
-------------------------------------------------------------------------------
   32 O2    x      -1.6219      0.6872     -0.2994
            y       0.6474     -1.9775      0.3323
            z      -0.3723      0.3251     -1.3660
-------------------------------------------------------------------------------
   33 O2    x      -1.5940     -0.0363      0.8337
            y       0.0009     -1.0888      0.0237
            z       1.0265      0.0493     -2.8226
-------------------------------------------------------------------------------
   34 O2    x      -1.7434      0.0017     -0.8154
            y       0.0140     -1.0907      0.0137
            z      -1.0502     -0.0012     -2.6032
-------------------------------------------------------------------------------
   35 O2    x      -1.6559     -0.0300     -0.7132
            y       0.0197     -1.1112     -0.0202
            z      -0.6697     -0.0264     -2.2612
-------------------------------------------------------------------------------
   36 O3    x      -2.1211     -0.0340      0.9665
            y      -0.0258     -1.2478      0.0263
            z       0.9599      0.0169     -2.6780
-------------------------------------------------------------------------------
   37 O2    x      -1.7546     -0.0291     -0.7431
            y      -0.0257     -1.1161     -0.0298
            z      -0.7826     -0.0376     -2.2109
-------------------------------------------------------------------------------
   38 O2    x      -1.7009     -0.0147      0.6816
            y      -0.0449     -1.1134      0.0165
            z       0.6573      0.0129     -2.2550
-------------------------------------------------------------------------------
   39 O3    x      -2.0573     -0.9083      0.5411
            y      -0.7857     -2.2228      0.5157
            z       0.5735      0.4767     -1.5582
-------------------------------------------------------------------------------
   40 O2    x      -1.6452     -0.6851     -0.3162
            y      -0.5560     -2.0678     -0.3677
            z      -0.3398     -0.3442     -1.1873
-------------------------------------------------------------------------------
   41 O2    x      -1.6948      0.6903      0.3907
            y       0.6073     -2.0434     -0.4256
            z       0.3874     -0.3984     -1.2740
-------------------------------------------------------------------------------
   42 O2    x      -1.6308      0.6942     -0.3365
            y       0.6096     -2.0265      0.3736
            z      -0.3662      0.3611     -1.2596
-------------------------------------------------------------------------------
   43 O2    x      -1.7292     -0.7092      0.4173
            y      -0.6696     -1.9450      0.4130
            z       0.3642      0.3759     -1.2921
-------------------------------------------------------------------------------
   44 O2    x      -1.7240     -0.6983     -0.3135
            y      -0.6855     -1.9190     -0.3569
            z      -0.3286     -0.3285     -1.2728
-------------------------------------------------------------------------------
   45 O1    x      -2.3286      0.9813      0.3760
            y       0.9570     -2.3372     -0.4449
            z       0.4325     -0.3795     -1.5915
-------------------------------------------------------------------------------
   46 O2    x      -1.7638      0.7155     -0.3308
            y       0.6707     -1.9190      0.3464
            z      -0.3353      0.3567     -1.2448
-------------------------------------------------------------------------------
   47 O3    x      -2.2409      0.0648     -0.8118
            y       0.0546     -1.3452      0.0046
            z      -0.4760     -0.0168     -2.0546
-------------------------------------------------------------------------------
   48 O2    x      -1.7995     -0.0448      0.5838
            y      -0.0298     -1.2038      0.0270
            z       0.3287      0.0152     -1.6666
-------------------------------------------------------------------------------
   49 O2    x      -1.1562      0.0388      0.0551
            y       0.0579     -2.5609     -0.0103
            z       0.0705      0.0054     -1.0647
-------------------------------------------------------------------------------
   50 O2    x      -1.1481      0.0351     -0.0748
            y       0.0500     -2.5355      0.0130
            z      -0.0786      0.0012     -1.0770
-------------------------------------------------------------------------------
   51 O2    x      -1.1676     -0.0817      0.0538
            y      -0.1338     -2.5449      0.0196
            z       0.0833      0.0183     -1.0933
-------------------------------------------------------------------------------
   52 O3    x      -1.3563      0.0058     -0.0520
            y      -0.0623     -3.2783      0.0780
            z      -0.0780      0.1281     -1.1585
-------------------------------------------------------------------------------
   53 O2    x      -2.3695     -0.0833     -0.0672
            y      -0.0419     -1.2464      0.0632
            z      -0.0601      0.0453     -1.0722
-------------------------------------------------------------------------------
   54 O2    x      -2.3872     -0.0772     -0.0553
            y      -0.0259     -1.2470     -0.0667
            z      -0.0313     -0.0482     -1.0602
-------------------------------------------------------------------------------
   55 O2    x      -2.4746      0.0633      0.0380
            y       0.0114     -1.2328     -0.0669
            z      -0.0064     -0.0314     -1.0910
-------------------------------------------------------------------------------
   56 O3    x      -2.9351      0.2137     -0.0816
            y       0.1580     -1.4063      0.1136
            z      -0.1292      0.0843     -1.2791
-------------------------------------------------------------------------------
   57 O2    x      -1.1720     -0.1270      0.0172
            y      -0.0963     -1.2861      0.0108
            z       0.0407     -0.0068     -2.0769
-------------------------------------------------------------------------------
   58 O2    x      -1.1715     -0.1250      0.0462
            y      -0.0932     -1.2823     -0.0240
            z       0.0378     -0.0095     -2.0884
-------------------------------------------------------------------------------
   59 O2    x      -1.1798      0.1362     -0.0491
            y       0.0756     -1.2735     -0.0240
            z      -0.0241     -0.0058     -2.0789
-------------------------------------------------------------------------------
   60 O1    x      -1.4311      0.1518     -0.0432
            y       0.0849     -1.6237      0.0240
            z      -0.0576     -0.0389     -2.6375
-------------------------------------------------------------------------------
   61 O2    x      -1.1997     -0.0829     -0.0580
            y      -0.0903     -1.2939      0.0059
            z      -0.0652      0.0165     -2.1149
-------------------------------------------------------------------------------
   62 O2    x      -1.2720     -0.1439     -0.0013
            y      -0.1180     -1.2944     -0.0402
            z       0.0193     -0.0482     -2.0296
-------------------------------------------------------------------------------
   63 O2    x      -1.2004      0.1324     -0.0026
            y       0.1273     -1.2707      0.0100
            z      -0.0057     -0.0019     -2.0580
-------------------------------------------------------------------------------
   64 O2    x      -1.1944      0.1181      0.0705
            y       0.1178     -1.2645     -0.0020
            z       0.0845      0.0160     -2.0862
-------------------------------------------------------------------------------
   65 O3    x      -1.4425     -0.0182      0.0554
            y      -0.0945     -3.0834     -0.0611
            z       0.0986     -0.0686     -1.1084
-------------------------------------------------------------------------------
   66 O2    x      -1.2478     -0.1031     -0.0750
            y      -0.1706     -2.4628      0.0175
            z      -0.1159     -0.0160     -1.0326
-------------------------------------------------------------------------------
   67 O2    x      -1.2237      0.0486      0.0838
            y       0.1126     -2.5242      0.0144
            z       0.1010      0.0020     -1.0300
-------------------------------------------------------------------------------
   68 O2    x      -1.2042      0.0467     -0.0912
            y       0.1182     -2.5145     -0.0146
            z      -0.0931      0.0012     -1.0301
-------------------------------------------------------------------------------
   69 O2    x      -2.4553      0.1289      0.0008
            y       0.0651     -1.2412      0.0552
            z       0.0208      0.0145     -1.0745
-------------------------------------------------------------------------------
   70 O3    x      -2.9019      0.2322      0.1434
            y       0.1566     -1.3998     -0.1112
            z       0.1766     -0.0799     -1.2602
-------------------------------------------------------------------------------
   71 O2    x      -2.4118     -0.0628     -0.0620
            y      -0.0473     -1.2374     -0.0678
            z      -0.0338     -0.0432     -1.0455
-------------------------------------------------------------------------------
   72 O2    x      -2.4174     -0.0671     -0.0479
            y      -0.0493     -1.2402      0.0600
            z      -0.0293      0.0387     -1.0349
-------------------------------------------------------------------------------




  Elastic Constant Matrix: (Units=GPa)

-------------------------------------------------------------------------------
  Indices      1         2         3         4         5         6    
-------------------------------------------------------------------------------
       1     59.9730   33.9457   31.7219   -1.3800    4.7036    3.4171
       2     33.9457   83.7881   29.0394   -1.5077    4.0344    1.8478
       3     31.7219   29.0394   36.4751   -0.8997    2.5486    0.5487
       4     -1.3800   -1.5077   -0.8997   12.0700    0.5694    1.4238
       5      4.7036    4.0344    2.5486    0.5694   26.1521   -0.0959
       6      3.4171    1.8478    0.5487    1.4238   -0.0959   25.3750
-------------------------------------------------------------------------------


  Elastic Compliance Matrix: (Units=1/GPa)

-------------------------------------------------------------------------------
  Indices      1         2         3         4         5         6    
-------------------------------------------------------------------------------
       1    0.032666 -0.004475 -0.024545  0.001912 -0.002848 -0.003660
       2   -0.004475  0.017179 -0.009688  0.001015 -0.000925 -0.000499
       3   -0.024545 -0.009688  0.056400 -0.000163  0.000427  0.002802
       4    0.001912  0.001015 -0.000163  0.083888 -0.002329 -0.005044
       5   -0.002848 -0.000925  0.000427 -0.002329  0.038905  0.000719
       6   -0.003660 -0.000499  0.002802 -0.005044  0.000719  0.040163
-------------------------------------------------------------------------------

  Mechanical properties :

-------------------------------------------------------------------------------
  Convention :                    Reuss         Voigt         Hill
-------------------------------------------------------------------------------
  Bulk  Modulus (GPa)     =      34.68812      41.07224      37.88018
  Shear Modulus (GPa)     =      14.03602      18.42136      16.22869
-------------------------------------------------------------------------------
  Velocity S-wave (km/s)  =       2.68015       3.07043       2.88190
  Velocity P-wave (km/s)  =       5.22781       5.79565       5.51904
-------------------------------------------------------------------------------
  Compressibility (1/GPa) =    0.02882831
-------------------------------------------------------------------------------
  Stress axis :                     x             y             z
-------------------------------------------------------------------------------
  Youngs Moduli (GPa)     =      30.61316      58.20907      17.73065
-------------------------------------------------------------------------------
  Poissons Ratio (x)      =                     0.26049       0.43520
  Poissons Ratio (y)      =       0.13699                     0.17178
  Poissons Ratio (z)      =       0.75140       0.56394
-------------------------------------------------------------------------------


  Piezoelectric Strain Matrix: (Units=C/m**2)

-------------------------------------------------------------------------------
  Indices      1         2         3         4         5         6    
-------------------------------------------------------------------------------
       x    -0.58608  -0.96634  -0.81668   0.47526   0.15583  -0.03858
       y    -0.56136  -1.46056   0.13359  -0.04821   0.55590  -0.12163
       z     0.05103  -0.05800  -0.10572   0.33221  -0.01615   0.10606
-------------------------------------------------------------------------------


  Piezoelectric Stress Matrix: (Units=10**-11 C/N)

-------------------------------------------------------------------------------
  Indices      1         2         3         4         5         6    
-------------------------------------------------------------------------------
       x     0.58315  -0.57088  -2.24324   3.77325   0.71422  -0.34951
       y    -1.63104  -2.43762   3.53676  -0.73031   2.46588  -0.10835
       z     0.48144   0.00986  -0.64171   2.74271  -0.14624   0.21186
-------------------------------------------------------------------------------


  Static dielectric constant tensor : 

-------------------------------------------------------------------------------
              x         y         z
-------------------------------------------------------------------------------
       x     3.94777  -0.01366  -0.01903
       y    -0.01366   4.12157  -0.06670
       z    -0.01903  -0.06670   3.20138
--------------------------------------------------------------------------------

  High frequency dielectric constant tensor : 

-------------------------------------------------------------------------------
              x         y         z
-------------------------------------------------------------------------------
       x     1.67924   0.00091   0.00190
       y     0.00091   1.68664  -0.00037
       z     0.00190  -0.00037   1.62003
-------------------------------------------------------------------------------

  Static refractive indices : 

-------------------------------------------------------------------------------
    1 =    1.78775      2 =    1.98682      3 =    2.03156
-------------------------------------------------------------------------------

  High frequency refractive indices : 

-------------------------------------------------------------------------------
    1 =    1.27278      2 =    1.29584      3 =    1.29875
-------------------------------------------------------------------------------


  Time to end of optimisation =      11.5004 seconds


  Peak dynamic memory used =       5.01 MB 


  Timing analysis for GULP :

--------------------------------------------------------------------------------
  Task / Subroutine                                          Time (Seconds)
--------------------------------------------------------------------------------
  Calculation of reciprocal space energy and derivatives          0.6432
  Calculation of real space energy and derivatives                7.0503
  Calculation of three-body energy and derivatives                0.7446
  Calculation and manipulation of Hessian matrix                  3.2013
  Calculation of matrix inversion                                 0.0333
  Global summation overhead                                       0.0002
--------------------------------------------------------------------------------
  Total CPU time                                                 11.5004
--------------------------------------------------------------------------------


  Dump file written as c00181.vasp.grs
  CIF file written as c00181.vasp.cif


  Job Finished at 11:58.35  7th October    2025                               

