********************************************************************************
*                       GENERAL UTILITY LATTICE PROGRAM                        *
*                                 Julian Gale                                  *
*                       Curtin Institute for Computation                       *
*                    School of Molecular and Life Sciences                     *
*                    Curtin University, Western Australia                      *
********************************************************************************
* Version = 6.1.2 * Last modified =   3rd November 2022                        *
********************************************************************************
*  optimise     - perform optimisation run                                     *
*  conp         - constant pressure calculation                                *
*  property     - calculate properties for final geometry                      *
********************************************************************************

  Job Started  at 11:50.01  7th October    2025                               

  Number of CPUs =     1


  Total number of configurations input =      1

********************************************************************************
*  Input for Configuration =   1 : c00136.vasp                                 *
********************************************************************************

  Formula = Ge3Si21O48                                                  

  Number of irreducible atoms/shells =     120


  Total number atoms/shells =     120

  Dimensionality = 3               :  Bulk   



  Cartesian lattice vectors (Angstroms) :

       17.182800    0.000000    0.000000
        0.000000    7.513760    0.000000
        0.000000    0.000000   10.447700

  Cell parameters (Angstroms/Degrees):

  a =      17.1828    alpha =  90.0000
  b =       7.5138    beta  =  90.0000
  c =      10.4477    gamma =  90.0000

  Initial cell volume =        1348.875752 Angs**3

  Temperature of configuration =   0.00     K 

  Pressure of configuration =         0.000 GPa 

  Fractional coordinates of asymmetric unit :

--------------------------------------------------------------------------------
   No.  Atomic       x           y          z         Charge      Occupancy
        Label      (Frac)      (Frac)     (Frac)        (e)         (Frac)  
--------------------------------------------------------------------------------
      1 Ge    c    0.556730    0.000000    0.122130     4.00000    1.000000    
      2 Ge    c    0.160190 *  0.293910 *  0.273440 *   4.00000    1.000000    
      3 Ge    c    0.839810 *  0.293910 *  0.726560 *   4.00000    1.000000    
      4 Si    c    0.052090 *  0.000000 *  0.372270 *   4.00000    1.000000    
      5 Si    c    0.447910 *  0.000000 *  0.372270 *   4.00000    1.000000    
      6 Si    c    0.947910 *  0.000000 *  0.627730 *   4.00000    1.000000    
      7 Si    c    0.552090 *  0.000000 *  0.627730 *   4.00000    1.000000    
      8 Si    c    0.943270 *  0.000000 *  0.122130 *   4.00000    1.000000    
      9 Si    c    0.443270 *  0.000000 *  0.877870 *   4.00000    1.000000    
     10 Si    c    0.056730 *  0.000000 *  0.877870 *   4.00000    1.000000    
     11 Si    c    0.339810 *  0.706090 *  0.273440 *   4.00000    1.000000    
     12 Si    c    0.660190 *  0.706090 *  0.726560 *   4.00000    1.000000    
     13 Si    c    0.839810 *  0.706090 *  0.726560 *   4.00000    1.000000    
     14 Si    c    0.660190 *  0.293910 *  0.726560 *   4.00000    1.000000    
     15 Si    c    0.160190 *  0.706090 *  0.273440 *   4.00000    1.000000    
     16 Si    c    0.339810 *  0.293910 *  0.273440 *   4.00000    1.000000    
     17 Si    c    0.660660 *  0.294090 *  0.017440 *   4.00000    1.000000    
     18 Si    c    0.839340 *  0.705910 *  0.017440 *   4.00000    1.000000    
     19 Si    c    0.339340 *  0.294090 *  0.982560 *   4.00000    1.000000    
     20 Si    c    0.160660 *  0.705910 *  0.982560 *   4.00000    1.000000    
     21 Si    c    0.339340 *  0.705910 *  0.982560 *   4.00000    1.000000    
     22 Si    c    0.160660 *  0.294090 *  0.982560 *   4.00000    1.000000    
     23 Si    c    0.660660 *  0.705910 *  0.017440 *   4.00000    1.000000    
     24 Si    c    0.839340 *  0.294090 *  0.017440 *   4.00000    1.000000    
     25 O3    c    0.106570 *  0.174340 *  0.366200 *   1.33043    1.000000    
     26 O2    c    0.393430 *  0.825660 *  0.366200 *   0.87073    1.000000    
     27 O3    c    0.893430 *  0.174340 *  0.633800 *   1.33043    1.000000    
     28 O2    c    0.606570 *  0.825660 *  0.633800 *   0.87073    1.000000    
     29 O2    c    0.893430 *  0.825660 *  0.633800 *   0.87073    1.000000    
     30 O2    c    0.606570 *  0.174340 *  0.633800 *   0.87073    1.000000    
     31 O2    c    0.106570 *  0.825660 *  0.366200 *   0.87073    1.000000    
     32 O2    c    0.393430 *  0.174340 *  0.366200 *   0.87073    1.000000    
     33 O2    c    0.000000 *  0.000000 *  0.500000 *   0.87073    1.000000    
     34 O2    c    0.500000 *  0.000000 *  0.500000 *   0.87073    1.000000    
     35 O2    c    0.994520 *  0.000000 *  0.250840 *   0.87073    1.000000    
     36 O3    c    0.505480 *  0.000000 *  0.250840 *   1.33043    1.000000    
     37 O2    c    0.005480 *  0.000000 *  0.749160 *   0.87073    1.000000    
     38 O2    c    0.494520 *  0.000000 *  0.749160 *   0.87073    1.000000    
     39 O3    c    0.610230 *  0.175520 *  0.115390 *   1.33043    1.000000    
     40 O2    c    0.889770 *  0.824480 *  0.115390 *   0.87073    1.000000    
     41 O2    c    0.389770 *  0.175520 *  0.884610 *   0.87073    1.000000    
     42 O2    c    0.110230 *  0.824480 *  0.884610 *   0.87073    1.000000    
     43 O2    c    0.389770 *  0.824480 *  0.884610 *   0.87073    1.000000    
     44 O2    c    0.110230 *  0.175520 *  0.884610 *   0.87073    1.000000    
     45 O3    c    0.610230 *  0.824480 *  0.115390 *   1.33043    1.000000    
     46 O2    c    0.889770 *  0.175520 *  0.115390 *   0.87073    1.000000    
     47 O3    c    0.500000 *  0.000000 *  0.000000 *   1.33043    1.000000    
     48 O2    c    0.000000 *  0.000000 *  0.000000 *   0.87073    1.000000    
     49 O3    c    0.151750 *  0.500000 *  0.313330 *   1.33043    1.000000    
     50 O2    c    0.348250 *  0.500000 *  0.313330 *   0.87073    1.000000    
     51 O3    c    0.848250 *  0.500000 *  0.686670 *   1.33043    1.000000    
     52 O2    c    0.651750 *  0.500000 *  0.686670 *   0.87073    1.000000    
     53 O3    c    0.250000 *  0.234950 *  0.285720 *   1.33043    1.000000    
     54 O2    c    0.250000 *  0.765050 *  0.285720 *   0.87073    1.000000    
     55 O3    c    0.750000 *  0.234950 *  0.714280 *   1.33043    1.000000    
     56 O2    c    0.750000 *  0.765050 *  0.714280 *   0.87073    1.000000    
     57 O3    c    0.131410 *  0.268650 *  0.127790 *   1.33043    1.000000    
     58 O2    c    0.368590 *  0.731350 *  0.127790 *   0.87073    1.000000    
     59 O3    c    0.868590 *  0.268650 *  0.872210 *   1.33043    1.000000    
     60 O2    c    0.631410 *  0.731350 *  0.872210 *   0.87073    1.000000    
     61 O2    c    0.868590 *  0.731350 *  0.872210 *   0.87073    1.000000    
     62 O2    c    0.631410 *  0.268650 *  0.872210 *   0.87073    1.000000    
     63 O2    c    0.131410 *  0.731350 *  0.127790 *   0.87073    1.000000    
     64 O2    c    0.368590 *  0.268650 *  0.127790 *   0.87073    1.000000    
     65 O2    c    0.653920 *  0.500000 *  0.058200 *   0.87073    1.000000    
     66 O2    c    0.846080 *  0.500000 *  0.058200 *   0.87073    1.000000    
     67 O2    c    0.346080 *  0.500000 *  0.941800 *   0.87073    1.000000    
     68 O2    c    0.153920 *  0.500000 *  0.941800 *   0.87073    1.000000    
     69 O2    c    0.750000 *  0.231060 *  0.027050 *   0.87073    1.000000    
     70 O2    c    0.750000 *  0.768940 *  0.027050 *   0.87073    1.000000    
     71 O2    c    0.250000 *  0.231060 *  0.972950 *   0.87073    1.000000    
     72 O2    c    0.250000 *  0.768940 *  0.972950 *   0.87073    1.000000    
     73 O3    s    0.106570 *  0.174340 *  0.366200 *  -3.33043    1.000000    
     74 O2    s    0.393430 *  0.825660 *  0.366200 *  -2.87073    1.000000    
     75 O3    s    0.893430 *  0.174340 *  0.633800 *  -3.33043    1.000000    
     76 O2    s    0.606570 *  0.825660 *  0.633800 *  -2.87073    1.000000    
     77 O2    s    0.893430 *  0.825660 *  0.633800 *  -2.87073    1.000000    
     78 O2    s    0.606570 *  0.174340 *  0.633800 *  -2.87073    1.000000    
     79 O2    s    0.106570 *  0.825660 *  0.366200 *  -2.87073    1.000000    
     80 O2    s    0.393430 *  0.174340 *  0.366200 *  -2.87073    1.000000    
     81 O2    s    0.000000 *  0.000000 *  0.500000 *  -2.87073    1.000000    
     82 O2    s    0.500000 *  0.000000 *  0.500000 *  -2.87073    1.000000    
     83 O2    s    0.994520 *  0.000000 *  0.250840 *  -2.87073    1.000000    
     84 O3    s    0.505480 *  0.000000 *  0.250840 *  -3.33043    1.000000    
     85 O2    s    0.005480 *  0.000000 *  0.749160 *  -2.87073    1.000000    
     86 O2    s    0.494520 *  0.000000 *  0.749160 *  -2.87073    1.000000    
     87 O3    s    0.610230 *  0.175520 *  0.115390 *  -3.33043    1.000000    
     88 O2    s    0.889770 *  0.824480 *  0.115390 *  -2.87073    1.000000    
     89 O2    s    0.389770 *  0.175520 *  0.884610 *  -2.87073    1.000000    
     90 O2    s    0.110230 *  0.824480 *  0.884610 *  -2.87073    1.000000    
     91 O2    s    0.389770 *  0.824480 *  0.884610 *  -2.87073    1.000000    
     92 O2    s    0.110230 *  0.175520 *  0.884610 *  -2.87073    1.000000    
     93 O3    s    0.610230 *  0.824480 *  0.115390 *  -3.33043    1.000000    
     94 O2    s    0.889770 *  0.175520 *  0.115390 *  -2.87073    1.000000    
     95 O3    s    0.500000 *  0.000000 *  0.000000 *  -3.33043    1.000000    
     96 O2    s    0.000000 *  0.000000 *  0.000000 *  -2.87073    1.000000    
     97 O3    s    0.151750 *  0.500000 *  0.313330 *  -3.33043    1.000000    
     98 O2    s    0.348250 *  0.500000 *  0.313330 *  -2.87073    1.000000    
     99 O3    s    0.848250 *  0.500000 *  0.686670 *  -3.33043    1.000000    
    100 O2    s    0.651750 *  0.500000 *  0.686670 *  -2.87073    1.000000    
    101 O3    s    0.250000 *  0.234950 *  0.285720 *  -3.33043    1.000000    
    102 O2    s    0.250000 *  0.765050 *  0.285720 *  -2.87073    1.000000    
    103 O3    s    0.750000 *  0.234950 *  0.714280 *  -3.33043    1.000000    
    104 O2    s    0.750000 *  0.765050 *  0.714280 *  -2.87073    1.000000    
    105 O3    s    0.131410 *  0.268650 *  0.127790 *  -3.33043    1.000000    
    106 O2    s    0.368590 *  0.731350 *  0.127790 *  -2.87073    1.000000    
    107 O3    s    0.868590 *  0.268650 *  0.872210 *  -3.33043    1.000000    
    108 O2    s    0.631410 *  0.731350 *  0.872210 *  -2.87073    1.000000    
    109 O2    s    0.868590 *  0.731350 *  0.872210 *  -2.87073    1.000000    
    110 O2    s    0.631410 *  0.268650 *  0.872210 *  -2.87073    1.000000    
    111 O2    s    0.131410 *  0.731350 *  0.127790 *  -2.87073    1.000000    
    112 O2    s    0.368590 *  0.268650 *  0.127790 *  -2.87073    1.000000    
    113 O2    s    0.653920 *  0.500000 *  0.058200 *  -2.87073    1.000000    
    114 O2    s    0.846080 *  0.500000 *  0.058200 *  -2.87073    1.000000    
    115 O2    s    0.346080 *  0.500000 *  0.941800 *  -2.87073    1.000000    
    116 O2    s    0.153920 *  0.500000 *  0.941800 *  -2.87073    1.000000    
    117 O2    s    0.750000 *  0.231060 *  0.027050 *  -2.87073    1.000000    
    118 O2    s    0.750000 *  0.768940 *  0.027050 *  -2.87073    1.000000    
    119 O2    s    0.250000 *  0.231060 *  0.972950 *  -2.87073    1.000000    
    120 O2    s    0.250000 *  0.768940 *  0.972950 *  -2.87073    1.000000    
--------------------------------------------------------------------------------



********************************************************************************
*  General input information                                                   *
********************************************************************************

  Species output for all configurations : 

--------------------------------------------------------------------------------
  Species    Type    Atomic    Atomic    Charge       Radii (Angs)     Library
                     Number     Mass       (e)     Cova   Ionic  VDW   Symbol
--------------------------------------------------------------------------------
    Ge       Core       32      72.61   4.000000   1.170  0.000  1.750 Ge       
    Si       Core       14      28.09   4.000000   1.200  0.000  2.100 Si       
    O1       Core        8      16.00   1.733957   0.730  0.000  0.000 O1       
    O2       Core        8      16.00   0.870733   0.730  0.000  1.360 O2       
    O3       Core        8      16.00   1.330431   0.730  0.000  1.360 O3       
    O1       Shell       8       0.00  -3.733957   0.730  0.000  0.000 O1       
    O2       Shell       8       0.00  -2.870733   0.730  0.000  0.000 O2       
    O3       Shell       8       0.00  -3.330431   0.730  0.000  0.000 O3       
--------------------------------------------------------------------------------


  Lattice summation method               =    Ewald          (3-D)
                                         =    Parry          (2-D)
                                         =    Saunders et al (1-D)
  Accuracy factor for lattice sums       =   12.000


  Analytic derivatives to be used

  Time limit = Infinity

  Maximum range for interatomic potentials =    100000.000000 Angstroms

  General interatomic potentials :

--------------------------------------------------------------------------------
Atom  Types   Potential      Parameter       Value         Units   Cutoffs(Ang)
  1     2                                                            Min /  Max 
--------------------------------------------------------------------------------
Si   c O1   s Buckingham    Buckingham A     1315.2478    eV        0.000 16.000
                            Buckingham rho  0.31775900    Ang       
                            Buckingham C     10.141118    eV*Ang^6  
--------------------------------------------------------------------------------
Si   c O2   s Buckingham    Buckingham A     1315.2478    eV        0.000 16.000
                            Buckingham rho  0.31775900    Ang       
                            Buckingham C     10.141118    eV*Ang^6  
--------------------------------------------------------------------------------
Si   c O3   s Buckingham    Buckingham A     1315.2478    eV        0.000 16.000
                            Buckingham rho  0.31775900    Ang       
                            Buckingham C     10.141118    eV*Ang^6  
--------------------------------------------------------------------------------
Ge   c O1   s Buckingham    Buckingham A     1497.3996    eV        0.000 16.000
                            Buckingham rho  0.32564600    Ang       
                            Buckingham C     16.808599    eV*Ang^6  
--------------------------------------------------------------------------------
Ge   c O2   s Buckingham    Buckingham A     1497.3996    eV        0.000 16.000
                            Buckingham rho  0.32564600    Ang       
                            Buckingham C     16.808599    eV*Ang^6  
--------------------------------------------------------------------------------
Ge   c O3   s Buckingham    Buckingham A     1497.3996    eV        0.000 16.000
                            Buckingham rho  0.32564600    Ang       
                            Buckingham C     16.808599    eV*Ang^6  
--------------------------------------------------------------------------------
O1   s O1   s Buckingham    Buckingham A     22764.000    eV        0.000 16.000
                            Buckingham rho  0.14900000    Ang       
                            Buckingham C     10.937044    eV*Ang^6  
--------------------------------------------------------------------------------
O1   s O2   s Buckingham    Buckingham A     22764.000    eV        0.000 16.000
                            Buckingham rho  0.14900000    Ang       
                            Buckingham C     10.937044    eV*Ang^6  
--------------------------------------------------------------------------------
O1   s O3   s Buckingham    Buckingham A     22764.000    eV        0.000 16.000
                            Buckingham rho  0.14900000    Ang       
                            Buckingham C     10.937044    eV*Ang^6  
--------------------------------------------------------------------------------
O2   s O2   s Buckingham    Buckingham A     22764.000    eV        0.000 16.000
                            Buckingham rho  0.14900000    Ang       
                            Buckingham C     10.937044    eV*Ang^6  
--------------------------------------------------------------------------------
O2   s O3   s Buckingham    Buckingham A     22764.000    eV        0.000 16.000
                            Buckingham rho  0.14900000    Ang       
                            Buckingham C     10.937044    eV*Ang^6  
--------------------------------------------------------------------------------
O3   s O3   s Buckingham    Buckingham A     22764.000    eV        0.000 16.000
                            Buckingham rho  0.14900000    Ang       
                            Buckingham C     10.937044    eV*Ang^6  
--------------------------------------------------------------------------------
O1   c O1   s Spring (c-s)  Spring k 2       180.31577    eV*Ang^-2 0.000  0.800
                            Spring k 4       0.0000000    eV*Ang^-4 
--------------------------------------------------------------------------------
O2   c O2   s Spring (c-s)  Spring k 2       75.969800    eV*Ang^-2 0.000  0.800
                            Spring k 4       0.0000000    eV*Ang^-4 
--------------------------------------------------------------------------------
O3   c O3   s Spring (c-s)  Spring k 2       128.14270    eV*Ang^-2 0.000  0.800
                            Spring k 4       0.0000000    eV*Ang^-4 
--------------------------------------------------------------------------------

  General Three-body potentials :

--------------------------------------------------------------------------------
  Atoms       Potential      Parameter       Value         Units   Cutoffs(Ang)
  1 / 2 / 3                                                          Min /  Max 
--------------------------------------------------------------------------------
Si    core    Harmonic      Three-body cnst  1.2614000    eV*rad^-2 0.000  1.900
O1    shel                  Three-body angl  109.47000    degrees   0.000  1.900
O1    shel                  Three-body k4    0.0000000    eV*rad^-4 0.000  3.500
                            Three-body k3    0.0000000    eV*rad^-3 
--------------------------------------------------------------------------------
Si    core    Harmonic      Three-body cnst  1.2614000    eV*rad^-2 0.000  1.900
O1    shel                  Three-body angl  109.47000    degrees   0.000  1.900
õ(1   shel                  Three-body k4    0.0000000    eV*rad^-4 0.000  3.500
                            Three-body k3    0.0000000    eV*rad^-3 
--------------------------------------------------------------------------------
Si    core    Harmonic      Three-body cnst  1.2614000    eV*rad^-2 0.000  1.900
õ(1   shel                  Three-body angl  109.47000    degrees   0.000  1.900
õ(1   shel                  Three-body k4    0.0000000    eV*rad^-4 0.000  3.500
                            Three-body k3    0.0000000    eV*rad^-3 
--------------------------------------------------------------------------------
Si    core    Harmonic      Three-body cnst  1.2614000    eV*rad^-2 0.000  1.900
O1    shel                  Three-body angl  109.47000    degrees   0.000  1.900
O2    shel                  Three-body k4    0.0000000    eV*rad^-4 0.000  3.500
                            Three-body k3    0.0000000    eV*rad^-3 
--------------------------------------------------------------------------------
Si    core    Harmonic      Three-body cnst  1.2614000    eV*rad^-2 0.000  1.900
O1    shel                  Three-body angl  109.47000    degrees   0.000  1.900
õ(2   shel                  Three-body k4    0.0000000    eV*rad^-4 0.000  3.500
                            Three-body k3    0.0000000    eV*rad^-3 
--------------------------------------------------------------------------------
Si    core    Harmonic      Three-body cnst  1.2614000    eV*rad^-2 0.000  1.900
O2    shel                  Three-body angl  109.47000    degrees   0.000  1.900
õ(1   shel                  Three-body k4    0.0000000    eV*rad^-4 0.000  3.500
                            Three-body k3    0.0000000    eV*rad^-3 
--------------------------------------------------------------------------------
Si    core    Harmonic      Three-body cnst  1.2614000    eV*rad^-2 0.000  1.900
õ(1   shel                  Three-body angl  109.47000    degrees   0.000  1.900
õ(2   shel                  Three-body k4    0.0000000    eV*rad^-4 0.000  3.500
                            Three-body k3    0.0000000    eV*rad^-3 
--------------------------------------------------------------------------------
Si    core    Harmonic      Three-body cnst  1.2614000    eV*rad^-2 0.000  1.900
O2    shel                  Three-body angl  109.47000    degrees   0.000  1.900
O2    shel                  Three-body k4    0.0000000    eV*rad^-4 0.000  3.500
                            Three-body k3    0.0000000    eV*rad^-3 
--------------------------------------------------------------------------------
Si    core    Harmonic      Three-body cnst  1.2614000    eV*rad^-2 0.000  1.900
O2    shel                  Three-body angl  109.47000    degrees   0.000  1.900
õ(2   shel                  Three-body k4    0.0000000    eV*rad^-4 0.000  3.500
                            Three-body k3    0.0000000    eV*rad^-3 
--------------------------------------------------------------------------------
Si    core    Harmonic      Three-body cnst  1.2614000    eV*rad^-2 0.000  1.900
õ(2   shel                  Three-body angl  109.47000    degrees   0.000  1.900
õ(2   shel                  Three-body k4    0.0000000    eV*rad^-4 0.000  3.500
                            Three-body k3    0.0000000    eV*rad^-3 
--------------------------------------------------------------------------------

********************************************************************************
*  Output for configuration   1 : c00136.vasp                                  *
********************************************************************************


  Components of energy : 

--------------------------------------------------------------------------------
  Interatomic potentials     =         760.32238343 eV    
  Three-body potentials      =           0.01319186 eV    
  Monopole - monopole (real) =       -2676.00317478 eV    
  Monopole - monopole (recip)=       -1115.35404472 eV    
  Monopole - monopole (total)=       -3791.35721950 eV    
--------------------------------------------------------------------------------
  Total lattice energy       =       -3031.02164422 eV    
--------------------------------------------------------------------------------
  Total lattice energy       =         -292447.2553 kJ/(mole unit cells)
--------------------------------------------------------------------------------


  Number of variables =      363

  Maximum number of calculations  =          1000
  Maximum Hessian update interval =            10
  Maximum step size               =   0.100000000
  Maximum parameter tolerance     =   0.000010000
  Maximum function  tolerance     =   0.000010000
  Maximum gradient  tolerance     =   0.001000000
  Maximum gradient  component     =   0.010000000

  Symmetry not applied to optimisation

  Cell parameters to be optimised using strains

  Newton-Raphson optimiser to be used

  BFGS hessian update to be used

  Lower half triangular hessian to be used

  Minimiser to switch to RFO
  When gradient norm is less than     0.050000

  Dumpfile to be written after every cycle

  Start of bulk optimisation :

  Cycle:      0 Energy:     -3031.021644  Gnorm:      4.413859  CPU:    0.120
  ** Hessian calculated **
  Cycle:      1 Energy:     -3061.915950  Gnorm:      0.984102  CPU:    0.267
  ** Hessian calculated **
  Cycle:      2 Energy:     -3064.501937  Gnorm:      0.562762  CPU:    0.491
  Cycle:      3 Energy:     -3065.373580  Gnorm:      0.364785  CPU:    0.605
  Cycle:      4 Energy:     -3066.078603  Gnorm:      0.276113  CPU:    0.737
  Cycle:      5 Energy:     -3066.700614  Gnorm:      0.210603  CPU:    0.871
  Cycle:      6 Energy:     -3067.084492  Gnorm:      0.165892  CPU:    0.985
  Cycle:      7 Energy:     -3067.307836  Gnorm:      0.116820  CPU:    1.098
  Cycle:      8 Energy:     -3067.418440  Gnorm:      0.086701  CPU:    1.212
  Cycle:      9 Energy:     -3067.462454  Gnorm:      0.057490  CPU:    1.325
  Cycle:     10 Energy:     -3067.492768  Gnorm:      0.050213  CPU:    1.460
  Cycle:     11 Energy:     -3067.520249  Gnorm:      0.050717  CPU:    1.593
  ** Hessian calculated **
  Cycle:     12 Energy:     -3067.529131  Gnorm:      0.045331  CPU:    1.827
  ** Hessian has required structure
  Cycle:     13 Energy:     -3067.543028  Gnorm:      0.047512  CPU:    2.027
  ** Hessian has required structure
  Cycle:     14 Energy:     -3067.559894  Gnorm:      0.054971  CPU:    2.228
  ** Hessian has required structure
  Cycle:     15 Energy:     -3067.572584  Gnorm:      0.082654  CPU:    2.406
  ** Hessian has required structure
  Cycle:     16 Energy:     -3067.596880  Gnorm:      0.082145  CPU:    2.605
  ** Hessian has required structure
  Cycle:     17 Energy:     -3067.607050  Gnorm:      0.097322  CPU:    2.763
  ** Hessian has required structure
  Cycle:     18 Energy:     -3067.625061  Gnorm:      0.119244  CPU:    2.940
  ** Hessian has required structure
  Cycle:     19 Energy:     -3067.642017  Gnorm:      0.087925  CPU:    3.097
  ** Hessian has required structure
  Cycle:     20 Energy:     -3067.645413  Gnorm:      0.102414  CPU:    3.256
  ** Hessian has required structure
  Cycle:     21 Energy:     -3067.655127  Gnorm:      0.079301  CPU:    3.413
  ** Hessian has wrong structure
  ** Imaginary eigenvectors =   3
  ** Hessian has wrong structure
  ** Imaginary eigenvectors =   2
  Cycle:     22 Energy:     -3067.683952  Gnorm:      0.086193  CPU:    3.982
  ** Hessian has wrong structure
  ** Imaginary eigenvectors =   1
  ** Hessian has wrong structure
  ** Imaginary eigenvectors =   1
  Cycle:     23 Energy:     -3067.852784  Gnorm:      0.073107  CPU:    4.521
  ** Hessian has wrong structure
  ** Imaginary eigenvectors =   1
  Cycle:     24 Energy:     -3068.064035  Gnorm:      0.041087  CPU:    4.791
  ** Hessian has wrong structure
  ** Imaginary eigenvectors =   1
  Cycle:     25 Energy:     -3068.081965  Gnorm:      0.046409  CPU:    5.232
  ** Hessian has required structure
  Cycle:     26 Energy:     -3068.185976  Gnorm:      0.034893  CPU:    5.521
  ** Hessian has required structure
  Cycle:     27 Energy:     -3068.223962  Gnorm:      0.020976  CPU:    5.697
  ** Hessian has required structure
  Cycle:     28 Energy:     -3068.247894  Gnorm:      0.027653  CPU:    5.893
  ** Hessian has required structure
  Cycle:     29 Energy:     -3068.271155  Gnorm:      0.017815  CPU:    6.087
  ** Hessian has required structure
  Cycle:     30 Energy:     -3068.282163  Gnorm:      0.023664  CPU:    6.261
  ** Hessian has required structure
  Cycle:     31 Energy:     -3068.295866  Gnorm:      0.021218  CPU:    6.434
  ** Hessian has required structure
  Cycle:     32 Energy:     -3068.305873  Gnorm:      0.011197  CPU:    6.608
  ** Hessian has required structure
  Cycle:     33 Energy:     -3068.309947  Gnorm:      0.009068  CPU:    6.789
  ** Hessian has required structure
  Cycle:     34 Energy:     -3068.313200  Gnorm:      0.007694  CPU:    6.977
  ** Hessian has required structure
  Cycle:     35 Energy:     -3068.315281  Gnorm:      0.005156  CPU:    7.146
  ** Hessian has required structure
  Cycle:     36 Energy:     -3068.317549  Gnorm:      0.002596  CPU:    7.454
  ** Hessian has required structure
  Cycle:     37 Energy:     -3068.317999  Gnorm:      0.001585  CPU:    7.637
  ** Hessian has required structure
  Cycle:     38 Energy:     -3068.318159  Gnorm:      0.000940  CPU:    7.809
  ** Hessian has required structure
  Cycle:     39 Energy:     -3068.318229  Gnorm:      0.000483  CPU:    7.999
  ** Hessian has required structure
  Cycle:     40 Energy:     -3068.318246  Gnorm:      0.000238  CPU:    8.196
  ** Hessian has required structure
  Cycle:     41 Energy:     -3068.318249  Gnorm:      0.000168  CPU:    8.344
  ** Hessian has required structure
  Cycle:     42 Energy:     -3068.318251  Gnorm:      0.000117  CPU:    8.494
  ** Hessian has required structure
  Cycle:     43 Energy:     -3068.318251  Gnorm:      0.000106  CPU:    8.645
  ** Hessian has required structure
  Cycle:     44 Energy:     -3068.318251  Gnorm:      0.000106  CPU:    8.880
  ** Hessian has required structure
  Cycle:     45 Energy:     -3068.318251  Gnorm:      0.000106  CPU:    9.033
  ** Hessian has required structure
  Cycle:     46 Energy:     -3068.318251  Gnorm:      0.000105  CPU:    9.397
  ** Hessian has required structure
  Cycle:     47 Energy:     -3068.318251  Gnorm:      0.000105  CPU:    9.551
  ** Hessian has required structure
  Cycle:     48 Energy:     -3068.318251  Gnorm:      0.000105  CPU:    9.704
  ** Hessian has required structure
  Cycle:     49 Energy:     -3068.318251  Gnorm:      0.000104  CPU:    9.857
  ** Hessian has required structure
  Cycle:     50 Energy:     -3068.318251  Gnorm:      0.000104  CPU:   10.011
  ** Hessian has required structure
  Cycle:     51 Energy:     -3068.318251  Gnorm:      0.000104  CPU:   10.165
  ** Hessian has required structure
  Cycle:     52 Energy:     -3068.318250  Gnorm:      0.000104  CPU:   10.420
  ** Hessian has required structure


  **** Optimisation achieved ****


  Final energy =   -3068.31825093 eV      
  Final Gnorm  =       0.00007254

  Components of energy : 

--------------------------------------------------------------------------------
  Interatomic potentials     =         815.91507599 eV    
  Three-body potentials      =           0.21036359 eV    
  Monopole - monopole (real) =       -2205.97351875 eV    
  Monopole - monopole (recip)=       -1678.47017177 eV    
  Monopole - monopole (total)=       -3884.44369051 eV    
--------------------------------------------------------------------------------
  Total lattice energy       =       -3068.31825093 eV    
--------------------------------------------------------------------------------
  Total lattice energy       =         -296045.8077 kJ/(mole unit cells)
--------------------------------------------------------------------------------

  Final fractional coordinates of atoms :

--------------------------------------------------------------------------------
   No.  Atomic        x           y          z          Radius
        Label       (Frac)      (Frac)     (Frac)       (Angs) 
--------------------------------------------------------------------------------
     1  Ge    c     0.556730    0.000000    0.122130    0.000000
     2  Ge    c     0.149020    0.331264    0.278632    0.000000
     3  Ge    c     0.846438    0.341663    0.697354    0.000000
     4  Si    c     0.043412    0.022439    0.361028    0.000000
     5  Si    c     0.449935    0.014724    0.369698    0.000000
     6  Si    c     0.947841    0.030775    0.616579    0.000000
     7  Si    c     0.542302    0.014446    0.632772    0.000000
     8  Si    c     0.940446    0.018880    0.106385    0.000000
     9  Si    c     0.438790    0.019182    0.883867    0.000000
    10  Si    c     0.052428    0.019347    0.869112    0.000000
    11  Si    c     0.343705    0.711196    0.269057    0.000000
    12  Si    c     0.646842    0.706884    0.716216    0.000000
    13  Si    c     0.826917    0.751347    0.711621    0.000000
    14  Si    c     0.661986    0.300532    0.703786    0.000000
    15  Si    c     0.163037    0.744721    0.268726    0.000000
    16  Si    c     0.332280    0.304322    0.274576    0.000000
    17  Si    c     0.670285    0.284127    0.005087    0.000000
    18  Si    c     0.828155    0.731946    0.015125    0.000000
    19  Si    c     0.326944    0.303867    0.970301    0.000000
    20  Si    c     0.162778    0.733650    0.966515    0.000000
    21  Si    c     0.343736    0.701693    0.967816    0.000000
    22  Si    c     0.146326    0.332771    0.970541    0.000000
    23  Si    c     0.647926    0.681895    0.016696    0.000000
    24  Si    c     0.851646    0.336233    0.004587    0.000000
    25  O3    c     0.081434    0.214945    0.368006    0.000000
    26  O2    c     0.403895    0.830562    0.349306    0.000000
    27  O3    c     0.913160    0.225575    0.607425    0.000000
    28  O2    c     0.586580    0.826923    0.635383    0.000000
    29  O2    c     0.872258    0.904442    0.635349    0.000000
    30  O2    c     0.605866    0.172335    0.620798    0.000000
    31  O2    c     0.116112    0.888378    0.349513    0.000000
    32  O2    c     0.391163    0.177649    0.350649    0.000000
    33  O2    c     0.993553    0.979444    0.487767    0.000000
    34  O2    c     0.482225    0.019413    0.514771    0.000000
    35  O2    c     0.985512    0.999117    0.240160    0.000000
    36  O3    c     0.523470    0.028268    0.276193    0.000000
    37  O2    c     0.008640    0.005636    0.733642    0.000000
    38  O2    c     0.492717    0.043619    0.761093    0.000000
    39  O3    c     0.635695    0.138334    0.097610    0.000000
    40  O2    c     0.870025    0.876270    0.104885    0.000000
    41  O2    c     0.369628    0.163461    0.880914    0.000000
    42  O2    c     0.120055    0.871838    0.872916    0.000000
    43  O2    c     0.401541    0.822304    0.882934    0.000000
    44  O2    c     0.089447    0.214821    0.881094    0.000000
    45  O3    c     0.588372    0.785461    0.104607    0.000000
    46  O2    c     0.907554    0.217365    0.095273    0.000000
    47  O3    c     0.485672    0.059063    0.013852    0.000000
    48  O2    c     0.995339    0.973733    0.986574    0.000000
    49  O3    c     0.132370    0.551813    0.302794    0.000000
    50  O2    c     0.359107    0.506285    0.299241    0.000000
    51  O3    c     0.860879    0.563928    0.672681    0.000000
    52  O2    c     0.632075    0.501383    0.686374    0.000000
    53  O3    c     0.244113    0.280034    0.322176    0.000000
    54  O2    c     0.254954    0.759915    0.305780    0.000000
    55  O3    c     0.750780    0.288882    0.657345    0.000000
    56  O2    c     0.734933    0.759093    0.674780    0.000000
    57  O3    c     0.132771    0.278777    0.118215    0.000000
    58  O2    c     0.358765    0.750833    0.117730    0.000000
    59  O3    c     0.867994    0.290305    0.856686    0.000000
    60  O2    c     0.634122    0.744583    0.868137    0.000000
    61  O2    c     0.835651    0.784810    0.864885    0.000000
    62  O2    c     0.658236    0.238513    0.853703    0.000000
    63  O2    c     0.152789    0.786240    0.116172    0.000000
    64  O2    c     0.335178    0.258834    0.122254    0.000000
    65  O2    c     0.631097    0.474026    0.031919    0.000000
    66  O2    c     0.868831    0.541546    0.035468    0.000000
    67  O2    c     0.363416    0.497670    0.942699    0.000000
    68  O2    c     0.126689    0.538332    0.946085    0.000000
    69  O2    c     0.761996    0.294475    0.036599    0.000000
    70  O2    c     0.737669    0.724405    0.056519    0.000000
    71  O2    c     0.235952    0.299115    0.931523    0.000000
    72  O2    c     0.253982    0.737946    0.929574    0.000000
    73  O3    s     0.083204    0.205313    0.360019    0.000000
    74  O2    s     0.402005    0.836796    0.342368    0.000000
    75  O3    s     0.911190    0.215694    0.615551    0.000000
    76  O2    s     0.588499    0.833644    0.643953    0.000000
    77  O2    s     0.875208    0.900785    0.641944    0.000000
    78  O2    s     0.605277    0.169547    0.631044    0.000000
    79  O2    s     0.113645    0.886550    0.341641    0.000000
    80  O2    s     0.390865    0.174174    0.344060    0.000000
    81  O2    s     0.994036    0.990108    0.487966    0.000000
    82  O2    s     0.485533    0.018280    0.511882    0.000000
    83  O2    s     0.986770    0.004087    0.238024    0.000000
    84  O3    s     0.518777    0.024433    0.272526    0.000000
    85  O2    s     0.006934    0.010070    0.736435    0.000000
    86  O2    s     0.491985    0.037351    0.761093    0.000000
    87  O3    s     0.632895    0.142710    0.089584    0.000000
    88  O2    s     0.872904    0.875511    0.095038    0.000000
    89  O2    s     0.372151    0.163917    0.891285    0.000000
    90  O2    s     0.117605    0.872155    0.883018    0.000000
    91  O2    s     0.399091    0.829525    0.892358    0.000000
    92  O2    s     0.091673    0.206910    0.889547    0.000000
    93  O3    s     0.592045    0.791846    0.096823    0.000000
    94  O2    s     0.905059    0.209158    0.086688    0.000000
    95  O3    s     0.486978    0.049819    0.009758    0.000000
    96  O2    s     0.995592    0.983850    0.986812    0.000000
    97  O3    s     0.136899    0.553329    0.297326    0.000000
    98  O2    s     0.354609    0.507346    0.293348    0.000000
    99  O3    s     0.856265    0.564614    0.678599    0.000000
   100  O2    s     0.636811    0.502570    0.691430    0.000000
   101  O3    s     0.245311    0.286569    0.313926    0.000000
   102  O2    s     0.254806    0.753065    0.297905    0.000000
   103  O3    s     0.749581    0.294308    0.665211    0.000000
   104  O2    s     0.735302    0.752695    0.683109    0.000000
   105  O3    s     0.135420    0.288331    0.116313    0.000000
   106  O2    s     0.355624    0.741560    0.117920    0.000000
   107  O3    s     0.864642    0.298925    0.858726    0.000000
   108  O2    s     0.636864    0.734306    0.867427    0.000000
   109  O2    s     0.833885    0.775544    0.864770    0.000000
   110  O2    s     0.659856    0.249646    0.854016    0.000000
   111  O2    s     0.154960    0.776279    0.116216    0.000000
   112  O2    s     0.333989    0.268459    0.122090    0.000000
   113  O2    s     0.636945    0.476557    0.027514    0.000000
   114  O2    s     0.862805    0.539814    0.030113    0.000000
   115  O2    s     0.357485    0.499401    0.948315    0.000000
   116  O2    s     0.132558    0.537220    0.950818    0.000000
   117  O2    s     0.761815    0.298121    0.029465    0.000000
   118  O2    s     0.738008    0.720686    0.047798    0.000000
   119  O2    s     0.236262    0.303408    0.940070    0.000000
   120  O2    s     0.253856    0.733399    0.937848    0.000000
--------------------------------------------------------------------------------

  Final Cartesian lattice vectors (Angstroms) :

       17.072346   -0.052455   -0.057169
       -0.022949    7.590517    0.019821
       -0.034383    0.027133   10.330431


  Final cell parameters and derivatives :

--------------------------------------------------------------------------------
       a           17.072522 Angstrom     dE/de1(xx)    -0.000886 eV/strain
       b            7.590577 Angstrom     dE/de2(yy)     0.002219 eV/strain
       c           10.330524 Angstrom     dE/de3(zz)     0.001295 eV/strain
       alpha       89.699329 Degrees      dE/de4(yz)     0.000669 eV/strain
       beta        90.383018 Degrees      dE/de5(xz)     0.000239 eV/strain
       gamma       90.349769 Degrees      dE/de6(xy)    -0.000182 eV/strain
--------------------------------------------------------------------------------

  Primitive cell volume =          1338.662679 Angs**3

  Density of cell =      1.954627 g/cm**3

  Non-primitive cell volume =          1338.662679 Angs**3


  Final internal derivatives :

--------------------------------------------------------------------------------
   No.  Atomic          a             b             c           Radius
        Label          (eV)          (eV)          (eV)        (eV/Angs)
--------------------------------------------------------------------------------
      1 Ge    c       0.000000      0.000000      0.000000      0.000000
      2 Ge    c      -0.001107     -0.001900     -0.000070      0.000000
      3 Ge    c       0.001991     -0.001366     -0.003026      0.000000
      4 Si    c      -0.000793     -0.000657      0.000021      0.000000
      5 Si    c       0.000191     -0.000112      0.000924      0.000000
      6 Si    c      -0.001472     -0.000501     -0.000311      0.000000
      7 Si    c       0.000756     -0.000017      0.000444      0.000000
      8 Si    c      -0.000133     -0.000223     -0.000743      0.000000
      9 Si    c      -0.000289     -0.000118      0.000169      0.000000
     10 Si    c      -0.000559     -0.000418      0.001527      0.000000
     11 Si    c       0.000733      0.001351     -0.000326      0.000000
     12 Si    c       0.000744      0.000667      0.001706      0.000000
     13 Si    c       0.000402      0.001484     -0.001345      0.000000
     14 Si    c      -0.002851      0.000511     -0.001492      0.000000
     15 Si    c      -0.000505      0.001678     -0.000955      0.000000
     16 Si    c       0.002960     -0.001750     -0.000439      0.000000
     17 Si    c      -0.004678      0.000203      0.002888      0.000000
     18 Si    c      -0.002827      0.000200      0.002068      0.000000
     19 Si    c      -0.005188      0.000679     -0.001460      0.000000
     20 Si    c       0.003779     -0.000671     -0.001213      0.000000
     21 Si    c      -0.002606      0.000529      0.000205      0.000000
     22 Si    c       0.004030     -0.000245      0.000191      0.000000
     23 Si    c       0.001680      0.000529     -0.001337      0.000000
     24 Si    c       0.002921     -0.001031      0.003957      0.000000
     25 O3    c       0.001093      0.001617     -0.000811      0.000000
     26 O2    c      -0.000204     -0.000289     -0.000612      0.000000
     27 O3    c       0.000315     -0.000246      0.000638      0.000000
     28 O2    c       0.000405     -0.000622      0.000780      0.000000
     29 O2    c      -0.000395     -0.000042      0.001638      0.000000
     30 O2    c      -0.000298     -0.000325     -0.000132      0.000000
     31 O2    c       0.000673      0.000272     -0.000107      0.000000
     32 O2    c      -0.001700      0.001099     -0.000903      0.000000
     33 O2    c      -0.000704     -0.000001      0.000860      0.000000
     34 O2    c      -0.001316     -0.000014     -0.000954      0.000000
     35 O2    c      -0.000130     -0.000122     -0.000291      0.000000
     36 O3    c       0.001250      0.000222     -0.000764      0.000000
     37 O2    c      -0.000215     -0.000136     -0.000360      0.000000
     38 O2    c       0.001460      0.000034     -0.001376      0.000000
     39 O3    c       0.002916     -0.000751     -0.002355      0.000000
     40 O2    c      -0.000191      0.000398     -0.001052      0.000000
     41 O2    c      -0.000129     -0.000186      0.000846      0.000000
     42 O2    c      -0.001296      0.000577      0.000415      0.000000
     43 O2    c       0.000381     -0.000342      0.000376      0.000000
     44 O2    c      -0.001345     -0.000415      0.000168      0.000000
     45 O3    c      -0.001033      0.000128     -0.000529      0.000000
     46 O2    c       0.000884     -0.000573     -0.000926      0.000000
     47 O3    c       0.001681      0.000378      0.000601      0.000000
     48 O2    c      -0.000001      0.000484     -0.000078      0.000000
     49 O3    c      -0.001486     -0.000546      0.002467      0.000000
     50 O2    c       0.000768      0.000929      0.001401      0.000000
     51 O3    c       0.001726      0.001235     -0.002633      0.000000
     52 O2    c      -0.000471     -0.000310     -0.000679      0.000000
     53 O3    c      -0.004857     -0.000521     -0.000118      0.000000
     54 O2    c       0.001932     -0.000042     -0.000378      0.000000
     55 O3    c      -0.000272     -0.001534     -0.001551      0.000000
     56 O2    c      -0.003066     -0.000347      0.000454      0.000000
     57 O3    c      -0.000345      0.000804     -0.002532      0.000000
     58 O2    c      -0.001154     -0.000388     -0.001331      0.000000
     59 O3    c       0.008957     -0.001574     -0.001291      0.000000
     60 O2    c       0.002256     -0.000175     -0.000260      0.000000
     61 O2    c       0.000266      0.000414     -0.000707      0.000000
     62 O2    c      -0.003679     -0.001172     -0.000024      0.000000
     63 O2    c      -0.000462     -0.000194      0.000662      0.000000
     64 O2    c       0.000721      0.000405      0.000375      0.000000
     65 O2    c      -0.002465      0.001105      0.000432      0.000000
     66 O2    c       0.001131      0.003492      0.000920      0.000000
     67 O2    c      -0.002337     -0.001683      0.000465      0.000000
     68 O2    c       0.002566      0.001337      0.000634      0.000000
     69 O2    c       0.000466     -0.001266      0.000733      0.000000
     70 O2    c      -0.000308     -0.001200     -0.000463      0.000000
     71 O2    c       0.002551      0.001272      0.001892      0.000000
     72 O2    c      -0.001931     -0.001341      0.001179      0.000000
     73 O3    s      -0.000388     -0.000684      0.000281      0.000000
     74 O2    s      -0.000569     -0.000025     -0.000488      0.000000
     75 O3    s       0.000896     -0.000617     -0.001355      0.000000
     76 O2    s       0.000227      0.000491      0.000500      0.000000
     77 O2    s      -0.000790      0.000992     -0.000784      0.000000
     78 O2    s      -0.001366     -0.000294     -0.000678      0.000000
     79 O2    s       0.000506      0.000327     -0.000420      0.000000
     80 O2    s       0.000264     -0.000637     -0.000284      0.000000
     81 O2    s      -0.000871     -0.000099     -0.000136      0.000000
     82 O2    s       0.000328      0.000006      0.000345      0.000000
     83 O2    s      -0.000936      0.000181     -0.000356      0.000000
     84 O3    s      -0.000393     -0.000142      0.000483      0.000000
     85 O2    s       0.001257      0.000012      0.000384      0.000000
     86 O2    s      -0.000678      0.000578      0.000387      0.000000
     87 O3    s      -0.001677     -0.000904      0.002050      0.000000
     88 O2    s      -0.000664      0.000876     -0.000080      0.000000
     89 O2    s      -0.002633      0.000438      0.000351      0.000000
     90 O2    s       0.002010      0.000123      0.000478      0.000000
     91 O2    s      -0.001732      0.000111      0.000360      0.000000
     92 O2    s       0.001234     -0.000270      0.000944      0.000000
     93 O3    s       0.000489      0.000228      0.000081      0.000000
     94 O2    s       0.001973     -0.001103      0.001524      0.000000
     95 O3    s      -0.001254      0.000362     -0.000179      0.000000
     96 O2    s       0.000617     -0.000055      0.000306      0.000000
     97 O3    s       0.001446     -0.000107     -0.000857      0.000000
     98 O2    s      -0.001046      0.000360     -0.000431      0.000000
     99 O3    s       0.002414     -0.000126     -0.001132      0.000000
    100 O2    s      -0.002085      0.000910     -0.001194      0.000000
    101 O3    s       0.002090     -0.000438     -0.000106      0.000000
    102 O2    s       0.000506      0.000306     -0.000096      0.000000
    103 O3    s       0.000964     -0.000771     -0.001407      0.000000
    104 O2    s      -0.000060      0.001748     -0.001966      0.000000
    105 O3    s       0.001931      0.000243     -0.000631      0.000000
    106 O2    s      -0.001708     -0.000302     -0.000332      0.000000
    107 O3    s       0.000619     -0.000357     -0.000816      0.000000
    108 O2    s      -0.001137      0.000820     -0.000139      0.000000
    109 O2    s       0.002396      0.000690      0.000750      0.000000
    110 O2    s      -0.002563     -0.001388     -0.000744      0.000000
    111 O2    s       0.001094     -0.000861     -0.001986      0.000000
    112 O2    s      -0.000986      0.000854     -0.002129      0.000000
    113 O2    s      -0.002089      0.000865      0.001497      0.000000
    114 O2    s       0.003492      0.000465      0.001820      0.000000
    115 O2    s      -0.002241      0.000183      0.001775      0.000000
    116 O2    s       0.001944     -0.000536      0.001209      0.000000
    117 O2    s      -0.000986     -0.001776      0.002304      0.000000
    118 O2    s      -0.000306      0.001031      0.002261      0.000000
    119 O2    s       0.000238      0.000029      0.001310      0.000000
    120 O2    s      -0.000009      0.000024      0.000809      0.000000
--------------------------------------------------------------------------------
  Maximum abs         0.008957      0.003492      0.003957      0.000000
--------------------------------------------------------------------------------


  Born effective charge tensors : 

-------------------------------------------------------------------------------
  Atom             x           y             z
-------------------------------------------------------------------------------
    1 Ge    x       4.2728     -0.3091     -0.4175
            y       0.2278      3.8998     -0.0204
            z      -0.5052      0.0885      3.8961
-------------------------------------------------------------------------------
    2 Ge    x       3.9500      0.2606     -0.0897
            y       0.3786      4.1897     -0.2334
            z      -0.1566     -0.0637      3.4457
-------------------------------------------------------------------------------
    3 Ge    x       3.9489     -0.2765     -0.0753
            y      -0.4024      4.2149      0.2458
            z      -0.1212      0.0845      3.4375
-------------------------------------------------------------------------------
    4 Si    x       3.5604      0.3348     -0.1484
            y      -0.0302      3.4515      0.0758
            z      -0.4944     -0.1290      3.8451
-------------------------------------------------------------------------------
    5 Si    x       3.6901      0.0748      0.2181
            y      -0.0760      3.2941      0.0196
            z       0.0935      0.0215      4.0387
-------------------------------------------------------------------------------
    6 Si    x       3.5576     -0.3830     -0.1780
            y       0.0443      3.4481     -0.0799
            z      -0.4429      0.1826      3.8488
-------------------------------------------------------------------------------
    7 Si    x       3.4554     -0.1311      0.0613
            y       0.0925      3.2304     -0.0357
            z       0.5946      0.0176      3.7062
-------------------------------------------------------------------------------
    8 Si    x       3.4454     -0.1590      0.1811
            y       0.1961      3.2323     -0.0251
            z       0.4859     -0.0303      3.1059
-------------------------------------------------------------------------------
    9 Si    x       3.6337      0.2154     -0.0035
            y      -0.1371      3.3052      0.0405
            z      -0.4904     -0.0077      3.2930
-------------------------------------------------------------------------------
   10 Si    x       3.4685      0.1353      0.2015
            y      -0.1692      3.2416      0.0147
            z       0.4761      0.0039      3.1166
-------------------------------------------------------------------------------
   11 Si    x       3.1919      0.1936      0.0786
            y       0.2540      3.4025      0.1597
            z       0.1300      0.0845      2.8441
-------------------------------------------------------------------------------
   12 Si    x       3.2087     -0.2180      0.0801
            y      -0.2708      3.4357     -0.1878
            z       0.1118     -0.0657      2.7918
-------------------------------------------------------------------------------
   13 Si    x       3.2939      0.2583     -0.1344
            y       0.0040      3.7432     -0.0155
            z      -0.1523     -0.0140      2.8859
-------------------------------------------------------------------------------
   14 Si    x       3.5800      0.2832      0.0270
            y       0.1596      3.5324      0.2019
            z       0.0294      0.0504      2.8433
-------------------------------------------------------------------------------
   15 Si    x       3.2934     -0.2363     -0.1433
            y      -0.0391      3.7610      0.0542
            z      -0.1344      0.0061      2.8893
-------------------------------------------------------------------------------
   16 Si    x       3.5406     -0.2264     -0.0068
            y      -0.1734      3.5345     -0.1725
            z       0.0902     -0.1016      2.9184
-------------------------------------------------------------------------------
   17 Si    x       3.2965      0.4995     -0.2671
            y       0.1496      3.6674     -0.3797
            z      -0.1633     -0.2436      2.9192
-------------------------------------------------------------------------------
   18 Si    x       3.2279      0.3592      0.1637
            y       0.0839      3.4329      0.1686
            z       0.1333      0.0650      2.7051
-------------------------------------------------------------------------------
   19 Si    x       3.2044     -0.3357     -0.1428
            y      -0.0832      3.4360      0.1727
            z      -0.1261      0.0771      2.7282
-------------------------------------------------------------------------------
   20 Si    x       3.2535     -0.3392      0.1779
            y      -0.1049      3.4296     -0.1818
            z       0.1277     -0.0525      2.7138
-------------------------------------------------------------------------------
   21 Si    x       3.2649      0.2571     -0.1094
            y       0.2453      3.3885     -0.1643
            z      -0.1434     -0.0482      2.7101
-------------------------------------------------------------------------------
   22 Si    x       3.3428      0.2974      0.0804
            y       0.2832      3.5090      0.1082
            z       0.1224     -0.0225      2.9939
-------------------------------------------------------------------------------
   23 Si    x       3.5284     -0.3683     -0.2981
            y      -0.3961      3.5122      0.3422
            z      -0.3232      0.1410      2.8987
-------------------------------------------------------------------------------
   24 Si    x       3.3055     -0.2957      0.0897
            y      -0.2987      3.4987     -0.0933
            z       0.0983      0.0106      2.9900
-------------------------------------------------------------------------------
   25 O3    x      -1.9319     -0.8872      0.3510
            y      -0.8733     -2.5149      0.3260
            z       0.4337      0.3284     -1.5442
-------------------------------------------------------------------------------
   26 O2    x      -1.6647     -0.6889     -0.3791
            y      -0.6578     -1.9890     -0.3947
            z      -0.3820     -0.3927     -1.3939
-------------------------------------------------------------------------------
   27 O3    x      -1.8981      0.8794      0.3520
            y       0.8400     -2.5488     -0.3154
            z       0.4230     -0.3370     -1.5500
-------------------------------------------------------------------------------
   28 O2    x      -1.6824      0.7319     -0.2986
            y       0.6813     -2.0111      0.3241
            z      -0.3647      0.3106     -1.3295
-------------------------------------------------------------------------------
   29 O2    x      -1.8427     -0.6397      0.3453
            y      -0.7233     -1.8437      0.3538
            z       0.3828      0.3031     -1.3574
-------------------------------------------------------------------------------
   30 O2    x      -1.7663     -0.7120     -0.2615
            y      -0.7416     -1.9247     -0.2780
            z      -0.3275     -0.2678     -1.3397
-------------------------------------------------------------------------------
   31 O2    x      -1.8353      0.6512      0.3397
            y       0.7314     -1.8365     -0.3514
            z       0.3793     -0.2982     -1.3685
-------------------------------------------------------------------------------
   32 O2    x      -1.7282      0.7104     -0.3852
            y       0.7335     -1.9740      0.3754
            z      -0.3929      0.3662     -1.3718
-------------------------------------------------------------------------------
   33 O2    x      -1.5746      0.0212      0.7567
            y       0.0071     -1.1038     -0.0203
            z       0.9780     -0.0460     -2.7061
-------------------------------------------------------------------------------
   34 O2    x      -1.6249      0.0089     -0.8087
            y       0.0015     -1.0912      0.0056
            z      -0.9933     -0.0030     -2.7317
-------------------------------------------------------------------------------
   35 O2    x      -1.6769      0.0229     -0.7246
            y       0.0004     -1.1156      0.0061
            z      -0.7051      0.0363     -2.2737
-------------------------------------------------------------------------------
   36 O3    x      -2.1516      0.0374      0.9403
            y      -0.0220     -1.2346     -0.0383
            z       0.9449     -0.0864     -2.6903
-------------------------------------------------------------------------------
   37 O2    x      -1.6945      0.0033     -0.7234
            y       0.0029     -1.1110      0.0036
            z      -0.7173     -0.0153     -2.2681
-------------------------------------------------------------------------------
   38 O2    x      -1.7465     -0.0118      0.7456
            y       0.0037     -1.1356     -0.0079
            z       0.7240      0.0009     -2.1813
-------------------------------------------------------------------------------
   39 O3    x      -2.0602     -0.9038      0.5791
            y      -0.8626     -2.3261      0.6702
            z       0.4950      0.5752     -1.5699
-------------------------------------------------------------------------------
   40 O2    x      -1.7669     -0.7118     -0.3139
            y      -0.6785     -1.9042     -0.3433
            z      -0.3335     -0.3314     -1.2495
-------------------------------------------------------------------------------
   41 O2    x      -1.7488      0.6968      0.3142
            y       0.6691     -1.9156     -0.3555
            z       0.3372     -0.3148     -1.2451
-------------------------------------------------------------------------------
   42 O2    x      -1.7622      0.7138     -0.3385
            y       0.6776     -1.9010      0.3607
            z      -0.3348      0.3310     -1.2624
-------------------------------------------------------------------------------
   43 O2    x      -1.6459     -0.6717      0.3175
            y      -0.5723     -2.0159      0.3338
            z       0.3678      0.3302     -1.2372
-------------------------------------------------------------------------------
   44 O2    x      -1.6569     -0.6839     -0.3316
            y      -0.5831     -2.0255     -0.3576
            z      -0.3590     -0.3467     -1.2390
-------------------------------------------------------------------------------
   45 O3    x      -2.0241      0.9130      0.5936
            y       0.7667     -2.3730     -0.5613
            z       0.5727     -0.5412     -1.5452
-------------------------------------------------------------------------------
   46 O2    x      -1.6265      0.6740     -0.3249
            y       0.5523     -2.0385      0.3555
            z      -0.3425      0.3439     -1.2358
-------------------------------------------------------------------------------
   47 O3    x      -2.1647      0.0336     -0.8466
            y       0.0175     -1.3354     -0.0110
            z      -0.5110     -0.0081     -2.1024
-------------------------------------------------------------------------------
   48 O2    x      -1.8035      0.0036      0.6277
            y       0.0004     -1.1945     -0.0048
            z       0.3471      0.0020     -1.6986
-------------------------------------------------------------------------------
   49 O3    x      -1.3360     -0.1598      0.0948
            y      -0.2116     -3.1881      0.1141
            z       0.1123      0.1026     -1.2101
-------------------------------------------------------------------------------
   50 O2    x      -1.1534     -0.0210     -0.0557
            y      -0.0606     -2.5809      0.0145
            z      -0.0738      0.0304     -1.0878
-------------------------------------------------------------------------------
   51 O3    x      -1.3536      0.1862      0.1060
            y       0.2737     -3.1476     -0.1537
            z       0.1268     -0.1225     -1.2248
-------------------------------------------------------------------------------
   52 O2    x      -1.1649      0.0408     -0.0565
            y       0.1020     -2.5851     -0.0553
            z      -0.0640     -0.0550     -1.0655
-------------------------------------------------------------------------------
   53 O3    x      -2.9931      0.0719      0.1141
            y      -0.0065     -1.3902      0.0967
            z       0.1206      0.0619     -1.2466
-------------------------------------------------------------------------------
   54 O2    x      -2.4087      0.1411     -0.0036
            y       0.0889     -1.2470     -0.0613
            z      -0.0086     -0.0399     -1.0862
-------------------------------------------------------------------------------
   55 O3    x      -3.0286     -0.1279      0.1186
            y      -0.0371     -1.3870     -0.0910
            z       0.1444     -0.0452     -1.2295
-------------------------------------------------------------------------------
   56 O2    x      -2.4040     -0.1665      0.0151
            y      -0.0998     -1.2534      0.0636
            z       0.0025      0.0402     -1.0836
-------------------------------------------------------------------------------
   57 O3    x      -1.3526     -0.1608      0.0174
            y      -0.1533     -1.4487      0.0859
            z      -0.0144      0.0620     -2.6003
-------------------------------------------------------------------------------
   58 O2    x      -1.2087     -0.1240      0.0165
            y      -0.1196     -1.2686     -0.0185
            z       0.0322     -0.0213     -2.0810
-------------------------------------------------------------------------------
   59 O3    x      -1.3639      0.1681      0.0204
            y       0.1642     -1.4362     -0.0686
            z      -0.0298     -0.0461     -2.5951
-------------------------------------------------------------------------------
   60 O2    x      -1.2181      0.1300     -0.0036
            y       0.1250     -1.2956      0.0570
            z       0.0105      0.0708     -2.0429
-------------------------------------------------------------------------------
   61 O2    x      -1.1892     -0.1254     -0.0469
            y      -0.0678     -1.2746      0.0797
            z      -0.0324      0.0615     -2.0755
-------------------------------------------------------------------------------
   62 O2    x      -1.1919     -0.1251     -0.0835
            y      -0.0704     -1.3272     -0.0066
            z      -0.0732      0.0228     -2.0370
-------------------------------------------------------------------------------
   63 O2    x      -1.1962      0.1281     -0.0245
            y       0.0817     -1.2769     -0.0638
            z      -0.0273     -0.0474     -2.0732
-------------------------------------------------------------------------------
   64 O2    x      -1.1667      0.1081     -0.0390
            y       0.0666     -1.3007      0.0150
            z      -0.0356     -0.0125     -2.1045
-------------------------------------------------------------------------------
   65 O2    x      -1.2747      0.0791      0.0935
            y       0.1526     -2.4196     -0.0478
            z       0.1084     -0.0313     -1.0388
-------------------------------------------------------------------------------
   66 O2    x      -1.2635      0.0990     -0.0776
            y       0.1872     -2.4862     -0.0301
            z      -0.0995      0.0004     -1.0067
-------------------------------------------------------------------------------
   67 O2    x      -1.2364     -0.0536      0.0803
            y      -0.1317     -2.4840      0.0077
            z       0.1009      0.0014     -1.0174
-------------------------------------------------------------------------------
   68 O2    x      -1.2559     -0.0642     -0.0746
            y      -0.1295     -2.5183     -0.0115
            z      -0.0964     -0.0250     -1.0027
-------------------------------------------------------------------------------
   69 O2    x      -2.4027     -0.1345     -0.0505
            y      -0.0692     -1.2712      0.0536
            z      -0.0332      0.0310     -1.0285
-------------------------------------------------------------------------------
   70 O2    x      -2.4096     -0.1661     -0.0003
            y      -0.1073     -1.2515     -0.0691
            z       0.0059     -0.0304     -1.0639
-------------------------------------------------------------------------------
   71 O2    x      -2.4249      0.0937     -0.0269
            y       0.0438     -1.2529     -0.0598
            z      -0.0391     -0.0293     -1.0346
-------------------------------------------------------------------------------
   72 O2    x      -2.4395      0.1016     -0.0045
            y       0.0702     -1.2354      0.0594
            z       0.0008      0.0275     -1.0378
-------------------------------------------------------------------------------




  Elastic Constant Matrix: (Units=GPa)

-------------------------------------------------------------------------------
  Indices      1         2         3         4         5         6    
-------------------------------------------------------------------------------
       1     50.3678   23.7215   26.7325    0.9216    5.7574   -1.9670
       2     23.7215   67.5164   20.0353    0.3794    6.9792   -1.4801
       3     26.7325   20.0353   42.0024    0.3879    2.7285   -2.2937
       4      0.9216    0.3794    0.3879   11.0880   -0.3304    1.1333
       5      5.7574    6.9792    2.7285   -0.3304   22.7972    1.1360
       6     -1.9670   -1.4801   -2.2937    1.1333    1.1360   26.4575
-------------------------------------------------------------------------------


  Elastic Compliance Matrix: (Units=1/GPa)

-------------------------------------------------------------------------------
  Indices      1         2         3         4         5         6    
-------------------------------------------------------------------------------
       1    0.032443 -0.005695 -0.017579 -0.002105 -0.004419  0.000849
       2   -0.005695  0.018697 -0.005033 -0.000136 -0.003703  0.000351
       3   -0.017579 -0.005033  0.037389  0.000206  0.001430  0.001583
       4   -0.002105 -0.000136  0.000206  0.090844  0.002071 -0.004126
       5   -0.004419 -0.003703  0.001430  0.002071  0.046097 -0.002480
       6    0.000849  0.000351  0.001583 -0.004126 -0.002480  0.038300
-------------------------------------------------------------------------------

  Mechanical properties :

-------------------------------------------------------------------------------
  Convention :                    Reuss         Voigt         Hill
-------------------------------------------------------------------------------
  Bulk  Modulus (GPa)     =      31.33348      33.42948      32.38148
  Shear Modulus (GPa)     =      15.10480      18.02836      16.56658
-------------------------------------------------------------------------------
  Velocity S-wave (km/s)  =       2.77988       3.03701       2.91128
  Velocity P-wave (km/s)  =       5.13167       5.42224       5.27895
-------------------------------------------------------------------------------
  Compressibility (1/GPa) =    0.03191475
-------------------------------------------------------------------------------
  Stress axis :                     x             y             z
-------------------------------------------------------------------------------
  Youngs Moduli (GPa)     =      30.82350      53.48497      26.74606
-------------------------------------------------------------------------------
  Poissons Ratio (x)      =                     0.30459       0.47017
  Poissons Ratio (y)      =       0.17554                     0.13461
  Poissons Ratio (z)      =       0.54184       0.26919
-------------------------------------------------------------------------------


  Piezoelectric Strain Matrix: (Units=C/m**2)

-------------------------------------------------------------------------------
  Indices      1         2         3         4         5         6    
-------------------------------------------------------------------------------
       x     0.06301   0.53851  -0.41608   0.09419  -0.26275  -0.39551
       y    -0.31262   0.21753  -0.66172  -0.21235  -0.36124   0.23031
       z    -0.49571  -0.48934   0.43768  -0.26457  -0.10352  -0.04313
-------------------------------------------------------------------------------


  Piezoelectric Stress Matrix: (Units=10**-11 C/N)

-------------------------------------------------------------------------------
  Indices      1         2         3         4         5         6    
-------------------------------------------------------------------------------
       x     0.69185   1.26250  -2.03568   0.93527  -1.38034  -1.53010
       y     0.24901   1.06254  -2.05359  -2.04969  -1.80329   0.93565
       z    -2.00117  -0.81247   2.72704  -2.28702  -0.05848  -0.02037
-------------------------------------------------------------------------------


  Static dielectric constant tensor : 

-------------------------------------------------------------------------------
              x         y         z
-------------------------------------------------------------------------------
       x     3.97066   0.00715  -0.10208
       y     0.00715   4.10931  -0.01312
       z    -0.10208  -0.01312   3.22879
--------------------------------------------------------------------------------

  High frequency dielectric constant tensor : 

-------------------------------------------------------------------------------
              x         y         z
-------------------------------------------------------------------------------
       x     1.67838  -0.00074   0.00110
       y    -0.00074   1.68571   0.00031
       z     0.00110   0.00031   1.61984
-------------------------------------------------------------------------------

  Static refractive indices : 

-------------------------------------------------------------------------------
    1 =    1.79300      2 =    1.99595      3 =    2.02734
-------------------------------------------------------------------------------

  High frequency refractive indices : 

-------------------------------------------------------------------------------
    1 =    1.27272      2 =    1.29550      3 =    1.29838
-------------------------------------------------------------------------------


  Time to end of optimisation =      10.8616 seconds


  Peak dynamic memory used =       5.01 MB 


  Timing analysis for GULP :

--------------------------------------------------------------------------------
  Task / Subroutine                                          Time (Seconds)
--------------------------------------------------------------------------------
  Calculation of reciprocal space energy and derivatives          0.6535
  Calculation of real space energy and derivatives                6.7363
  Calculation of three-body energy and derivatives                0.6211
  Calculation and manipulation of Hessian matrix                  3.2637
  Calculation of matrix inversion                                 0.0242
  Global summation overhead                                       0.0002
--------------------------------------------------------------------------------
  Total CPU time                                                 10.8616
--------------------------------------------------------------------------------


  Dump file written as c00136.vasp.grs
  CIF file written as c00136.vasp.cif


  Job Finished at 11:50.12  7th October    2025                               

