********************************************************************************
*                       GENERAL UTILITY LATTICE PROGRAM                        *
*                                 Julian Gale                                  *
*                       Curtin Institute for Computation                       *
*                    School of Molecular and Life Sciences                     *
*                    Curtin University, Western Australia                      *
********************************************************************************
* Version = 6.1.2 * Last modified =   3rd November 2022                        *
********************************************************************************
*  optimise     - perform optimisation run                                     *
*  conp         - constant pressure calculation                                *
*  property     - calculate properties for final geometry                      *
********************************************************************************

  Job Started  at 11:53.24  7th October    2025                               

  Number of CPUs =     1


  Total number of configurations input =      1

********************************************************************************
*  Input for Configuration =   1 : c00154.vasp                                 *
********************************************************************************

  Formula = Ge3Si21O48                                                  

  Number of irreducible atoms/shells =     120


  Total number atoms/shells =     120

  Dimensionality = 3               :  Bulk   



  Cartesian lattice vectors (Angstroms) :

       17.182800    0.000000    0.000000
        0.000000    7.513760    0.000000
        0.000000    0.000000   10.447700

  Cell parameters (Angstroms/Degrees):

  a =      17.1828    alpha =  90.0000
  b =       7.5138    beta  =  90.0000
  c =      10.4477    gamma =  90.0000

  Initial cell volume =        1348.875752 Angs**3

  Temperature of configuration =   0.00     K 

  Pressure of configuration =         0.000 GPa 

  Fractional coordinates of asymmetric unit :

--------------------------------------------------------------------------------
   No.  Atomic       x           y          z         Charge      Occupancy
        Label      (Frac)      (Frac)     (Frac)        (e)         (Frac)  
--------------------------------------------------------------------------------
      1 Ge    c    0.556730    0.000000    0.122130     4.00000    1.000000    
      2 Ge    c    0.339810 *  0.706090 *  0.273440 *   4.00000    1.000000    
      3 Ge    c    0.339810 *  0.293910 *  0.273440 *   4.00000    1.000000    
      4 Si    c    0.052090 *  0.000000 *  0.372270 *   4.00000    1.000000    
      5 Si    c    0.447910 *  0.000000 *  0.372270 *   4.00000    1.000000    
      6 Si    c    0.947910 *  0.000000 *  0.627730 *   4.00000    1.000000    
      7 Si    c    0.552090 *  0.000000 *  0.627730 *   4.00000    1.000000    
      8 Si    c    0.943270 *  0.000000 *  0.122130 *   4.00000    1.000000    
      9 Si    c    0.443270 *  0.000000 *  0.877870 *   4.00000    1.000000    
     10 Si    c    0.056730 *  0.000000 *  0.877870 *   4.00000    1.000000    
     11 Si    c    0.160190 *  0.293910 *  0.273440 *   4.00000    1.000000    
     12 Si    c    0.839810 *  0.293910 *  0.726560 *   4.00000    1.000000    
     13 Si    c    0.660190 *  0.706090 *  0.726560 *   4.00000    1.000000    
     14 Si    c    0.839810 *  0.706090 *  0.726560 *   4.00000    1.000000    
     15 Si    c    0.660190 *  0.293910 *  0.726560 *   4.00000    1.000000    
     16 Si    c    0.160190 *  0.706090 *  0.273440 *   4.00000    1.000000    
     17 Si    c    0.660660 *  0.294090 *  0.017440 *   4.00000    1.000000    
     18 Si    c    0.839340 *  0.705910 *  0.017440 *   4.00000    1.000000    
     19 Si    c    0.339340 *  0.294090 *  0.982560 *   4.00000    1.000000    
     20 Si    c    0.160660 *  0.705910 *  0.982560 *   4.00000    1.000000    
     21 Si    c    0.339340 *  0.705910 *  0.982560 *   4.00000    1.000000    
     22 Si    c    0.160660 *  0.294090 *  0.982560 *   4.00000    1.000000    
     23 Si    c    0.660660 *  0.705910 *  0.017440 *   4.00000    1.000000    
     24 Si    c    0.839340 *  0.294090 *  0.017440 *   4.00000    1.000000    
     25 O2    c    0.106570 *  0.174340 *  0.366200 *   0.87073    1.000000    
     26 O3    c    0.393430 *  0.825660 *  0.366200 *   1.33043    1.000000    
     27 O2    c    0.893430 *  0.174340 *  0.633800 *   0.87073    1.000000    
     28 O2    c    0.606570 *  0.825660 *  0.633800 *   0.87073    1.000000    
     29 O2    c    0.893430 *  0.825660 *  0.633800 *   0.87073    1.000000    
     30 O2    c    0.606570 *  0.174340 *  0.633800 *   0.87073    1.000000    
     31 O2    c    0.106570 *  0.825660 *  0.366200 *   0.87073    1.000000    
     32 O3    c    0.393430 *  0.174340 *  0.366200 *   1.33043    1.000000    
     33 O2    c    0.000000 *  0.000000 *  0.500000 *   0.87073    1.000000    
     34 O2    c    0.500000 *  0.000000 *  0.500000 *   0.87073    1.000000    
     35 O2    c    0.994520 *  0.000000 *  0.250840 *   0.87073    1.000000    
     36 O3    c    0.505480 *  0.000000 *  0.250840 *   1.33043    1.000000    
     37 O2    c    0.005480 *  0.000000 *  0.749160 *   0.87073    1.000000    
     38 O2    c    0.494520 *  0.000000 *  0.749160 *   0.87073    1.000000    
     39 O3    c    0.610230 *  0.175520 *  0.115390 *   1.33043    1.000000    
     40 O2    c    0.889770 *  0.824480 *  0.115390 *   0.87073    1.000000    
     41 O2    c    0.389770 *  0.175520 *  0.884610 *   0.87073    1.000000    
     42 O2    c    0.110230 *  0.824480 *  0.884610 *   0.87073    1.000000    
     43 O2    c    0.389770 *  0.824480 *  0.884610 *   0.87073    1.000000    
     44 O2    c    0.110230 *  0.175520 *  0.884610 *   0.87073    1.000000    
     45 O3    c    0.610230 *  0.824480 *  0.115390 *   1.33043    1.000000    
     46 O2    c    0.889770 *  0.175520 *  0.115390 *   0.87073    1.000000    
     47 O3    c    0.500000 *  0.000000 *  0.000000 *   1.33043    1.000000    
     48 O2    c    0.000000 *  0.000000 *  0.000000 *   0.87073    1.000000    
     49 O2    c    0.151750 *  0.500000 *  0.313330 *   0.87073    1.000000    
     50 O1    c    0.348250 *  0.500000 *  0.313330 *   1.73396    1.000000    
     51 O2    c    0.848250 *  0.500000 *  0.686670 *   0.87073    1.000000    
     52 O2    c    0.651750 *  0.500000 *  0.686670 *   0.87073    1.000000    
     53 O3    c    0.250000 *  0.234950 *  0.285720 *   1.33043    1.000000    
     54 O3    c    0.250000 *  0.765050 *  0.285720 *   1.33043    1.000000    
     55 O2    c    0.750000 *  0.234950 *  0.714280 *   0.87073    1.000000    
     56 O2    c    0.750000 *  0.765050 *  0.714280 *   0.87073    1.000000    
     57 O2    c    0.131410 *  0.268650 *  0.127790 *   0.87073    1.000000    
     58 O3    c    0.368590 *  0.731350 *  0.127790 *   1.33043    1.000000    
     59 O2    c    0.868590 *  0.268650 *  0.872210 *   0.87073    1.000000    
     60 O2    c    0.631410 *  0.731350 *  0.872210 *   0.87073    1.000000    
     61 O2    c    0.868590 *  0.731350 *  0.872210 *   0.87073    1.000000    
     62 O2    c    0.631410 *  0.268650 *  0.872210 *   0.87073    1.000000    
     63 O2    c    0.131410 *  0.731350 *  0.127790 *   0.87073    1.000000    
     64 O3    c    0.368590 *  0.268650 *  0.127790 *   1.33043    1.000000    
     65 O2    c    0.653920 *  0.500000 *  0.058200 *   0.87073    1.000000    
     66 O2    c    0.846080 *  0.500000 *  0.058200 *   0.87073    1.000000    
     67 O2    c    0.346080 *  0.500000 *  0.941800 *   0.87073    1.000000    
     68 O2    c    0.153920 *  0.500000 *  0.941800 *   0.87073    1.000000    
     69 O2    c    0.750000 *  0.231060 *  0.027050 *   0.87073    1.000000    
     70 O2    c    0.750000 *  0.768940 *  0.027050 *   0.87073    1.000000    
     71 O2    c    0.250000 *  0.231060 *  0.972950 *   0.87073    1.000000    
     72 O2    c    0.250000 *  0.768940 *  0.972950 *   0.87073    1.000000    
     73 O2    s    0.106570 *  0.174340 *  0.366200 *  -2.87073    1.000000    
     74 O3    s    0.393430 *  0.825660 *  0.366200 *  -3.33043    1.000000    
     75 O2    s    0.893430 *  0.174340 *  0.633800 *  -2.87073    1.000000    
     76 O2    s    0.606570 *  0.825660 *  0.633800 *  -2.87073    1.000000    
     77 O2    s    0.893430 *  0.825660 *  0.633800 *  -2.87073    1.000000    
     78 O2    s    0.606570 *  0.174340 *  0.633800 *  -2.87073    1.000000    
     79 O2    s    0.106570 *  0.825660 *  0.366200 *  -2.87073    1.000000    
     80 O3    s    0.393430 *  0.174340 *  0.366200 *  -3.33043    1.000000    
     81 O2    s    0.000000 *  0.000000 *  0.500000 *  -2.87073    1.000000    
     82 O2    s    0.500000 *  0.000000 *  0.500000 *  -2.87073    1.000000    
     83 O2    s    0.994520 *  0.000000 *  0.250840 *  -2.87073    1.000000    
     84 O3    s    0.505480 *  0.000000 *  0.250840 *  -3.33043    1.000000    
     85 O2    s    0.005480 *  0.000000 *  0.749160 *  -2.87073    1.000000    
     86 O2    s    0.494520 *  0.000000 *  0.749160 *  -2.87073    1.000000    
     87 O3    s    0.610230 *  0.175520 *  0.115390 *  -3.33043    1.000000    
     88 O2    s    0.889770 *  0.824480 *  0.115390 *  -2.87073    1.000000    
     89 O2    s    0.389770 *  0.175520 *  0.884610 *  -2.87073    1.000000    
     90 O2    s    0.110230 *  0.824480 *  0.884610 *  -2.87073    1.000000    
     91 O2    s    0.389770 *  0.824480 *  0.884610 *  -2.87073    1.000000    
     92 O2    s    0.110230 *  0.175520 *  0.884610 *  -2.87073    1.000000    
     93 O3    s    0.610230 *  0.824480 *  0.115390 *  -3.33043    1.000000    
     94 O2    s    0.889770 *  0.175520 *  0.115390 *  -2.87073    1.000000    
     95 O3    s    0.500000 *  0.000000 *  0.000000 *  -3.33043    1.000000    
     96 O2    s    0.000000 *  0.000000 *  0.000000 *  -2.87073    1.000000    
     97 O2    s    0.151750 *  0.500000 *  0.313330 *  -2.87073    1.000000    
     98 O1    s    0.348250 *  0.500000 *  0.313330 *  -3.73396    1.000000    
     99 O2    s    0.848250 *  0.500000 *  0.686670 *  -2.87073    1.000000    
    100 O2    s    0.651750 *  0.500000 *  0.686670 *  -2.87073    1.000000    
    101 O3    s    0.250000 *  0.234950 *  0.285720 *  -3.33043    1.000000    
    102 O3    s    0.250000 *  0.765050 *  0.285720 *  -3.33043    1.000000    
    103 O2    s    0.750000 *  0.234950 *  0.714280 *  -2.87073    1.000000    
    104 O2    s    0.750000 *  0.765050 *  0.714280 *  -2.87073    1.000000    
    105 O2    s    0.131410 *  0.268650 *  0.127790 *  -2.87073    1.000000    
    106 O3    s    0.368590 *  0.731350 *  0.127790 *  -3.33043    1.000000    
    107 O2    s    0.868590 *  0.268650 *  0.872210 *  -2.87073    1.000000    
    108 O2    s    0.631410 *  0.731350 *  0.872210 *  -2.87073    1.000000    
    109 O2    s    0.868590 *  0.731350 *  0.872210 *  -2.87073    1.000000    
    110 O2    s    0.631410 *  0.268650 *  0.872210 *  -2.87073    1.000000    
    111 O2    s    0.131410 *  0.731350 *  0.127790 *  -2.87073    1.000000    
    112 O3    s    0.368590 *  0.268650 *  0.127790 *  -3.33043    1.000000    
    113 O2    s    0.653920 *  0.500000 *  0.058200 *  -2.87073    1.000000    
    114 O2    s    0.846080 *  0.500000 *  0.058200 *  -2.87073    1.000000    
    115 O2    s    0.346080 *  0.500000 *  0.941800 *  -2.87073    1.000000    
    116 O2    s    0.153920 *  0.500000 *  0.941800 *  -2.87073    1.000000    
    117 O2    s    0.750000 *  0.231060 *  0.027050 *  -2.87073    1.000000    
    118 O2    s    0.750000 *  0.768940 *  0.027050 *  -2.87073    1.000000    
    119 O2    s    0.250000 *  0.231060 *  0.972950 *  -2.87073    1.000000    
    120 O2    s    0.250000 *  0.768940 *  0.972950 *  -2.87073    1.000000    
--------------------------------------------------------------------------------



********************************************************************************
*  General input information                                                   *
********************************************************************************

  Species output for all configurations : 

--------------------------------------------------------------------------------
  Species    Type    Atomic    Atomic    Charge       Radii (Angs)     Library
                     Number     Mass       (e)     Cova   Ionic  VDW   Symbol
--------------------------------------------------------------------------------
    Ge       Core       32      72.61   4.000000   1.170  0.000  1.750 Ge       
    Si       Core       14      28.09   4.000000   1.200  0.000  2.100 Si       
    O1       Core        8      16.00   1.733957   0.730  0.000  1.360 O1       
    O2       Core        8      16.00   0.870733   0.730  0.000  1.360 O2       
    O3       Core        8      16.00   1.330431   0.730  0.000  1.360 O3       
    O1       Shell       8       0.00  -3.733957   0.730  0.000  0.000 O1       
    O2       Shell       8       0.00  -2.870733   0.730  0.000  0.000 O2       
    O3       Shell       8       0.00  -3.330431   0.730  0.000  0.000 O3       
--------------------------------------------------------------------------------


  Lattice summation method               =    Ewald          (3-D)
                                         =    Parry          (2-D)
                                         =    Saunders et al (1-D)
  Accuracy factor for lattice sums       =   12.000


  Analytic derivatives to be used

  Time limit = Infinity

  Maximum range for interatomic potentials =    100000.000000 Angstroms

  General interatomic potentials :

--------------------------------------------------------------------------------
Atom  Types   Potential      Parameter       Value         Units   Cutoffs(Ang)
  1     2                                                            Min /  Max 
--------------------------------------------------------------------------------
Si   c O1   s Buckingham    Buckingham A     1315.2478    eV        0.000 16.000
                            Buckingham rho  0.31775900    Ang       
                            Buckingham C     10.141118    eV*Ang^6  
--------------------------------------------------------------------------------
Si   c O2   s Buckingham    Buckingham A     1315.2478    eV        0.000 16.000
                            Buckingham rho  0.31775900    Ang       
                            Buckingham C     10.141118    eV*Ang^6  
--------------------------------------------------------------------------------
Si   c O3   s Buckingham    Buckingham A     1315.2478    eV        0.000 16.000
                            Buckingham rho  0.31775900    Ang       
                            Buckingham C     10.141118    eV*Ang^6  
--------------------------------------------------------------------------------
Ge   c O1   s Buckingham    Buckingham A     1497.3996    eV        0.000 16.000
                            Buckingham rho  0.32564600    Ang       
                            Buckingham C     16.808599    eV*Ang^6  
--------------------------------------------------------------------------------
Ge   c O2   s Buckingham    Buckingham A     1497.3996    eV        0.000 16.000
                            Buckingham rho  0.32564600    Ang       
                            Buckingham C     16.808599    eV*Ang^6  
--------------------------------------------------------------------------------
Ge   c O3   s Buckingham    Buckingham A     1497.3996    eV        0.000 16.000
                            Buckingham rho  0.32564600    Ang       
                            Buckingham C     16.808599    eV*Ang^6  
--------------------------------------------------------------------------------
O1   s O1   s Buckingham    Buckingham A     22764.000    eV        0.000 16.000
                            Buckingham rho  0.14900000    Ang       
                            Buckingham C     10.937044    eV*Ang^6  
--------------------------------------------------------------------------------
O1   s O2   s Buckingham    Buckingham A     22764.000    eV        0.000 16.000
                            Buckingham rho  0.14900000    Ang       
                            Buckingham C     10.937044    eV*Ang^6  
--------------------------------------------------------------------------------
O1   s O3   s Buckingham    Buckingham A     22764.000    eV        0.000 16.000
                            Buckingham rho  0.14900000    Ang       
                            Buckingham C     10.937044    eV*Ang^6  
--------------------------------------------------------------------------------
O2   s O2   s Buckingham    Buckingham A     22764.000    eV        0.000 16.000
                            Buckingham rho  0.14900000    Ang       
                            Buckingham C     10.937044    eV*Ang^6  
--------------------------------------------------------------------------------
O2   s O3   s Buckingham    Buckingham A     22764.000    eV        0.000 16.000
                            Buckingham rho  0.14900000    Ang       
                            Buckingham C     10.937044    eV*Ang^6  
--------------------------------------------------------------------------------
O3   s O3   s Buckingham    Buckingham A     22764.000    eV        0.000 16.000
                            Buckingham rho  0.14900000    Ang       
                            Buckingham C     10.937044    eV*Ang^6  
--------------------------------------------------------------------------------
O1   c O1   s Spring (c-s)  Spring k 2       180.31577    eV*Ang^-2 0.000  0.800
                            Spring k 4       0.0000000    eV*Ang^-4 
--------------------------------------------------------------------------------
O2   c O2   s Spring (c-s)  Spring k 2       75.969800    eV*Ang^-2 0.000  0.800
                            Spring k 4       0.0000000    eV*Ang^-4 
--------------------------------------------------------------------------------
O3   c O3   s Spring (c-s)  Spring k 2       128.14270    eV*Ang^-2 0.000  0.800
                            Spring k 4       0.0000000    eV*Ang^-4 
--------------------------------------------------------------------------------

  General Three-body potentials :

--------------------------------------------------------------------------------
  Atoms       Potential      Parameter       Value         Units   Cutoffs(Ang)
  1 / 2 / 3                                                          Min /  Max 
--------------------------------------------------------------------------------
Si    core    Harmonic      Three-body cnst  1.2614000    eV*rad^-2 0.000  1.900
O1    shel                  Three-body angl  109.47000    degrees   0.000  1.900
O1    shel                  Three-body k4    0.0000000    eV*rad^-4 0.000  3.500
                            Three-body k3    0.0000000    eV*rad^-3 
--------------------------------------------------------------------------------
Si    core    Harmonic      Three-body cnst  1.2614000    eV*rad^-2 0.000  1.900
O1    shel                  Three-body angl  109.47000    degrees   0.000  1.900
õ(1   shel                  Three-body k4    0.0000000    eV*rad^-4 0.000  3.500
                            Three-body k3    0.0000000    eV*rad^-3 
--------------------------------------------------------------------------------
Si    core    Harmonic      Three-body cnst  1.2614000    eV*rad^-2 0.000  1.900
õ(1   shel                  Three-body angl  109.47000    degrees   0.000  1.900
õ(1   shel                  Three-body k4    0.0000000    eV*rad^-4 0.000  3.500
                            Three-body k3    0.0000000    eV*rad^-3 
--------------------------------------------------------------------------------
Si    core    Harmonic      Three-body cnst  1.2614000    eV*rad^-2 0.000  1.900
O1    shel                  Three-body angl  109.47000    degrees   0.000  1.900
O2    shel                  Three-body k4    0.0000000    eV*rad^-4 0.000  3.500
                            Three-body k3    0.0000000    eV*rad^-3 
--------------------------------------------------------------------------------
Si    core    Harmonic      Three-body cnst  1.2614000    eV*rad^-2 0.000  1.900
O1    shel                  Three-body angl  109.47000    degrees   0.000  1.900
õ(2   shel                  Three-body k4    0.0000000    eV*rad^-4 0.000  3.500
                            Three-body k3    0.0000000    eV*rad^-3 
--------------------------------------------------------------------------------
Si    core    Harmonic      Three-body cnst  1.2614000    eV*rad^-2 0.000  1.900
O2    shel                  Three-body angl  109.47000    degrees   0.000  1.900
õ(1   shel                  Three-body k4    0.0000000    eV*rad^-4 0.000  3.500
                            Three-body k3    0.0000000    eV*rad^-3 
--------------------------------------------------------------------------------
Si    core    Harmonic      Three-body cnst  1.2614000    eV*rad^-2 0.000  1.900
õ(1   shel                  Three-body angl  109.47000    degrees   0.000  1.900
õ(2   shel                  Three-body k4    0.0000000    eV*rad^-4 0.000  3.500
                            Three-body k3    0.0000000    eV*rad^-3 
--------------------------------------------------------------------------------
Si    core    Harmonic      Three-body cnst  1.2614000    eV*rad^-2 0.000  1.900
O2    shel                  Three-body angl  109.47000    degrees   0.000  1.900
O2    shel                  Three-body k4    0.0000000    eV*rad^-4 0.000  3.500
                            Three-body k3    0.0000000    eV*rad^-3 
--------------------------------------------------------------------------------
Si    core    Harmonic      Three-body cnst  1.2614000    eV*rad^-2 0.000  1.900
O2    shel                  Three-body angl  109.47000    degrees   0.000  1.900
õ(2   shel                  Three-body k4    0.0000000    eV*rad^-4 0.000  3.500
                            Three-body k3    0.0000000    eV*rad^-3 
--------------------------------------------------------------------------------
Si    core    Harmonic      Three-body cnst  1.2614000    eV*rad^-2 0.000  1.900
õ(2   shel                  Three-body angl  109.47000    degrees   0.000  1.900
õ(2   shel                  Three-body k4    0.0000000    eV*rad^-4 0.000  3.500
                            Three-body k3    0.0000000    eV*rad^-3 
--------------------------------------------------------------------------------

********************************************************************************
*  Output for configuration   1 : c00154.vasp                                  *
********************************************************************************


  Components of energy : 

--------------------------------------------------------------------------------
  Interatomic potentials     =         760.32238343 eV    
  Three-body potentials      =           0.01340973 eV    
  Monopole - monopole (real) =       -2676.00317478 eV    
  Monopole - monopole (recip)=       -1115.35404472 eV    
  Monopole - monopole (total)=       -3791.35721950 eV    
--------------------------------------------------------------------------------
  Total lattice energy       =       -3031.02142635 eV    
--------------------------------------------------------------------------------
  Total lattice energy       =         -292447.2342 kJ/(mole unit cells)
--------------------------------------------------------------------------------


  Number of variables =      363

  Maximum number of calculations  =          1000
  Maximum Hessian update interval =            10
  Maximum step size               =   0.100000000
  Maximum parameter tolerance     =   0.000010000
  Maximum function  tolerance     =   0.000010000
  Maximum gradient  tolerance     =   0.001000000
  Maximum gradient  component     =   0.010000000

  Symmetry not applied to optimisation

  Cell parameters to be optimised using strains

  Newton-Raphson optimiser to be used

  BFGS hessian update to be used

  Lower half triangular hessian to be used

  Minimiser to switch to RFO
  When gradient norm is less than     0.050000

  Dumpfile to be written after every cycle

  Start of bulk optimisation :

  Cycle:      0 Energy:     -3031.021426  Gnorm:      4.413795  CPU:    0.126
  ** Hessian calculated **
  Cycle:      1 Energy:     -3061.788284  Gnorm:      0.977317  CPU:    0.282
  ** Hessian calculated **
  Cycle:      2 Energy:     -3066.525694  Gnorm:      0.390348  CPU:    0.566
  Cycle:      3 Energy:     -3067.086327  Gnorm:      0.252982  CPU:    0.691
  Cycle:      4 Energy:     -3067.443061  Gnorm:      0.123550  CPU:    0.814
  ** Hessian calculated **
  Cycle:      5 Energy:     -3067.670938  Gnorm:      0.076778  CPU:    1.047
  Cycle:      6 Energy:     -3067.750523  Gnorm:      0.035756  CPU:    1.172
  ** Hessian has wrong structure
  ** Imaginary eigenvectors =   2
  Cycle:      7 Energy:     -3067.789187  Gnorm:      0.153579  CPU:    1.492
  ** Hessian has wrong structure
  ** Imaginary eigenvectors =   1
  ** Hessian has required structure
  Cycle:      8 Energy:     -3067.891086  Gnorm:      0.115722  CPU:    2.153
  ** Hessian has required structure
  Cycle:      9 Energy:     -3067.956597  Gnorm:      0.050272  CPU:    2.324
  ** Hessian has required structure
  Cycle:     10 Energy:     -3067.990442  Gnorm:      0.033600  CPU:    2.519
  ** Hessian has required structure
  Cycle:     11 Energy:     -3068.009692  Gnorm:      0.037167  CPU:    2.715
  ** Hessian has required structure
  Cycle:     12 Energy:     -3068.023110  Gnorm:      0.029705  CPU:    2.909
  ** Hessian has required structure
  Cycle:     13 Energy:     -3068.031479  Gnorm:      0.018170  CPU:    3.099
  ** Hessian has required structure
  Cycle:     14 Energy:     -3068.037887  Gnorm:      0.018558  CPU:    3.294
  ** Hessian has required structure
  Cycle:     15 Energy:     -3068.042572  Gnorm:      0.014241  CPU:    3.489
  ** Hessian has required structure
  Cycle:     16 Energy:     -3068.046280  Gnorm:      0.014461  CPU:    3.683
  ** Hessian has required structure
  Cycle:     17 Energy:     -3068.050539  Gnorm:      0.010828  CPU:    3.899
  ** Hessian has required structure
  Cycle:     18 Energy:     -3068.058332  Gnorm:      0.011565  CPU:    4.213
  ** Hessian has required structure
  Cycle:     19 Energy:     -3068.062321  Gnorm:      0.010467  CPU:    4.403
  ** Hessian has required structure
  Cycle:     20 Energy:     -3068.065012  Gnorm:      0.005355  CPU:    4.591
  ** Hessian has required structure
  Cycle:     21 Energy:     -3068.066422  Gnorm:      0.004463  CPU:    4.780
  ** Hessian has required structure
  Cycle:     22 Energy:     -3068.067203  Gnorm:      0.002583  CPU:    4.992
  ** Hessian has required structure
  Cycle:     23 Energy:     -3068.067463  Gnorm:      0.001393  CPU:    5.203
  ** Hessian has required structure
  Cycle:     24 Energy:     -3068.067539  Gnorm:      0.000889  CPU:    5.395
  ** Hessian has required structure
  Cycle:     25 Energy:     -3068.067574  Gnorm:      0.000377  CPU:    5.611
  ** Hessian has required structure
  Cycle:     26 Energy:     -3068.067583  Gnorm:      0.000243  CPU:    5.803
  ** Hessian has required structure
  Cycle:     27 Energy:     -3068.067585  Gnorm:      0.000172  CPU:    5.973
  ** Hessian has required structure
  Cycle:     28 Energy:     -3068.067586  Gnorm:      0.000121  CPU:    6.245
  ** Hessian has required structure
  Cycle:     29 Energy:     -3068.067586  Gnorm:      0.000085  CPU:    6.415
  ** Hessian has required structure


  **** Optimisation achieved ****


  Final energy =   -3068.06758617 eV      
  Final Gnorm  =       0.00005924

  Components of energy : 

--------------------------------------------------------------------------------
  Interatomic potentials     =         816.18002345 eV    
  Three-body potentials      =           0.23655988 eV    
  Monopole - monopole (real) =       -2203.91080089 eV    
  Monopole - monopole (recip)=       -1680.57336860 eV    
  Monopole - monopole (total)=       -3884.48416949 eV    
--------------------------------------------------------------------------------
  Total lattice energy       =       -3068.06758617 eV    
--------------------------------------------------------------------------------
  Total lattice energy       =         -296021.6224 kJ/(mole unit cells)
--------------------------------------------------------------------------------

  Final fractional coordinates of atoms :

--------------------------------------------------------------------------------
   No.  Atomic        x           y          z          Radius
        Label       (Frac)      (Frac)     (Frac)       (Angs) 
--------------------------------------------------------------------------------
     1  Ge    c     0.556730    0.000000    0.122130    0.000000
     2  Ge    c     0.354411    0.682308    0.299370    0.000000
     3  Ge    c     0.336698    0.261274    0.294720    0.000000
     4  Si    c     0.050211    0.009856    0.382689    0.000000
     5  Si    c     0.456965    0.986630    0.386762    0.000000
     6  Si    c     0.956671    0.008631    0.648560    0.000000
     7  Si    c     0.557729    0.996088    0.636588    0.000000
     8  Si    c     0.947467    0.006396    0.134885    0.000000
     9  Si    c     0.447013    0.999671    0.876372    0.000000
    10  Si    c     0.063008    0.009225    0.898471    0.000000
    11  Si    c     0.153551    0.316973    0.292321    0.000000
    12  Si    c     0.852027    0.315443    0.732517    0.000000
    13  Si    c     0.660050    0.691611    0.736868    0.000000
    14  Si    c     0.840159    0.719299    0.733221    0.000000
    15  Si    c     0.672147    0.284641    0.737881    0.000000
    16  Si    c     0.170120    0.722101    0.294333    0.000000
    17  Si    c     0.675380    0.282608    0.040089    0.000000
    18  Si    c     0.836982    0.720105    0.036809    0.000000
    19  Si    c     0.337117    0.281135    0.986202    0.000000
    20  Si    c     0.174941    0.722033    0.988770    0.000000
    21  Si    c     0.355241    0.686565    0.991690    0.000000
    22  Si    c     0.157003    0.325263    0.987513    0.000000
    23  Si    c     0.656314    0.682404    0.038773    0.000000
    24  Si    c     0.855212    0.322802    0.036097    0.000000
    25  O2    c     0.089293    0.201892    0.369037    0.000000
    26  O3    c     0.422886    0.791283    0.390714    0.000000
    27  O2    c     0.911446    0.195476    0.649828    0.000000
    28  O2    c     0.601937    0.809274    0.650972    0.000000
    29  O2    c     0.892661    0.852920    0.649697    0.000000
    30  O2    c     0.618549    0.155239    0.654763    0.000000
    31  O2    c     0.115959    0.858431    0.372062    0.000000
    32  O3    c     0.382566    0.115764    0.396952    0.000000
    33  O2    c     0.009113    0.994108    0.521200    0.000000
    34  O2    c     0.524468    0.011741    0.491943    0.000000
    35  O2    c     0.984249    0.983414    0.275288    0.000000
    36  O3    c     0.493916    0.036627    0.247091    0.000000
    37  O2    c     0.014315    0.988366    0.769093    0.000000
    38  O2    c     0.483093    0.006902    0.732026    0.000000
    39  O3    c     0.633479    0.147181    0.132828    0.000000
    40  O2    c     0.878423    0.864210    0.124736    0.000000
    41  O2    c     0.379689    0.149311    0.886299    0.000000
    42  O2    c     0.132812    0.865965    0.899334    0.000000
    43  O2    c     0.412876    0.803372    0.901740    0.000000
    44  O2    c     0.098924    0.205745    0.903628    0.000000
    45  O3    c     0.596189    0.789886    0.125894    0.000000
    46  O2    c     0.913742    0.203906    0.119920    0.000000
    47  O3    c     0.513084    0.048313    0.977180    0.000000
    48  O2    c     0.010780    0.965861    0.024013    0.000000
    49  O2    c     0.139478    0.523691    0.319926    0.000000
    50  O1    c     0.373492    0.466170    0.320968    0.000000
    51  O2    c     0.867942    0.520478    0.702163    0.000000
    52  O2    c     0.644122    0.485210    0.712439    0.000000
    53  O3    c     0.238896    0.262173    0.337654    0.000000
    54  O3    c     0.258880    0.736288    0.340823    0.000000
    55  O2    c     0.763037    0.266014    0.695578    0.000000
    56  O2    c     0.748999    0.739594    0.696664    0.000000
    57  O2    c     0.145544    0.277625    0.138863    0.000000
    58  O3    c     0.369729    0.744813    0.138444    0.000000
    59  O2    c     0.867609    0.277397    0.884363    0.000000
    60  O2    c     0.643720    0.737295    0.887741    0.000000
    61  O2    c     0.849459    0.765122    0.884991    0.000000
    62  O2    c     0.664437    0.231067    0.888751    0.000000
    63  O2    c     0.167511    0.768264    0.140982    0.000000
    64  O3    c     0.346033    0.208492    0.131543    0.000000
    65  O2    c     0.639243    0.477019    0.060903    0.000000
    66  O2    c     0.873526    0.527097    0.064629    0.000000
    67  O2    c     0.373863    0.478129    0.977403    0.000000
    68  O2    c     0.137416    0.530276    0.961527    0.000000
    69  O2    c     0.766531    0.281734    0.076365    0.000000
    70  O2    c     0.745798    0.724958    0.074942    0.000000
    71  O2    c     0.246340    0.287713    0.946512    0.000000
    72  O2    c     0.266077    0.722000    0.949578    0.000000
    73  O2    s     0.092148    0.193844    0.362078    0.000000
    74  O3    s     0.420730    0.802030    0.382964    0.000000
    75  O2    s     0.909691    0.188815    0.658834    0.000000
    76  O2    s     0.603642    0.816270    0.658950    0.000000
    77  O2    s     0.893625    0.854652    0.658978    0.000000
    78  O2    s     0.617943    0.152378    0.662144    0.000000
    79  O2    s     0.114929    0.859636    0.364458    0.000000
    80  O3    s     0.385977    0.115297    0.387505    0.000000
    81  O2    s     0.007730    0.997701    0.519985    0.000000
    82  O2    s     0.520631    0.007177    0.496367    0.000000
    83  O2    s     0.987423    0.989083    0.271021    0.000000
    84  O3    s     0.495930    0.028541    0.249444    0.000000
    85  O2    s     0.013503    0.993157    0.770739    0.000000
    86  O2    s     0.487268    0.004887    0.737483    0.000000
    87  O3    s     0.631868    0.150114    0.121862    0.000000
    88  O2    s     0.881265    0.863405    0.115755    0.000000
    89  O2    s     0.382101    0.147942    0.896156    0.000000
    90  O2    s     0.130036    0.865279    0.909259    0.000000
    91  O2    s     0.410238    0.811119    0.908786    0.000000
    92  O2    s     0.101472    0.198102    0.912273    0.000000
    93  O3    s     0.599259    0.795444    0.116601    0.000000
    94  O2    s     0.910862    0.196035    0.112159    0.000000
    95  O3    s     0.509863    0.039124    0.978989    0.000000
    96  O2    s     0.009497    0.975249    0.022445    0.000000
    97  O2    s     0.144198    0.522596    0.314260    0.000000
    98  O1    s     0.368968    0.467831    0.317084    0.000000
    99  O2    s     0.863239    0.519547    0.708745    0.000000
   100  O2    s     0.648806    0.486113    0.717740    0.000000
   101  O3    s     0.238070    0.267719    0.329489    0.000000
   102  O3    s     0.257629    0.730643    0.332928    0.000000
   103  O2    s     0.762802    0.273248    0.703950    0.000000
   104  O2    s     0.749297    0.732273    0.704844    0.000000
   105  O2    s     0.147609    0.286865    0.138699    0.000000
   106  O3    s     0.367147    0.734281    0.136299    0.000000
   107  O2    s     0.864639    0.286198    0.884350    0.000000
   108  O2    s     0.646707    0.727022    0.887294    0.000000
   109  O2    s     0.847117    0.755416    0.885006    0.000000
   110  O2    s     0.666409    0.242121    0.888210    0.000000
   111  O2    s     0.168586    0.758450    0.140788    0.000000
   112  O3    s     0.344430    0.219745    0.130078    0.000000
   113  O2    s     0.644928    0.478944    0.056269    0.000000
   114  O2    s     0.867742    0.525539    0.058648    0.000000
   115  O2    s     0.368180    0.479668    0.979781    0.000000
   116  O2    s     0.143403    0.528479    0.967141    0.000000
   117  O2    s     0.766463    0.286492    0.067861    0.000000
   118  O2    s     0.746180    0.719822    0.066849    0.000000
   119  O2    s     0.246415    0.291223    0.955298    0.000000
   120  O2    s     0.265746    0.718074    0.958404    0.000000
--------------------------------------------------------------------------------

  Final Cartesian lattice vectors (Angstroms) :

       17.089353    0.022495    0.072223
        0.009917    7.595641    0.014222
        0.044159    0.019295   10.281927


  Final cell parameters and derivatives :

--------------------------------------------------------------------------------
       a           17.089521 Angstrom     dE/de1(xx)     0.004273 eV/strain
       b            7.595661 Angstrom     dE/de2(yy)     0.003909 eV/strain
       c           10.282040 Angstrom     dE/de3(zz)     0.002457 eV/strain
       alpha       89.784877 Degrees      dE/de4(yz)     0.000090 eV/strain
       beta        89.511645 Degrees      dE/de5(xz)     0.000366 eV/strain
       gamma       89.849320 Degrees      dE/de6(xy)     0.000008 eV/strain
--------------------------------------------------------------------------------

  Primitive cell volume =          1334.610211 Angs**3

  Density of cell =      1.960562 g/cm**3

  Non-primitive cell volume =          1334.610211 Angs**3


  Final internal derivatives :

--------------------------------------------------------------------------------
   No.  Atomic          a             b             c           Radius
        Label          (eV)          (eV)          (eV)        (eV/Angs)
--------------------------------------------------------------------------------
      1 Ge    c       0.000000      0.000000      0.000000      0.000000
      2 Ge    c       0.002240      0.002200     -0.001598      0.000000
      3 Ge    c       0.007177     -0.001200     -0.001175      0.000000
      4 Si    c       0.000806      0.000149     -0.000222      0.000000
      5 Si    c      -0.000730      0.000120      0.000267      0.000000
      6 Si    c       0.000307     -0.000111      0.000078      0.000000
      7 Si    c      -0.000407     -0.000209      0.000085      0.000000
      8 Si    c       0.000738      0.000006     -0.000009      0.000000
      9 Si    c       0.000895      0.000098      0.000046      0.000000
     10 Si    c      -0.000606     -0.000170      0.000231      0.000000
     11 Si    c      -0.008685     -0.000476     -0.001297      0.000000
     12 Si    c      -0.000122      0.000123     -0.000061      0.000000
     13 Si    c       0.000520     -0.000003     -0.000023      0.000000
     14 Si    c      -0.000241     -0.000078      0.000199      0.000000
     15 Si    c       0.000448      0.000027     -0.000153      0.000000
     16 Si    c      -0.002561      0.000750     -0.001754      0.000000
     17 Si    c       0.000355      0.000291     -0.000112      0.000000
     18 Si    c      -0.000828     -0.000084     -0.000438      0.000000
     19 Si    c      -0.001320      0.000797      0.000400      0.000000
     20 Si    c       0.001191     -0.000678     -0.000031      0.000000
     21 Si    c      -0.000597     -0.000682      0.000373      0.000000
     22 Si    c       0.001034      0.000774     -0.000115      0.000000
     23 Si    c       0.000626     -0.000470     -0.000473      0.000000
     24 Si    c      -0.000186      0.000255      0.000002      0.000000
     25 O2    c       0.000734      0.000075      0.000170      0.000000
     26 O3    c       0.000682      0.000836      0.000344      0.000000
     27 O2    c       0.000046     -0.000095     -0.000067      0.000000
     28 O2    c       0.000069      0.000076     -0.000090      0.000000
     29 O2    c       0.000067      0.000100     -0.000030      0.000000
     30 O2    c      -0.000034      0.000048     -0.000199      0.000000
     31 O2    c      -0.001893      0.000927      0.000931      0.000000
     32 O3    c       0.001368     -0.000421      0.000306      0.000000
     33 O2    c      -0.000390      0.000130      0.000135      0.000000
     34 O2    c      -0.000919      0.000137     -0.000305      0.000000
     35 O2    c       0.000640      0.000169     -0.000198      0.000000
     36 O3    c       0.003911     -0.000259     -0.001361      0.000000
     37 O2    c       0.000048      0.000252      0.000277      0.000000
     38 O2    c       0.000377      0.000019      0.000156      0.000000
     39 O3    c       0.000112      0.000542      0.000056      0.000000
     40 O2    c       0.000334      0.000172      0.000171      0.000000
     41 O2    c       0.000349     -0.000186     -0.000233      0.000000
     42 O2    c      -0.000869      0.000278     -0.000109      0.000000
     43 O2    c      -0.001047     -0.000245     -0.000331      0.000000
     44 O2    c      -0.000587     -0.000639     -0.000343      0.000000
     45 O3    c      -0.001512      0.000516      0.001142      0.000000
     46 O2    c      -0.000007     -0.000072      0.000222      0.000000
     47 O3    c      -0.000386     -0.000217      0.001158      0.000000
     48 O2    c       0.000866      0.000339     -0.000723      0.000000
     49 O2    c      -0.001585      0.000902      0.002159      0.000000
     50 O1    c       0.005541     -0.001143      0.002918      0.000000
     51 O2    c      -0.000458      0.000005      0.000045      0.000000
     52 O2    c       0.000221      0.000041     -0.000010      0.000000
     53 O3    c       0.000069     -0.003934      0.003629      0.000000
     54 O3    c       0.002356      0.001456      0.001943      0.000000
     55 O2    c      -0.000093     -0.000094      0.000098      0.000000
     56 O2    c      -0.000699      0.000007      0.000225      0.000000
     57 O2    c      -0.000822     -0.000551     -0.000919      0.000000
     58 O3    c      -0.000075      0.000335     -0.000677      0.000000
     59 O2    c       0.000514     -0.000035     -0.000355      0.000000
     60 O2    c      -0.000315      0.000024     -0.000038      0.000000
     61 O2    c       0.000178     -0.000043      0.000116      0.000000
     62 O2    c      -0.000614     -0.000081     -0.000001      0.000000
     63 O2    c       0.000089      0.000168     -0.000115      0.000000
     64 O3    c      -0.000640     -0.000178     -0.001664      0.000000
     65 O2    c       0.000399      0.000219     -0.000100      0.000000
     66 O2    c      -0.000332     -0.000007     -0.000062      0.000000
     67 O2    c      -0.000714     -0.000289      0.000451      0.000000
     68 O2    c       0.000136     -0.000115      0.000363      0.000000
     69 O2    c       0.000005     -0.000190     -0.000161      0.000000
     70 O2    c       0.000862      0.000143     -0.000238      0.000000
     71 O2    c       0.002677     -0.000057     -0.000154      0.000000
     72 O2    c      -0.001172     -0.000056     -0.000341      0.000000
     73 O2    s      -0.003188     -0.001170     -0.000068      0.000000
     74 O3    s       0.001219      0.000647     -0.000066      0.000000
     75 O2    s       0.000287     -0.000073      0.000033      0.000000
     76 O2    s      -0.000199      0.000019      0.000079      0.000000
     77 O2    s       0.000351      0.000009      0.000131      0.000000
     78 O2    s      -0.000107     -0.000070      0.000167      0.000000
     79 O2    s      -0.001508      0.000484     -0.000453      0.000000
     80 O3    s       0.001501     -0.000900     -0.000705      0.000000
     81 O2    s      -0.000173     -0.000188     -0.000045      0.000000
     82 O2    s       0.000073     -0.000208     -0.000138      0.000000
     83 O2    s      -0.000103     -0.000421     -0.000103      0.000000
     84 O3    s      -0.002603     -0.000083      0.000606      0.000000
     85 O2    s       0.000676      0.000247      0.000133      0.000000
     86 O2    s      -0.000082      0.000104     -0.000072      0.000000
     87 O3    s      -0.000316     -0.000682     -0.000386      0.000000
     88 O2    s       0.000210     -0.000017      0.000112      0.000000
     89 O2    s       0.000317      0.000312     -0.000030      0.000000
     90 O2    s      -0.000693      0.000239      0.000228      0.000000
     91 O2    s       0.000810      0.000075     -0.000147      0.000000
     92 O2    s      -0.001700     -0.000400     -0.000671      0.000000
     93 O3    s       0.000568      0.000354     -0.000968      0.000000
     94 O2    s       0.000468     -0.000139     -0.000080      0.000000
     95 O3    s       0.001367      0.000190     -0.000264      0.000000
     96 O2    s      -0.000092     -0.000185      0.000061      0.000000
     97 O2    s      -0.003264      0.000835      0.002332      0.000000
     98 O1    s       0.000060      0.000960      0.000565      0.000000
     99 O2    s       0.000815      0.000000     -0.000286      0.000000
    100 O2    s      -0.000626      0.000039     -0.000284      0.000000
    101 O3    s       0.002213     -0.000710      0.001227      0.000000
    102 O3    s      -0.000110      0.000430      0.001101      0.000000
    103 O2    s       0.000014     -0.000114     -0.000185      0.000000
    104 O2    s       0.000207      0.000125     -0.000232      0.000000
    105 O2    s      -0.003544     -0.001005     -0.001611      0.000000
    106 O3    s       0.001572      0.000603     -0.000322      0.000000
    107 O2    s       0.000049     -0.000173      0.000128      0.000000
    108 O2    s       0.000099      0.000118      0.000103      0.000000
    109 O2    s      -0.000034     -0.000008      0.000121      0.000000
    110 O2    s      -0.000030     -0.000091      0.000131      0.000000
    111 O2    s      -0.001300      0.001338     -0.000939      0.000000
    112 O3    s       0.001887     -0.000996     -0.000689      0.000000
    113 O2    s      -0.000861     -0.000259      0.000589      0.000000
    114 O2    s       0.000667      0.000097      0.000455      0.000000
    115 O2    s       0.001846     -0.000213     -0.000358      0.000000
    116 O2    s      -0.002181      0.000614     -0.001382      0.000000
    117 O2    s      -0.000390     -0.000062      0.000439      0.000000
    118 O2    s      -0.000034      0.000111      0.000239      0.000000
    119 O2    s       0.000776     -0.000327     -0.000978      0.000000
    120 O2    s       0.000402      0.000295     -0.000853      0.000000
--------------------------------------------------------------------------------
  Maximum abs         0.008685      0.003934      0.003629      0.000000
--------------------------------------------------------------------------------


  Born effective charge tensors : 

-------------------------------------------------------------------------------
  Atom             x           y             z
-------------------------------------------------------------------------------
    1 Ge    x       4.2921     -0.2500     -0.0625
            y       0.2019      3.9052      0.0430
            z      -0.7322      0.1115      3.7239
-------------------------------------------------------------------------------
    2 Ge    x       4.0132      0.1753      0.1269
            y       0.2821      4.1944      0.2186
            z       0.2292      0.0004      3.4988
-------------------------------------------------------------------------------
    3 Ge    x       3.9838     -0.3485      0.1948
            y      -0.0924      4.1948     -0.2244
            z       0.1815     -0.0336      3.5015
-------------------------------------------------------------------------------
    4 Si    x       3.3880      0.1240     -0.2647
            y      -0.1459      3.2067     -0.0172
            z      -0.3631     -0.0369      3.8584
-------------------------------------------------------------------------------
    5 Si    x       3.8345      0.2402     -0.0559
            y      -0.1764      3.5947     -0.0493
            z       0.6615     -0.0333      4.1034
-------------------------------------------------------------------------------
    6 Si    x       3.4635     -0.1097     -0.1292
            y       0.1097      3.2414      0.0143
            z      -0.5111      0.0409      3.8029
-------------------------------------------------------------------------------
    7 Si    x       3.4798     -0.0822      0.3234
            y       0.0974      3.2492      0.0183
            z       0.2853     -0.0547      3.6980
-------------------------------------------------------------------------------
    8 Si    x       3.4372     -0.1688      0.2568
            y       0.1897      3.2459     -0.0082
            z       0.4382     -0.0616      3.1355
-------------------------------------------------------------------------------
    9 Si    x       3.7732      0.2126     -0.1769
            y      -0.1106      3.3077      0.0294
            z      -0.2767      0.0520      3.2787
-------------------------------------------------------------------------------
   10 Si    x       3.4870      0.1819      0.1836
            y      -0.1689      3.2512      0.0117
            z       0.5432      0.0481      3.0870
-------------------------------------------------------------------------------
   11 Si    x       3.5151      0.1079      0.0494
            y       0.2131      3.5226     -0.2027
            z      -0.0457     -0.1018      2.9152
-------------------------------------------------------------------------------
   12 Si    x       3.1990     -0.2257     -0.0592
            y      -0.2882      3.4425      0.1704
            z      -0.0992      0.0865      2.8087
-------------------------------------------------------------------------------
   13 Si    x       3.2082     -0.2241      0.0828
            y      -0.2783      3.4520     -0.2096
            z       0.1028     -0.0722      2.7809
-------------------------------------------------------------------------------
   14 Si    x       3.2013      0.3019     -0.1189
            y       0.1994      3.4652     -0.1446
            z      -0.1215     -0.0654      2.7956
-------------------------------------------------------------------------------
   15 Si    x       3.2330      0.2998      0.1236
            y       0.2052      3.4850      0.1768
            z       0.1432      0.0688      2.7723
-------------------------------------------------------------------------------
   16 Si    x       3.5679     -0.2678      0.0065
            y      -0.1304      3.5237      0.1776
            z      -0.0408      0.0934      2.9250
-------------------------------------------------------------------------------
   17 Si    x       3.3643      0.4811     -0.2748
            y       0.2248      3.6093     -0.3659
            z      -0.2072     -0.2004      2.8919
-------------------------------------------------------------------------------
   18 Si    x       3.1782      0.3321      0.1695
            y       0.1001      3.4517      0.1737
            z       0.1161      0.0942      2.7329
-------------------------------------------------------------------------------
   19 Si    x       3.3242     -0.3630     -0.1524
            y      -0.1048      3.5588      0.1139
            z      -0.1230     -0.0701      3.0111
-------------------------------------------------------------------------------
   20 Si    x       3.2415     -0.3636      0.1325
            y      -0.0824      3.4542     -0.1667
            z       0.1130     -0.0666      2.7262
-------------------------------------------------------------------------------
   21 Si    x       3.3810      0.3002     -0.0635
            y       0.2835      3.5246     -0.1243
            z      -0.1311      0.0540      3.0111
-------------------------------------------------------------------------------
   22 Si    x       3.2712      0.2777      0.0868
            y       0.2631      3.4273      0.1804
            z       0.1376      0.0621      2.7062
-------------------------------------------------------------------------------
   23 Si    x       3.5174     -0.3786     -0.2941
            y      -0.4087      3.4860      0.3179
            z      -0.3046      0.1360      2.8700
-------------------------------------------------------------------------------
   24 Si    x       3.2062     -0.2507      0.1458
            y      -0.2771      3.4012     -0.1647
            z       0.1732     -0.0585      2.7185
-------------------------------------------------------------------------------
   25 O2    x      -1.6325     -0.6894      0.3228
            y      -0.6297     -2.0091      0.3408
            z       0.3362      0.3339     -1.3615
-------------------------------------------------------------------------------
   26 O3    x      -1.9144     -0.8353     -0.3685
            y      -0.8097     -2.4069     -0.3688
            z      -0.5056     -0.3680     -1.5744
-------------------------------------------------------------------------------
   27 O2    x      -1.6543      0.7058      0.2984
            y       0.6831     -2.0069     -0.3170
            z       0.3635     -0.3219     -1.3474
-------------------------------------------------------------------------------
   28 O2    x      -1.6644      0.7069     -0.3707
            y       0.6691     -2.0010      0.3787
            z      -0.3520      0.3481     -1.3575
-------------------------------------------------------------------------------
   29 O2    x      -1.7537     -0.7219      0.2988
            y      -0.7688     -1.9529      0.3203
            z       0.3639      0.3140     -1.3393
-------------------------------------------------------------------------------
   30 O2    x      -1.7659     -0.7344     -0.3908
            y      -0.7676     -1.9713     -0.3978
            z      -0.3886     -0.3602     -1.3502
-------------------------------------------------------------------------------
   31 O2    x      -1.7650      0.7223      0.3335
            y       0.7492     -1.9450     -0.3420
            z       0.3551     -0.3357     -1.3556
-------------------------------------------------------------------------------
   32 O3    x      -2.2308      0.8708     -0.3486
            y       0.9267     -2.1172      0.3821
            z      -0.4052      0.3214     -1.5902
-------------------------------------------------------------------------------
   33 O2    x      -1.5856     -0.0035      0.8193
            y       0.0064     -1.0857      0.0006
            z       1.0186      0.0017     -2.8169
-------------------------------------------------------------------------------
   34 O2    x      -1.6667     -0.0371     -0.7467
            y      -0.0295     -1.0950     -0.0307
            z      -0.9540     -0.0293     -2.5996
-------------------------------------------------------------------------------
   35 O2    x      -1.6796     -0.0018     -0.6998
            y      -0.0274     -1.1123     -0.0023
            z      -0.6947      0.0192     -2.2310
-------------------------------------------------------------------------------
   36 O3    x      -1.9317     -0.0015      0.8737
            y      -0.0079     -1.2947      0.0823
            z       0.8353      0.0748     -2.8246
-------------------------------------------------------------------------------
   37 O2    x      -1.7360     -0.0208     -0.7553
            y       0.0026     -1.1187     -0.0162
            z      -0.7538     -0.0298     -2.2331
-------------------------------------------------------------------------------
   38 O2    x      -1.8143     -0.0068      0.6881
            y       0.0267     -1.1032     -0.0077
            z       0.6832      0.0104     -2.1199
-------------------------------------------------------------------------------
   39 O3    x      -2.1144     -0.9341      0.4136
            y      -0.9295     -2.2799      0.5021
            z       0.4736      0.4737     -1.5048
-------------------------------------------------------------------------------
   40 O2    x      -1.7413     -0.7038     -0.3572
            y      -0.6842     -1.9228     -0.3771
            z      -0.3507     -0.3523     -1.2598
-------------------------------------------------------------------------------
   41 O2    x      -1.7574      0.7097      0.4013
            y       0.6381     -1.9068     -0.3944
            z       0.3490     -0.3529     -1.2960
-------------------------------------------------------------------------------
   42 O2    x      -1.7741      0.7101     -0.3037
            y       0.6888     -1.9183      0.3486
            z      -0.3268      0.3176     -1.2392
-------------------------------------------------------------------------------
   43 O2    x      -1.6742     -0.6857      0.3870
            y      -0.5516     -2.0310      0.4207
            z       0.3706      0.3860     -1.2830
-------------------------------------------------------------------------------
   44 O2    x      -1.6572     -0.6979     -0.3170
            y      -0.5948     -2.0353     -0.3416
            z      -0.3585     -0.3341     -1.2248
-------------------------------------------------------------------------------
   45 O3    x      -2.0591      0.9272      0.4926
            y       0.8351     -2.3570     -0.4737
            z       0.5489     -0.4593     -1.4797
-------------------------------------------------------------------------------
   46 O2    x      -1.6320      0.6763     -0.3544
            y       0.5767     -2.0260      0.3732
            z      -0.3614      0.3547     -1.2431
-------------------------------------------------------------------------------
   47 O3    x      -2.2227     -0.0850     -0.8763
            y      -0.0779     -1.3392     -0.0479
            z      -0.5051     -0.0335     -2.0681
-------------------------------------------------------------------------------
   48 O2    x      -1.8100      0.0060      0.6091
            y       0.0112     -1.1865      0.0024
            z       0.3430      0.0159     -1.6912
-------------------------------------------------------------------------------
   49 O2    x      -1.1560     -0.0708      0.0501
            y      -0.1418     -2.5727     -0.0139
            z       0.0629     -0.0166     -1.0983
-------------------------------------------------------------------------------
   50 O1    x      -1.4478     -0.1125     -0.0972
            y      -0.1800     -3.3522     -0.0307
            z      -0.1218     -0.0267     -1.2783
-------------------------------------------------------------------------------
   51 O2    x      -1.1563      0.0494      0.0603
            y       0.0950     -2.5544     -0.0090
            z       0.0760      0.0070     -1.0700
-------------------------------------------------------------------------------
   52 O2    x      -1.1702      0.0517     -0.0563
            y       0.0987     -2.5927      0.0065
            z      -0.0687     -0.0138     -1.0492
-------------------------------------------------------------------------------
   53 O3    x      -3.0076      0.2773     -0.0961
            y       0.2173     -1.4062      0.1044
            z      -0.1156      0.0714     -1.2441
-------------------------------------------------------------------------------
   54 O3    x      -3.0603      0.1172     -0.1263
            y       0.0071     -1.3661     -0.0877
            z      -0.1544     -0.0449     -1.2590
-------------------------------------------------------------------------------
   55 O2    x      -2.3974     -0.0994      0.0130
            y      -0.0490     -1.2515     -0.0698
            z       0.0178     -0.0457     -1.0692
-------------------------------------------------------------------------------
   56 O2    x      -2.3959     -0.0905      0.0115
            y      -0.0413     -1.2506      0.0724
            z      -0.0102      0.0440     -1.0641
-------------------------------------------------------------------------------
   57 O2    x      -1.1943     -0.1153      0.0273
            y      -0.1107     -1.2837      0.0174
            z       0.0172      0.0078     -2.0919
-------------------------------------------------------------------------------
   58 O3    x      -1.3815     -0.1626     -0.0340
            y      -0.1502     -1.4431     -0.1176
            z      -0.0119     -0.0718     -2.6140
-------------------------------------------------------------------------------
   59 O2    x      -1.1920      0.1232     -0.0484
            y       0.1248     -1.2700     -0.0118
            z      -0.0571     -0.0260     -2.0691
-------------------------------------------------------------------------------
   60 O2    x      -1.2230      0.1386      0.0127
            y       0.1315     -1.2944      0.0207
            z       0.0337      0.0296     -2.0276
-------------------------------------------------------------------------------
   61 O2    x      -1.1671     -0.1282     -0.0282
            y      -0.0874     -1.2864      0.0151
            z       0.0010     -0.0094     -2.0599
-------------------------------------------------------------------------------
   62 O2    x      -1.1969     -0.1367     -0.0080
            y      -0.0914     -1.3109     -0.0226
            z      -0.0203     -0.0044     -2.0184
-------------------------------------------------------------------------------
   63 O2    x      -1.1783      0.1160      0.0429
            y       0.0604     -1.2963     -0.0190
            z       0.0315      0.0032     -2.1024
-------------------------------------------------------------------------------
   64 O3    x      -1.3356      0.1557     -0.0050
            y       0.0950     -1.4818      0.1907
            z      -0.0035      0.1445     -2.5914
-------------------------------------------------------------------------------
   65 O2    x      -1.2622      0.0697      0.0861
            y       0.1364     -2.4026      0.0061
            z       0.1060     -0.0039     -1.0333
-------------------------------------------------------------------------------
   66 O2    x      -1.2194      0.0674     -0.0876
            y       0.1463     -2.4867     -0.0115
            z      -0.1037      0.0010     -1.0218
-------------------------------------------------------------------------------
   67 O2    x      -1.2871     -0.0763      0.0504
            y      -0.1493     -2.5682     -0.0253
            z       0.0818     -0.0208     -0.9999
-------------------------------------------------------------------------------
   68 O2    x      -1.2418     -0.0651     -0.0727
            y      -0.1462     -2.5027     -0.0101
            z      -0.0955     -0.0063     -1.0163
-------------------------------------------------------------------------------
   69 O2    x      -2.3562     -0.0949     -0.0186
            y      -0.0547     -1.2430      0.0657
            z      -0.0013      0.0377     -1.0526
-------------------------------------------------------------------------------
   70 O2    x      -2.3945     -0.1304     -0.0097
            y      -0.0872     -1.2524     -0.0688
            z      -0.0040     -0.0388     -1.0530
-------------------------------------------------------------------------------
   71 O2    x      -2.4466      0.1253      0.0344
            y       0.0842     -1.2523     -0.0644
            z       0.0383     -0.0270     -1.0398
-------------------------------------------------------------------------------
   72 O2    x      -2.4552      0.1130      0.0196
            y       0.0518     -1.2517      0.0599
            z       0.0484      0.0221     -1.0389
-------------------------------------------------------------------------------




  Elastic Constant Matrix: (Units=GPa)

-------------------------------------------------------------------------------
  Indices      1         2         3         4         5         6    
-------------------------------------------------------------------------------
       1     50.9354   23.8556   26.7272    1.6135    0.7151    1.9326
       2     23.8556   70.3830   23.2972    1.9802   -1.3448    1.9815
       3     26.7272   23.2972   37.5054    0.7380    1.7107    1.4121
       4      1.6135    1.9802    0.7380   12.2298    0.5723    0.5819
       5      0.7151   -1.3448    1.7107    0.5723   24.7843    0.8119
       6      1.9326    1.9815    1.4121    0.5819    0.8119   26.9949
-------------------------------------------------------------------------------


  Elastic Compliance Matrix: (Units=1/GPa)

-------------------------------------------------------------------------------
  Indices      1         2         3         4         5         6    
-------------------------------------------------------------------------------
       1    0.032405 -0.004107 -0.020476 -0.002347  0.000339 -0.000907
       2   -0.004107  0.018562 -0.008622 -0.001997  0.001787 -0.000628
       3   -0.020476 -0.008622  0.046735  0.001437 -0.003127 -0.000283
       4   -0.002347 -0.001997  0.001437  0.082478 -0.001996 -0.001478
       5    0.000339  0.001787 -0.003127 -0.001996  0.040736 -0.001174
       6   -0.000907 -0.000628 -0.000283 -0.001478 -0.001174  0.037237
-------------------------------------------------------------------------------

  Mechanical properties :

-------------------------------------------------------------------------------
  Convention :                    Reuss         Voigt         Hill
-------------------------------------------------------------------------------
  Bulk  Modulus (GPa)     =      31.95768      34.06488      33.01128
  Shear Modulus (GPa)     =      14.92566      18.46470      16.69518
-------------------------------------------------------------------------------
  Velocity S-wave (km/s)  =       2.75916       3.06889       2.91813
  Velocity P-wave (km/s)  =       5.14304       5.47106       5.30958
-------------------------------------------------------------------------------
  Compressibility (1/GPa) =    0.03129139
-------------------------------------------------------------------------------
  Stress axis :                     x             y             z
-------------------------------------------------------------------------------
  Youngs Moduli (GPa)     =      30.85959      53.87342      21.39719
-------------------------------------------------------------------------------
  Poissons Ratio (x)      =                     0.22128       0.43813
  Poissons Ratio (y)      =       0.12676                     0.18448
  Poissons Ratio (z)      =       0.63188       0.46448
-------------------------------------------------------------------------------


  Piezoelectric Strain Matrix: (Units=C/m**2)

-------------------------------------------------------------------------------
  Indices      1         2         3         4         5         6    
-------------------------------------------------------------------------------
       x    -0.17787  -0.05969   0.06181  -0.18500   0.07104   0.11007
       y     0.78787   0.56202   0.09138  -0.10723  -0.32912   0.13500
       z     0.00091  -0.23880   0.09314   0.08383   0.29623   0.08870
-------------------------------------------------------------------------------


  Piezoelectric Stress Matrix: (Units=10**-11 C/N)

-------------------------------------------------------------------------------
  Indices      1         2         3         4         5         6    
-------------------------------------------------------------------------------
       x    -0.64257  -0.04829   0.65261  -1.49371   0.27737   0.44701
       y     2.13687   0.59493  -1.58707  -1.12275  -1.23649   0.44787
       z    -0.10734  -0.49330   0.55621   0.68003   1.10780   0.29542
-------------------------------------------------------------------------------


  Static dielectric constant tensor : 

-------------------------------------------------------------------------------
              x         y         z
-------------------------------------------------------------------------------
       x     3.97204   0.01140  -0.03515
       y     0.01140   4.09669   0.06654
       z    -0.03515   0.06654   3.17934
--------------------------------------------------------------------------------

  High frequency dielectric constant tensor : 

-------------------------------------------------------------------------------
              x         y         z
-------------------------------------------------------------------------------
       x     1.68139   0.00044   0.00112
       y     0.00044   1.68772   0.00034
       z     0.00112   0.00034   1.62146
-------------------------------------------------------------------------------

  Static refractive indices : 

-------------------------------------------------------------------------------
    1 =    1.78127      2 =    1.99325      3 =    2.02536
-------------------------------------------------------------------------------

  High frequency refractive indices : 

-------------------------------------------------------------------------------
    1 =    1.27336      2 =    1.29668      3 =    1.29914
-------------------------------------------------------------------------------


  Time to end of optimisation =       6.8088 seconds


  Peak dynamic memory used =       5.01 MB 


  Timing analysis for GULP :

--------------------------------------------------------------------------------
  Task / Subroutine                                          Time (Seconds)
--------------------------------------------------------------------------------
  Calculation of reciprocal space energy and derivatives          0.4341
  Calculation of real space energy and derivatives                4.1632
  Calculation of three-body energy and derivatives                0.4036
  Calculation and manipulation of Hessian matrix                  2.0490
  Calculation of matrix inversion                                 0.0258
--------------------------------------------------------------------------------
  Total CPU time                                                  6.8089
--------------------------------------------------------------------------------


  Dump file written as c00154.vasp.grs
  CIF file written as c00154.vasp.cif


  Job Finished at 11:53.31  7th October    2025                               

