********************************************************************************
*                       GENERAL UTILITY LATTICE PROGRAM                        *
*                                 Julian Gale                                  *
*                       Curtin Institute for Computation                       *
*                    School of Molecular and Life Sciences                     *
*                    Curtin University, Western Australia                      *
********************************************************************************
* Version = 6.1.2 * Last modified =   3rd November 2022                        *
********************************************************************************
*  optimise     - perform optimisation run                                     *
*  conp         - constant pressure calculation                                *
*  property     - calculate properties for final geometry                      *
********************************************************************************

  Job Started  at 11:46.38  7th October    2025                               

  Number of CPUs =     1


  Total number of configurations input =      1

********************************************************************************
*  Input for Configuration =   1 : c00116.vasp                                 *
********************************************************************************

  Formula = Ge3Si21O48                                                  

  Number of irreducible atoms/shells =     120


  Total number atoms/shells =     120

  Dimensionality = 3               :  Bulk   



  Cartesian lattice vectors (Angstroms) :

       17.182800    0.000000    0.000000
        0.000000    7.513760    0.000000
        0.000000    0.000000   10.447700

  Cell parameters (Angstroms/Degrees):

  a =      17.1828    alpha =  90.0000
  b =       7.5138    beta  =  90.0000
  c =      10.4477    gamma =  90.0000

  Initial cell volume =        1348.875752 Angs**3

  Temperature of configuration =   0.00     K 

  Pressure of configuration =         0.000 GPa 

  Fractional coordinates of asymmetric unit :

--------------------------------------------------------------------------------
   No.  Atomic       x           y          z         Charge      Occupancy
        Label      (Frac)      (Frac)     (Frac)        (e)         (Frac)  
--------------------------------------------------------------------------------
      1 Ge    c    0.052090    0.000000    0.372270     4.00000    1.000000    
      2 Ge    c    0.839340 *  0.705910 *  0.017440 *   4.00000    1.000000    
      3 Ge    c    0.160660 *  0.294090 *  0.982560 *   4.00000    1.000000    
      4 Si    c    0.447910 *  0.000000 *  0.372270 *   4.00000    1.000000    
      5 Si    c    0.947910 *  0.000000 *  0.627730 *   4.00000    1.000000    
      6 Si    c    0.552090 *  0.000000 *  0.627730 *   4.00000    1.000000    
      7 Si    c    0.556730 *  0.000000 *  0.122130 *   4.00000    1.000000    
      8 Si    c    0.943270 *  0.000000 *  0.122130 *   4.00000    1.000000    
      9 Si    c    0.443270 *  0.000000 *  0.877870 *   4.00000    1.000000    
     10 Si    c    0.056730 *  0.000000 *  0.877870 *   4.00000    1.000000    
     11 Si    c    0.160190 *  0.293910 *  0.273440 *   4.00000    1.000000    
     12 Si    c    0.339810 *  0.706090 *  0.273440 *   4.00000    1.000000    
     13 Si    c    0.839810 *  0.293910 *  0.726560 *   4.00000    1.000000    
     14 Si    c    0.660190 *  0.706090 *  0.726560 *   4.00000    1.000000    
     15 Si    c    0.839810 *  0.706090 *  0.726560 *   4.00000    1.000000    
     16 Si    c    0.660190 *  0.293910 *  0.726560 *   4.00000    1.000000    
     17 Si    c    0.160190 *  0.706090 *  0.273440 *   4.00000    1.000000    
     18 Si    c    0.339810 *  0.293910 *  0.273440 *   4.00000    1.000000    
     19 Si    c    0.660660 *  0.294090 *  0.017440 *   4.00000    1.000000    
     20 Si    c    0.339340 *  0.294090 *  0.982560 *   4.00000    1.000000    
     21 Si    c    0.160660 *  0.705910 *  0.982560 *   4.00000    1.000000    
     22 Si    c    0.339340 *  0.705910 *  0.982560 *   4.00000    1.000000    
     23 Si    c    0.660660 *  0.705910 *  0.017440 *   4.00000    1.000000    
     24 Si    c    0.839340 *  0.294090 *  0.017440 *   4.00000    1.000000    
     25 O3    c    0.106570 *  0.174340 *  0.366200 *   1.33043    1.000000    
     26 O2    c    0.393430 *  0.825660 *  0.366200 *   0.87073    1.000000    
     27 O2    c    0.893430 *  0.174340 *  0.633800 *   0.87073    1.000000    
     28 O2    c    0.606570 *  0.825660 *  0.633800 *   0.87073    1.000000    
     29 O2    c    0.893430 *  0.825660 *  0.633800 *   0.87073    1.000000    
     30 O2    c    0.606570 *  0.174340 *  0.633800 *   0.87073    1.000000    
     31 O3    c    0.106570 *  0.825660 *  0.366200 *   1.33043    1.000000    
     32 O2    c    0.393430 *  0.174340 *  0.366200 *   0.87073    1.000000    
     33 O3    c    0.000000 *  0.000000 *  0.500000 *   1.33043    1.000000    
     34 O2    c    0.500000 *  0.000000 *  0.500000 *   0.87073    1.000000    
     35 O3    c    0.994520 *  0.000000 *  0.250840 *   1.33043    1.000000    
     36 O2    c    0.505480 *  0.000000 *  0.250840 *   0.87073    1.000000    
     37 O2    c    0.005480 *  0.000000 *  0.749160 *   0.87073    1.000000    
     38 O2    c    0.494520 *  0.000000 *  0.749160 *   0.87073    1.000000    
     39 O2    c    0.610230 *  0.175520 *  0.115390 *   0.87073    1.000000    
     40 O3    c    0.889770 *  0.824480 *  0.115390 *   1.33043    1.000000    
     41 O2    c    0.389770 *  0.175520 *  0.884610 *   0.87073    1.000000    
     42 O2    c    0.110230 *  0.824480 *  0.884610 *   0.87073    1.000000    
     43 O2    c    0.389770 *  0.824480 *  0.884610 *   0.87073    1.000000    
     44 O3    c    0.110230 *  0.175520 *  0.884610 *   1.33043    1.000000    
     45 O2    c    0.610230 *  0.824480 *  0.115390 *   0.87073    1.000000    
     46 O2    c    0.889770 *  0.175520 *  0.115390 *   0.87073    1.000000    
     47 O2    c    0.500000 *  0.000000 *  0.000000 *   0.87073    1.000000    
     48 O2    c    0.000000 *  0.000000 *  0.000000 *   0.87073    1.000000    
     49 O2    c    0.151750 *  0.500000 *  0.313330 *   0.87073    1.000000    
     50 O2    c    0.348250 *  0.500000 *  0.313330 *   0.87073    1.000000    
     51 O2    c    0.848250 *  0.500000 *  0.686670 *   0.87073    1.000000    
     52 O2    c    0.651750 *  0.500000 *  0.686670 *   0.87073    1.000000    
     53 O2    c    0.250000 *  0.234950 *  0.285720 *   0.87073    1.000000    
     54 O2    c    0.250000 *  0.765050 *  0.285720 *   0.87073    1.000000    
     55 O2    c    0.750000 *  0.234950 *  0.714280 *   0.87073    1.000000    
     56 O2    c    0.750000 *  0.765050 *  0.714280 *   0.87073    1.000000    
     57 O3    c    0.131410 *  0.268650 *  0.127790 *   1.33043    1.000000    
     58 O2    c    0.368590 *  0.731350 *  0.127790 *   0.87073    1.000000    
     59 O2    c    0.868590 *  0.268650 *  0.872210 *   0.87073    1.000000    
     60 O2    c    0.631410 *  0.731350 *  0.872210 *   0.87073    1.000000    
     61 O3    c    0.868590 *  0.731350 *  0.872210 *   1.33043    1.000000    
     62 O2    c    0.631410 *  0.268650 *  0.872210 *   0.87073    1.000000    
     63 O2    c    0.131410 *  0.731350 *  0.127790 *   0.87073    1.000000    
     64 O2    c    0.368590 *  0.268650 *  0.127790 *   0.87073    1.000000    
     65 O2    c    0.653920 *  0.500000 *  0.058200 *   0.87073    1.000000    
     66 O3    c    0.846080 *  0.500000 *  0.058200 *   1.33043    1.000000    
     67 O2    c    0.346080 *  0.500000 *  0.941800 *   0.87073    1.000000    
     68 O3    c    0.153920 *  0.500000 *  0.941800 *   1.33043    1.000000    
     69 O2    c    0.750000 *  0.231060 *  0.027050 *   0.87073    1.000000    
     70 O3    c    0.750000 *  0.768940 *  0.027050 *   1.33043    1.000000    
     71 O3    c    0.250000 *  0.231060 *  0.972950 *   1.33043    1.000000    
     72 O2    c    0.250000 *  0.768940 *  0.972950 *   0.87073    1.000000    
     73 O3    s    0.106570 *  0.174340 *  0.366200 *  -3.33043    1.000000    
     74 O2    s    0.393430 *  0.825660 *  0.366200 *  -2.87073    1.000000    
     75 O2    s    0.893430 *  0.174340 *  0.633800 *  -2.87073    1.000000    
     76 O2    s    0.606570 *  0.825660 *  0.633800 *  -2.87073    1.000000    
     77 O2    s    0.893430 *  0.825660 *  0.633800 *  -2.87073    1.000000    
     78 O2    s    0.606570 *  0.174340 *  0.633800 *  -2.87073    1.000000    
     79 O3    s    0.106570 *  0.825660 *  0.366200 *  -3.33043    1.000000    
     80 O2    s    0.393430 *  0.174340 *  0.366200 *  -2.87073    1.000000    
     81 O3    s    0.000000 *  0.000000 *  0.500000 *  -3.33043    1.000000    
     82 O2    s    0.500000 *  0.000000 *  0.500000 *  -2.87073    1.000000    
     83 O3    s    0.994520 *  0.000000 *  0.250840 *  -3.33043    1.000000    
     84 O2    s    0.505480 *  0.000000 *  0.250840 *  -2.87073    1.000000    
     85 O2    s    0.005480 *  0.000000 *  0.749160 *  -2.87073    1.000000    
     86 O2    s    0.494520 *  0.000000 *  0.749160 *  -2.87073    1.000000    
     87 O2    s    0.610230 *  0.175520 *  0.115390 *  -2.87073    1.000000    
     88 O3    s    0.889770 *  0.824480 *  0.115390 *  -3.33043    1.000000    
     89 O2    s    0.389770 *  0.175520 *  0.884610 *  -2.87073    1.000000    
     90 O2    s    0.110230 *  0.824480 *  0.884610 *  -2.87073    1.000000    
     91 O2    s    0.389770 *  0.824480 *  0.884610 *  -2.87073    1.000000    
     92 O3    s    0.110230 *  0.175520 *  0.884610 *  -3.33043    1.000000    
     93 O2    s    0.610230 *  0.824480 *  0.115390 *  -2.87073    1.000000    
     94 O2    s    0.889770 *  0.175520 *  0.115390 *  -2.87073    1.000000    
     95 O2    s    0.500000 *  0.000000 *  0.000000 *  -2.87073    1.000000    
     96 O2    s    0.000000 *  0.000000 *  0.000000 *  -2.87073    1.000000    
     97 O2    s    0.151750 *  0.500000 *  0.313330 *  -2.87073    1.000000    
     98 O2    s    0.348250 *  0.500000 *  0.313330 *  -2.87073    1.000000    
     99 O2    s    0.848250 *  0.500000 *  0.686670 *  -2.87073    1.000000    
    100 O2    s    0.651750 *  0.500000 *  0.686670 *  -2.87073    1.000000    
    101 O2    s    0.250000 *  0.234950 *  0.285720 *  -2.87073    1.000000    
    102 O2    s    0.250000 *  0.765050 *  0.285720 *  -2.87073    1.000000    
    103 O2    s    0.750000 *  0.234950 *  0.714280 *  -2.87073    1.000000    
    104 O2    s    0.750000 *  0.765050 *  0.714280 *  -2.87073    1.000000    
    105 O3    s    0.131410 *  0.268650 *  0.127790 *  -3.33043    1.000000    
    106 O2    s    0.368590 *  0.731350 *  0.127790 *  -2.87073    1.000000    
    107 O2    s    0.868590 *  0.268650 *  0.872210 *  -2.87073    1.000000    
    108 O2    s    0.631410 *  0.731350 *  0.872210 *  -2.87073    1.000000    
    109 O3    s    0.868590 *  0.731350 *  0.872210 *  -3.33043    1.000000    
    110 O2    s    0.631410 *  0.268650 *  0.872210 *  -2.87073    1.000000    
    111 O2    s    0.131410 *  0.731350 *  0.127790 *  -2.87073    1.000000    
    112 O2    s    0.368590 *  0.268650 *  0.127790 *  -2.87073    1.000000    
    113 O2    s    0.653920 *  0.500000 *  0.058200 *  -2.87073    1.000000    
    114 O3    s    0.846080 *  0.500000 *  0.058200 *  -3.33043    1.000000    
    115 O2    s    0.346080 *  0.500000 *  0.941800 *  -2.87073    1.000000    
    116 O3    s    0.153920 *  0.500000 *  0.941800 *  -3.33043    1.000000    
    117 O2    s    0.750000 *  0.231060 *  0.027050 *  -2.87073    1.000000    
    118 O3    s    0.750000 *  0.768940 *  0.027050 *  -3.33043    1.000000    
    119 O3    s    0.250000 *  0.231060 *  0.972950 *  -3.33043    1.000000    
    120 O2    s    0.250000 *  0.768940 *  0.972950 *  -2.87073    1.000000    
--------------------------------------------------------------------------------



********************************************************************************
*  General input information                                                   *
********************************************************************************

  Species output for all configurations : 

--------------------------------------------------------------------------------
  Species    Type    Atomic    Atomic    Charge       Radii (Angs)     Library
                     Number     Mass       (e)     Cova   Ionic  VDW   Symbol
--------------------------------------------------------------------------------
    Ge       Core       32      72.61   4.000000   1.170  0.000  1.750 Ge       
    Si       Core       14      28.09   4.000000   1.200  0.000  2.100 Si       
    O1       Core        8      16.00   1.733957   0.730  0.000  0.000 O1       
    O2       Core        8      16.00   0.870733   0.730  0.000  1.360 O2       
    O3       Core        8      16.00   1.330431   0.730  0.000  1.360 O3       
    O1       Shell       8       0.00  -3.733957   0.730  0.000  0.000 O1       
    O2       Shell       8       0.00  -2.870733   0.730  0.000  0.000 O2       
    O3       Shell       8       0.00  -3.330431   0.730  0.000  0.000 O3       
--------------------------------------------------------------------------------


  Lattice summation method               =    Ewald          (3-D)
                                         =    Parry          (2-D)
                                         =    Saunders et al (1-D)
  Accuracy factor for lattice sums       =   12.000


  Analytic derivatives to be used

  Time limit = Infinity

  Maximum range for interatomic potentials =    100000.000000 Angstroms

  General interatomic potentials :

--------------------------------------------------------------------------------
Atom  Types   Potential      Parameter       Value         Units   Cutoffs(Ang)
  1     2                                                            Min /  Max 
--------------------------------------------------------------------------------
Si   c O1   s Buckingham    Buckingham A     1315.2478    eV        0.000 16.000
                            Buckingham rho  0.31775900    Ang       
                            Buckingham C     10.141118    eV*Ang^6  
--------------------------------------------------------------------------------
Si   c O2   s Buckingham    Buckingham A     1315.2478    eV        0.000 16.000
                            Buckingham rho  0.31775900    Ang       
                            Buckingham C     10.141118    eV*Ang^6  
--------------------------------------------------------------------------------
Si   c O3   s Buckingham    Buckingham A     1315.2478    eV        0.000 16.000
                            Buckingham rho  0.31775900    Ang       
                            Buckingham C     10.141118    eV*Ang^6  
--------------------------------------------------------------------------------
Ge   c O1   s Buckingham    Buckingham A     1497.3996    eV        0.000 16.000
                            Buckingham rho  0.32564600    Ang       
                            Buckingham C     16.808599    eV*Ang^6  
--------------------------------------------------------------------------------
Ge   c O2   s Buckingham    Buckingham A     1497.3996    eV        0.000 16.000
                            Buckingham rho  0.32564600    Ang       
                            Buckingham C     16.808599    eV*Ang^6  
--------------------------------------------------------------------------------
Ge   c O3   s Buckingham    Buckingham A     1497.3996    eV        0.000 16.000
                            Buckingham rho  0.32564600    Ang       
                            Buckingham C     16.808599    eV*Ang^6  
--------------------------------------------------------------------------------
O1   s O1   s Buckingham    Buckingham A     22764.000    eV        0.000 16.000
                            Buckingham rho  0.14900000    Ang       
                            Buckingham C     10.937044    eV*Ang^6  
--------------------------------------------------------------------------------
O1   s O2   s Buckingham    Buckingham A     22764.000    eV        0.000 16.000
                            Buckingham rho  0.14900000    Ang       
                            Buckingham C     10.937044    eV*Ang^6  
--------------------------------------------------------------------------------
O1   s O3   s Buckingham    Buckingham A     22764.000    eV        0.000 16.000
                            Buckingham rho  0.14900000    Ang       
                            Buckingham C     10.937044    eV*Ang^6  
--------------------------------------------------------------------------------
O2   s O2   s Buckingham    Buckingham A     22764.000    eV        0.000 16.000
                            Buckingham rho  0.14900000    Ang       
                            Buckingham C     10.937044    eV*Ang^6  
--------------------------------------------------------------------------------
O2   s O3   s Buckingham    Buckingham A     22764.000    eV        0.000 16.000
                            Buckingham rho  0.14900000    Ang       
                            Buckingham C     10.937044    eV*Ang^6  
--------------------------------------------------------------------------------
O3   s O3   s Buckingham    Buckingham A     22764.000    eV        0.000 16.000
                            Buckingham rho  0.14900000    Ang       
                            Buckingham C     10.937044    eV*Ang^6  
--------------------------------------------------------------------------------
O1   c O1   s Spring (c-s)  Spring k 2       180.31577    eV*Ang^-2 0.000  0.800
                            Spring k 4       0.0000000    eV*Ang^-4 
--------------------------------------------------------------------------------
O2   c O2   s Spring (c-s)  Spring k 2       75.969800    eV*Ang^-2 0.000  0.800
                            Spring k 4       0.0000000    eV*Ang^-4 
--------------------------------------------------------------------------------
O3   c O3   s Spring (c-s)  Spring k 2       128.14270    eV*Ang^-2 0.000  0.800
                            Spring k 4       0.0000000    eV*Ang^-4 
--------------------------------------------------------------------------------

  General Three-body potentials :

--------------------------------------------------------------------------------
  Atoms       Potential      Parameter       Value         Units   Cutoffs(Ang)
  1 / 2 / 3                                                          Min /  Max 
--------------------------------------------------------------------------------
Si    core    Harmonic      Three-body cnst  1.2614000    eV*rad^-2 0.000  1.900
O1    shel                  Three-body angl  109.47000    degrees   0.000  1.900
O1    shel                  Three-body k4    0.0000000    eV*rad^-4 0.000  3.500
                            Three-body k3    0.0000000    eV*rad^-3 
--------------------------------------------------------------------------------
Si    core    Harmonic      Three-body cnst  1.2614000    eV*rad^-2 0.000  1.900
O1    shel                  Three-body angl  109.47000    degrees   0.000  1.900
õ(1   shel                  Three-body k4    0.0000000    eV*rad^-4 0.000  3.500
                            Three-body k3    0.0000000    eV*rad^-3 
--------------------------------------------------------------------------------
Si    core    Harmonic      Three-body cnst  1.2614000    eV*rad^-2 0.000  1.900
õ(1   shel                  Three-body angl  109.47000    degrees   0.000  1.900
õ(1   shel                  Three-body k4    0.0000000    eV*rad^-4 0.000  3.500
                            Three-body k3    0.0000000    eV*rad^-3 
--------------------------------------------------------------------------------
Si    core    Harmonic      Three-body cnst  1.2614000    eV*rad^-2 0.000  1.900
O1    shel                  Three-body angl  109.47000    degrees   0.000  1.900
O2    shel                  Three-body k4    0.0000000    eV*rad^-4 0.000  3.500
                            Three-body k3    0.0000000    eV*rad^-3 
--------------------------------------------------------------------------------
Si    core    Harmonic      Three-body cnst  1.2614000    eV*rad^-2 0.000  1.900
O1    shel                  Three-body angl  109.47000    degrees   0.000  1.900
õ(2   shel                  Three-body k4    0.0000000    eV*rad^-4 0.000  3.500
                            Three-body k3    0.0000000    eV*rad^-3 
--------------------------------------------------------------------------------
Si    core    Harmonic      Three-body cnst  1.2614000    eV*rad^-2 0.000  1.900
O2    shel                  Three-body angl  109.47000    degrees   0.000  1.900
õ(1   shel                  Three-body k4    0.0000000    eV*rad^-4 0.000  3.500
                            Three-body k3    0.0000000    eV*rad^-3 
--------------------------------------------------------------------------------
Si    core    Harmonic      Three-body cnst  1.2614000    eV*rad^-2 0.000  1.900
õ(1   shel                  Three-body angl  109.47000    degrees   0.000  1.900
õ(2   shel                  Three-body k4    0.0000000    eV*rad^-4 0.000  3.500
                            Three-body k3    0.0000000    eV*rad^-3 
--------------------------------------------------------------------------------
Si    core    Harmonic      Three-body cnst  1.2614000    eV*rad^-2 0.000  1.900
O2    shel                  Three-body angl  109.47000    degrees   0.000  1.900
O2    shel                  Three-body k4    0.0000000    eV*rad^-4 0.000  3.500
                            Three-body k3    0.0000000    eV*rad^-3 
--------------------------------------------------------------------------------
Si    core    Harmonic      Three-body cnst  1.2614000    eV*rad^-2 0.000  1.900
O2    shel                  Three-body angl  109.47000    degrees   0.000  1.900
õ(2   shel                  Three-body k4    0.0000000    eV*rad^-4 0.000  3.500
                            Three-body k3    0.0000000    eV*rad^-3 
--------------------------------------------------------------------------------
Si    core    Harmonic      Three-body cnst  1.2614000    eV*rad^-2 0.000  1.900
õ(2   shel                  Three-body angl  109.47000    degrees   0.000  1.900
õ(2   shel                  Three-body k4    0.0000000    eV*rad^-4 0.000  3.500
                            Three-body k3    0.0000000    eV*rad^-3 
--------------------------------------------------------------------------------

********************************************************************************
*  Output for configuration   1 : c00116.vasp                                  *
********************************************************************************


  Components of energy : 

--------------------------------------------------------------------------------
  Interatomic potentials     =         760.33531477 eV    
  Three-body potentials      =           0.01337183 eV    
  Monopole - monopole (real) =       -2676.00317478 eV    
  Monopole - monopole (recip)=       -1115.35404472 eV    
  Monopole - monopole (total)=       -3791.35721950 eV    
--------------------------------------------------------------------------------
  Total lattice energy       =       -3031.00853291 eV    
--------------------------------------------------------------------------------
  Total lattice energy       =         -292445.9902 kJ/(mole unit cells)
--------------------------------------------------------------------------------


  Number of variables =      363

  Maximum number of calculations  =          1000
  Maximum Hessian update interval =            10
  Maximum step size               =   0.100000000
  Maximum parameter tolerance     =   0.000010000
  Maximum function  tolerance     =   0.000010000
  Maximum gradient  tolerance     =   0.001000000
  Maximum gradient  component     =   0.010000000

  Symmetry not applied to optimisation

  Cell parameters to be optimised using strains

  Newton-Raphson optimiser to be used

  BFGS hessian update to be used

  Lower half triangular hessian to be used

  Minimiser to switch to RFO
  When gradient norm is less than     0.050000

  Dumpfile to be written after every cycle

  Start of bulk optimisation :

  Cycle:      0 Energy:     -3031.008533  Gnorm:      4.405344  CPU:    0.112
  ** Hessian calculated **
  Cycle:      1 Energy:     -3061.927906  Gnorm:      0.974367  CPU:    0.243
  ** Hessian calculated **
  Cycle:      2 Energy:     -3064.487360  Gnorm:      0.689743  CPU:    0.460
  ** Hessian calculated **
  Cycle:      3 Energy:     -3065.728672  Gnorm:      0.390281  CPU:    0.660
  Cycle:      4 Energy:     -3066.146575  Gnorm:      0.258982  CPU:    0.763
  Cycle:      5 Energy:     -3066.512108  Gnorm:      0.201504  CPU:    0.887
  Cycle:      6 Energy:     -3066.847071  Gnorm:      0.157213  CPU:    1.009
  Cycle:      7 Energy:     -3067.049066  Gnorm:      0.125570  CPU:    1.113
  Cycle:      8 Energy:     -3067.168328  Gnorm:      0.093266  CPU:    1.217
  Cycle:      9 Energy:     -3067.230473  Gnorm:      0.065565  CPU:    1.320
  Cycle:     10 Energy:     -3067.263947  Gnorm:      0.052214  CPU:    1.439
  Cycle:     11 Energy:     -3067.289847  Gnorm:      0.050642  CPU:    1.550
  Cycle:     12 Energy:     -3067.321810  Gnorm:      0.057540  CPU:    1.661
  ** Hessian calculated **
  Cycle:     13 Energy:     -3067.332598  Gnorm:      0.048418  CPU:    1.864
  ** Hessian has required structure
  Cycle:     14 Energy:     -3067.347314  Gnorm:      0.062976  CPU:    2.033
  ** Hessian has required structure
  Cycle:     15 Energy:     -3067.368361  Gnorm:      0.055464  CPU:    2.200
  ** Hessian has required structure
  Cycle:     16 Energy:     -3067.386787  Gnorm:      0.072570  CPU:    2.350
  ** Hessian has required structure
  Cycle:     17 Energy:     -3067.397927  Gnorm:      0.086224  CPU:    2.486
  ** Hessian has required structure
  Cycle:     18 Energy:     -3067.429721  Gnorm:      0.104413  CPU:    2.655
  ** Hessian has required structure
  Cycle:     19 Energy:     -3067.438264  Gnorm:      0.100252  CPU:    2.791
  ** Hessian has required structure
  Cycle:     20 Energy:     -3067.445701  Gnorm:      0.121576  CPU:    2.929
  ** Hessian has required structure
  Cycle:     21 Energy:     -3067.462124  Gnorm:      0.082979  CPU:    3.070
  ** Hessian has required structure
  Cycle:     22 Energy:     -3067.467345  Gnorm:      0.079744  CPU:    3.213
  ** Hessian has wrong structure
  ** Imaginary eigenvectors =   3
  ** Hessian has wrong structure
  ** Imaginary eigenvectors =   2
  Cycle:     23 Energy:     -3067.505338  Gnorm:      0.084579  CPU:    3.776
  ** Hessian has wrong structure
  ** Imaginary eigenvectors =   1
  ** Hessian has required structure
  Cycle:     24 Energy:     -3067.846782  Gnorm:      0.055505  CPU:    4.293
  ** Hessian has required structure
  Cycle:     25 Energy:     -3068.020765  Gnorm:      0.033147  CPU:    4.471
  ** Hessian has required structure
  Cycle:     26 Energy:     -3068.080471  Gnorm:      0.034699  CPU:    4.639
  ** Hessian has required structure
  Cycle:     27 Energy:     -3068.124649  Gnorm:      0.025394  CPU:    4.822
  ** Hessian has required structure
  Cycle:     28 Energy:     -3068.155224  Gnorm:      0.025606  CPU:    5.021
  ** Hessian has required structure
  Cycle:     29 Energy:     -3068.176419  Gnorm:      0.035831  CPU:    5.209
  ** Hessian has required structure
  Cycle:     30 Energy:     -3068.211095  Gnorm:      0.041246  CPU:    5.379
  ** Hessian has required structure
  Cycle:     31 Energy:     -3068.243593  Gnorm:      0.032880  CPU:    5.552
  ** Hessian has required structure
  Cycle:     32 Energy:     -3068.261043  Gnorm:      0.032245  CPU:    5.724
  ** Hessian has required structure
  Cycle:     33 Energy:     -3068.275526  Gnorm:      0.021680  CPU:    5.890
  ** Hessian has required structure
  Cycle:     34 Energy:     -3068.287357  Gnorm:      0.019242  CPU:    6.163
  ** Hessian has required structure
  Cycle:     35 Energy:     -3068.300009  Gnorm:      0.011819  CPU:    6.328
  ** Hessian has required structure
  Cycle:     36 Energy:     -3068.305049  Gnorm:      0.007077  CPU:    6.494
  ** Hessian has required structure
  Cycle:     37 Energy:     -3068.305686  Gnorm:      0.009698  CPU:    6.641
  ** Hessian has required structure
  Cycle:     38 Energy:     -3068.306785  Gnorm:      0.006421  CPU:    6.807
  ** Hessian has required structure
  Cycle:     39 Energy:     -3068.307424  Gnorm:      0.005845  CPU:    6.994
  ** Hessian has required structure
  Cycle:     40 Energy:     -3068.308119  Gnorm:      0.005061  CPU:    7.181
  ** Hessian has required structure
  Cycle:     41 Energy:     -3068.308873  Gnorm:      0.003475  CPU:    7.369
  ** Hessian has required structure
  Cycle:     42 Energy:     -3068.309433  Gnorm:      0.003857  CPU:    7.557
  ** Hessian has required structure
  Cycle:     43 Energy:     -3068.309897  Gnorm:      0.001800  CPU:    7.724
  ** Hessian has required structure
  Cycle:     44 Energy:     -3068.310214  Gnorm:      0.001106  CPU:    7.999
  ** Hessian has required structure
  Cycle:     45 Energy:     -3068.310284  Gnorm:      0.000785  CPU:    8.166
  ** Hessian has required structure
  Cycle:     46 Energy:     -3068.310318  Gnorm:      0.000415  CPU:    8.351
  ** Hessian has required structure
  Cycle:     47 Energy:     -3068.310324  Gnorm:      0.000346  CPU:    8.500
  ** Hessian has required structure
  Cycle:     48 Energy:     -3068.310331  Gnorm:      0.000172  CPU:    8.707
  ** Hessian has required structure
  Cycle:     49 Energy:     -3068.310332  Gnorm:      0.000152  CPU:    8.856
  ** Hessian has required structure
  Cycle:     50 Energy:     -3068.310332  Gnorm:      0.000152  CPU:    9.040
  ** Hessian has required structure
  Cycle:     51 Energy:     -3068.310332  Gnorm:      0.000152  CPU:    9.189
  ** Hessian has required structure
  Cycle:     52 Energy:     -3068.310332  Gnorm:      0.000151  CPU:    9.336
  ** Hessian has required structure
  Cycle:     53 Energy:     -3068.310332  Gnorm:      0.000151  CPU:    9.485
  ** Hessian has required structure
  Cycle:     54 Energy:     -3068.310332  Gnorm:      0.000151  CPU:    9.785
  ** Hessian calculated **
  Cycle:     55 Energy:     -3068.310332  Gnorm:      0.000110  CPU:    9.975
  ** Hessian has required structure
  Cycle:     56 Energy:     -3068.310332  Gnorm:      0.000146  CPU:   10.132
  ** Hessian has required structure
  Cycle:     57 Energy:     -3068.310332  Gnorm:      0.000133  CPU:   10.292
  ** Hessian has required structure
  Cycle:     58 Energy:     -3068.310332  Gnorm:      0.000131  CPU:   10.451
  ** Hessian has required structure
  Cycle:     59 Energy:     -3068.310332  Gnorm:      0.000126  CPU:   10.608
  ** Hessian has required structure
  Cycle:     60 Energy:     -3068.310332  Gnorm:      0.000124  CPU:   10.766
  ** Hessian has required structure
  Cycle:     61 Energy:     -3068.310332  Gnorm:      0.000126  CPU:   10.922
  ** Hessian has required structure
  Cycle:     62 Energy:     -3068.310332  Gnorm:      0.000122  CPU:   11.079
  ** Hessian has required structure
  Cycle:     63 Energy:     -3068.310332  Gnorm:      0.000114  CPU:   11.234
  ** Hessian has required structure
  Cycle:     64 Energy:     -3068.310332  Gnorm:      0.000112  CPU:   11.390
  ** Hessian has required structure
  Cycle:     65 Energy:     -3068.310332  Gnorm:      0.000112  CPU:   11.678
  ** Hessian has required structure
  Cycle:     66 Energy:     -3068.310332  Gnorm:      0.000112  CPU:   11.832
  ** Hessian has required structure
  Cycle:     67 Energy:     -3068.310332  Gnorm:      0.000111  CPU:   11.987
  ** Hessian has required structure
  Cycle:     68 Energy:     -3068.310332  Gnorm:      0.000109  CPU:   12.142
  ** Hessian has required structure
  Cycle:     69 Energy:     -3068.310332  Gnorm:      0.000109  CPU:   12.296
  ** Hessian has required structure
  Cycle:     70 Energy:     -3068.310332  Gnorm:      0.000105  CPU:   12.537
  ** Hessian has required structure
  Cycle:     71 Energy:     -3068.310332  Gnorm:      0.000105  CPU:   12.809
  ** Hessian has required structure
  Cycle:     72 Energy:     -3068.310332  Gnorm:      0.000105  CPU:   12.957
  ** Hessian has required structure
  Cycle:     73 Energy:     -3068.310332  Gnorm:      0.000105  CPU:   13.101
  ** Hessian has required structure
  Cycle:     74 Energy:     -3068.310332  Gnorm:      0.000105  CPU:   13.245
  ** Hessian has required structure
  Cycle:     75 Energy:     -3068.310332  Gnorm:      0.000105  CPU:   13.389
  ** Hessian has required structure
  Cycle:     76 Energy:     -3068.310332  Gnorm:      0.000105  CPU:   13.630
  ** Hessian has required structure
  Cycle:     77 Energy:     -3068.310332  Gnorm:      0.000105  CPU:   13.864
  ** Hessian has required structure
  Cycle:     78 Energy:     -3068.310332  Gnorm:      0.000105  CPU:   13.988
  ** Hessian has required structure
  Cycle:     79 Energy:     -3068.310332  Gnorm:      0.000105  CPU:   14.115
  ** Hessian has required structure
  Cycle:     80 Energy:     -3068.310332  Gnorm:      0.000105  CPU:   14.243
  ** Hessian has required structure
  Cycle:     81 Energy:     -3068.310332  Gnorm:      0.000105  CPU:   14.370
  ** Hessian has required structure
  Cycle:     82 Energy:     -3068.310332  Gnorm:      0.000105  CPU:   14.582
  ** Hessian has required structure
  Cycle:     83 Energy:     -3068.310332  Gnorm:      0.000105  CPU:   14.887
  ** Hessian calculated **


  **** Too many failed attempts to optimise ****

  Final energy =   -3068.31033219 eV      
  Final Gnorm  =       0.00010466

  Components of energy : 

--------------------------------------------------------------------------------
  Interatomic potentials     =         816.64124447 eV    
  Three-body potentials      =           0.20434877 eV    
  Monopole - monopole (real) =       -2204.68302245 eV    
  Monopole - monopole (recip)=       -1680.47290299 eV    
  Monopole - monopole (total)=       -3885.15592544 eV    
--------------------------------------------------------------------------------
  Total lattice energy       =       -3068.31033219 eV    
--------------------------------------------------------------------------------
  Total lattice energy       =         -296045.0436 kJ/(mole unit cells)
--------------------------------------------------------------------------------

  Final fractional coordinates of atoms :

--------------------------------------------------------------------------------
   No.  Atomic        x           y          z          Radius
        Label       (Frac)      (Frac)     (Frac)       (Angs) 
--------------------------------------------------------------------------------
     1  Ge    c     0.052090    0.000000    0.372270    0.000000
     2  Ge    c     0.830075    0.696374    0.035565    0.000000
     3  Ge    c     0.144676    0.314609    0.981314    0.000000
     4  Si    c     0.450379    0.983538    0.375116    0.000000
     5  Si    c     0.941548    0.993240    0.622526    0.000000
     6  Si    c     0.545296    0.990095    0.640901    0.000000
     7  Si    c     0.552334    0.983491    0.127228    0.000000
     8  Si    c     0.942082    0.985260    0.115898    0.000000
     9  Si    c     0.436725    0.000142    0.889874    0.000000
    10  Si    c     0.046328    0.004539    0.872234    0.000000
    11  Si    c     0.158116    0.303114    0.293118    0.000000
    12  Si    c     0.346571    0.681405    0.282430    0.000000
    13  Si    c     0.837692    0.295428    0.722418    0.000000
    14  Si    c     0.652614    0.682013    0.718959    0.000000
    15  Si    c     0.830047    0.701342    0.721560    0.000000
    16  Si    c     0.658496    0.280768    0.718216    0.000000
    17  Si    c     0.167412    0.709376    0.292431    0.000000
    18  Si    c     0.335866    0.280818    0.276754    0.000000
    19  Si    c     0.660022    0.275418    0.025446    0.000000
    20  Si    c     0.326549    0.293277    0.966368    0.000000
    21  Si    c     0.158806    0.722607    0.987129    0.000000
    22  Si    c     0.339135    0.688769    0.976029    0.000000
    23  Si    c     0.649099    0.671634    0.029506    0.000000
    24  Si    c     0.840660    0.293428    0.028526    0.000000
    25  O3    c     0.103673    0.192373    0.388253    0.000000
    26  O2    c     0.405332    0.799506    0.366079    0.000000
    27  O2    c     0.894606    0.175608    0.637863    0.000000
    28  O2    c     0.592864    0.807611    0.640310    0.000000
    29  O2    c     0.884235    0.828299    0.636425    0.000000
    30  O2    c     0.605968    0.150539    0.632690    0.000000
    31  O3    c     0.117848    0.828017    0.387621    0.000000
    32  O2    c     0.390919    0.143633    0.352180    0.000000
    33  O3    c     0.976339    0.988023    0.478787    0.000000
    34  O2    c     0.486397    0.999082    0.519423    0.000000
    35  O3    c     0.011174    0.989323    0.217569    0.000000
    36  O2    c     0.521067    0.991155    0.274170    0.000000
    37  O2    c     0.014607    0.981300    0.723828    0.000000
    38  O2    c     0.495148    0.007074    0.770951    0.000000
    39  O2    c     0.618200    0.130894    0.113770    0.000000
    40  O3    c     0.883148    0.827096    0.138378    0.000000
    41  O2    c     0.375680    0.160092    0.878681    0.000000
    42  O2    c     0.118341    0.871805    0.897576    0.000000
    43  O2    c     0.391037    0.816107    0.887078    0.000000
    44  O3    c     0.076897    0.200337    0.891435    0.000000
    45  O2    c     0.587003    0.790780    0.103229    0.000000
    46  O2    c     0.892570    0.165411    0.119230    0.000000
    47  O2    c     0.482852    0.024920    0.026084    0.000000
    48  O2    c     0.977178    0.956587    0.970457    0.000000
    49  O2    c     0.140631    0.508780    0.308263    0.000000
    50  O2    c     0.366120    0.476761    0.306506    0.000000
    51  O2    c     0.857516    0.500178    0.701189    0.000000
    52  O2    c     0.631358    0.480353    0.689740    0.000000
    53  O2    c     0.248286    0.261005    0.328841    0.000000
    54  O2    c     0.258930    0.723576    0.326496    0.000000
    55  O2    c     0.748651    0.258645    0.679473    0.000000
    56  O2    c     0.740362    0.721079    0.672838    0.000000
    57  O3    c     0.139898    0.247906    0.143529    0.000000
    58  O2    c     0.356745    0.729664    0.128806    0.000000
    59  O2    c     0.850913    0.244515    0.875236    0.000000
    60  O2    c     0.647427    0.718390    0.874261    0.000000
    61  O3    c     0.835900    0.756531    0.872184    0.000000
    62  O2    c     0.649019    0.230566    0.871808    0.000000
    63  O2    c     0.152530    0.772502    0.141227    0.000000
    64  O2    c     0.334153    0.244302    0.121171    0.000000
    65  O2    c     0.625606    0.468584    0.052777    0.000000
    66  O3    c     0.867536    0.487865    0.055076    0.000000
    67  O2    c     0.360119    0.488656    0.942464    0.000000
    68  O3    c     0.121311    0.534606    0.964314    0.000000
    69  O2    c     0.750470    0.272438    0.065512    0.000000
    70  O3    c     0.734674    0.705276    0.084649    0.000000
    71  O3    c     0.237451    0.282666    0.923248    0.000000
    72  O2    c     0.248515    0.719442    0.944720    0.000000
    73  O3    s     0.105013    0.188149    0.377449    0.000000
    74  O2    s     0.403606    0.806140    0.357677    0.000000
    75  O2    s     0.893239    0.169679    0.645662    0.000000
    76  O2    s     0.594408    0.813224    0.649101    0.000000
    77  O2    s     0.884418    0.832065    0.644384    0.000000
    78  O2    s     0.605363    0.147936    0.643065    0.000000
    79  O3    s     0.117747    0.829357    0.376613    0.000000
    80  O2    s     0.391176    0.141616    0.345992    0.000000
    81  O3    s     0.979285    0.989633    0.484744    0.000000
    82  O2    s     0.489123    0.996196    0.516843    0.000000
    83  O3    s     0.006853    0.989788    0.219344    0.000000
    84  O2    s     0.516765    0.989425    0.268619    0.000000
    85  O2    s     0.010363    0.985106    0.729180    0.000000
    86  O2    s     0.493974    0.004278    0.770186    0.000000
    87  O2    s     0.615769    0.131174    0.105129    0.000000
    88  O3    s     0.884579    0.831849    0.127537    0.000000
    89  O2    s     0.376867    0.157413    0.889526    0.000000
    90  O2    s     0.115142    0.869465    0.904844    0.000000
    91  O2    s     0.390174    0.821628    0.897217    0.000000
    92  O3    s     0.079462    0.190404    0.896964    0.000000
    93  O2    s     0.590191    0.798411    0.097537    0.000000
    94  O2    s     0.892021    0.160784    0.108790    0.000000
    95  O2    s     0.485581    0.017502    0.022369    0.000000
    96  O2    s     0.981039    0.964608    0.974772    0.000000
    97  O2    s     0.145420    0.508097    0.304933    0.000000
    98  O2    s     0.360829    0.478016    0.300783    0.000000
    99  O2    s     0.852544    0.499345    0.705551    0.000000
   100  O2    s     0.636528    0.480554    0.695885    0.000000
   101  O2    s     0.248249    0.267544    0.319570    0.000000
   102  O2    s     0.258555    0.717508    0.318143    0.000000
   103  O2    s     0.748518    0.264973    0.688154    0.000000
   104  O2    s     0.740414    0.714834    0.682737    0.000000
   105  O3    s     0.142012    0.258536    0.144770    0.000000
   106  O2    s     0.353789    0.720239    0.128900    0.000000
   107  O2    s     0.848421    0.255007    0.874893    0.000000
   108  O2    s     0.648166    0.709493    0.874010    0.000000
   109  O3    s     0.834816    0.746004    0.870359    0.000000
   110  O2    s     0.651207    0.240649    0.871955    0.000000
   111  O2    s     0.154706    0.760980    0.140867    0.000000
   112  O2    s     0.333525    0.253427    0.121671    0.000000
   113  O2    s     0.631663    0.469300    0.047448    0.000000
   114  O3    s     0.861684    0.484488    0.050715    0.000000
   115  O2    s     0.354371    0.489824    0.948580    0.000000
   116  O3    s     0.126899    0.536059    0.967920    0.000000
   117  O2    s     0.750246    0.275117    0.057053    0.000000
   118  O3    s     0.733745    0.701137    0.075026    0.000000
   119  O3    s     0.239003    0.286322    0.932329    0.000000
   120  O2    s     0.248787    0.716316    0.952822    0.000000
--------------------------------------------------------------------------------

  Final Cartesian lattice vectors (Angstroms) :

       17.206678    0.042027   -0.110046
        0.018324    7.637359    0.040218
       -0.067214    0.059104   10.151445


  Final cell parameters and derivatives :

--------------------------------------------------------------------------------
       a           17.207081 Angstrom     dE/de1(xx)     0.006343 eV/strain
       b            7.637487 Angstrom     dE/de2(yy)     0.004814 eV/strain
       c           10.151839 Angstrom     dE/de3(zz)     0.009419 eV/strain
       alpha       89.365627 Degrees      dE/de4(yz)    -0.000172 eV/strain
       beta        90.744957 Degrees      dE/de5(xz)     0.001098 eV/strain
       gamma       89.724528 Degrees      dE/de6(xy)     0.000159 eV/strain
--------------------------------------------------------------------------------

  Primitive cell volume =          1333.932200 Angs**3

  Density of cell =      1.961559 g/cm**3

  Non-primitive cell volume =          1333.932200 Angs**3


  Final internal derivatives :

--------------------------------------------------------------------------------
   No.  Atomic          a             b             c           Radius
        Label          (eV)          (eV)          (eV)        (eV/Angs)
--------------------------------------------------------------------------------
      1 Ge    c       0.000000      0.000000      0.000000      0.000000
      2 Ge    c      -0.000246     -0.001373     -0.000864      0.000000
      3 Ge    c      -0.001149      0.000269     -0.001877      0.000000
      4 Si    c      -0.000533     -0.000367      0.000139      0.000000
      5 Si    c      -0.002170      0.001090     -0.000852      0.000000
      6 Si    c       0.003238     -0.000166      0.000159      0.000000
      7 Si    c      -0.000206     -0.001006     -0.000596      0.000000
      8 Si    c       0.002370      0.001822     -0.005992      0.000000
      9 Si    c      -0.004459     -0.000456      0.001676      0.000000
     10 Si    c      -0.001961     -0.001375      0.006754      0.000000
     11 Si    c       0.001903      0.000038      0.002130      0.000000
     12 Si    c       0.000143     -0.000204      0.001400      0.000000
     13 Si    c       0.001526     -0.000145     -0.001168      0.000000
     14 Si    c       0.000667      0.000823     -0.002189      0.000000
     15 Si    c      -0.001180      0.000043      0.002495      0.000000
     16 Si    c      -0.000392     -0.000855     -0.003588      0.000000
     17 Si    c       0.002839     -0.000480      0.001882      0.000000
     18 Si    c      -0.001186      0.000617      0.001719      0.000000
     19 Si    c       0.001528     -0.000594      0.002833      0.000000
     20 Si    c      -0.001645      0.000216     -0.002220      0.000000
     21 Si    c      -0.000372      0.000144     -0.003278      0.000000
     22 Si    c      -0.000570      0.000160     -0.001873      0.000000
     23 Si    c      -0.001204      0.001559      0.002166      0.000000
     24 Si    c       0.002133     -0.001150      0.001471      0.000000
     25 O3    c       0.003642     -0.000422     -0.000120      0.000000
     26 O2    c      -0.000597      0.000242     -0.000304      0.000000
     27 O2    c      -0.000916      0.000164      0.000684      0.000000
     28 O2    c       0.000797     -0.000835     -0.001058      0.000000
     29 O2    c      -0.001720     -0.001841      0.000403      0.000000
     30 O2    c       0.000836      0.001705     -0.000167      0.000000
     31 O3    c       0.003584      0.000150      0.000079      0.000000
     32 O2    c      -0.000739      0.000276     -0.000071      0.000000
     33 O3    c       0.002680     -0.000021     -0.003733      0.000000
     34 O2    c      -0.001940      0.000009     -0.001255      0.000000
     35 O3    c       0.010195      0.002125      0.009079      0.000000
     36 O2    c      -0.000042      0.000382      0.002035      0.000000
     37 O2    c       0.002422     -0.000193     -0.000006      0.000000
     38 O2    c       0.001863      0.000330     -0.001344      0.000000
     39 O2    c       0.002311      0.001838     -0.000619      0.000000
     40 O3    c      -0.003423     -0.008664      0.007425      0.000000
     41 O2    c       0.000104      0.000098      0.000248      0.000000
     42 O2    c      -0.001348      0.002296     -0.001277      0.000000
     43 O2    c       0.000887      0.000441      0.000380      0.000000
     44 O3    c      -0.002410     -0.000630      0.000146      0.000000
     45 O2    c       0.001879     -0.001630     -0.000411      0.000000
     46 O2    c      -0.005420      0.001748      0.002787      0.000000
     47 O2    c      -0.000106      0.000985      0.000512      0.000000
     48 O2    c      -0.001465     -0.000806     -0.001779      0.000000
     49 O2    c       0.001087      0.000787     -0.000017      0.000000
     50 O2    c      -0.000903     -0.000461     -0.000710      0.000000
     51 O2    c       0.000413     -0.000154      0.000724      0.000000
     52 O2    c      -0.000581     -0.000431     -0.000574      0.000000
     53 O2    c       0.000675     -0.000186     -0.000368      0.000000
     54 O2    c      -0.001517      0.000041      0.000015      0.000000
     55 O2    c      -0.001944     -0.000019     -0.001291      0.000000
     56 O2    c       0.000733     -0.000252     -0.000968      0.000000
     57 O3    c       0.000062     -0.000896      0.000362      0.000000
     58 O2    c      -0.000435      0.000395     -0.000049      0.000000
     59 O2    c      -0.001337     -0.000251      0.001199      0.000000
     60 O2    c      -0.000245      0.000212      0.000660      0.000000
     61 O3    c      -0.003704     -0.000493     -0.001513      0.000000
     62 O2    c      -0.001136     -0.000601     -0.000210      0.000000
     63 O2    c       0.000873      0.000759      0.001025      0.000000
     64 O2    c      -0.000887     -0.000545     -0.000016      0.000000
     65 O2    c      -0.001000     -0.001582      0.001064      0.000000
     66 O3    c      -0.003611      0.005191     -0.001768      0.000000
     67 O2    c      -0.000310     -0.000622      0.000899      0.000000
     68 O3    c       0.000529      0.000677      0.000892      0.000000
     69 O2    c      -0.002770      0.001150      0.000802      0.000000
     70 O3    c       0.000432     -0.000500      0.002577      0.000000
     71 O3    c       0.005102      0.000243      0.001449      0.000000
     72 O2    c       0.000615     -0.000015      0.000685      0.000000
     73 O3    s      -0.006384     -0.000001      0.001395      0.000000
     74 O2    s       0.001662      0.000129      0.000651      0.000000
     75 O2    s       0.000398      0.000603      0.000253      0.000000
     76 O2    s      -0.001328      0.000937      0.000760      0.000000
     77 O2    s       0.000046      0.000168     -0.000267      0.000000
     78 O2    s       0.000185     -0.000730     -0.000228      0.000000
     79 O3    s      -0.006423      0.000029      0.001212      0.000000
     80 O2    s       0.001140     -0.000469      0.000563      0.000000
     81 O3    s       0.000620      0.000145      0.000718      0.000000
     82 O2    s      -0.000700     -0.000190      0.000162      0.000000
     83 O3    s       0.003353      0.000801     -0.005113      0.000000
     84 O2    s      -0.001597     -0.000629     -0.000042      0.000000
     85 O2    s       0.001562      0.000530     -0.001436      0.000000
     86 O2    s      -0.000976     -0.000526      0.001151      0.000000
     87 O2    s      -0.000045     -0.001086      0.000210      0.000000
     88 O3    s      -0.003133      0.000068     -0.004173      0.000000
     89 O2    s       0.000839     -0.000559     -0.001110      0.000000
     90 O2    s      -0.002642     -0.000962     -0.000256      0.000000
     91 O2    s       0.000826      0.000293     -0.000970      0.000000
     92 O3    s       0.001811      0.000292     -0.001652      0.000000
     93 O2    s      -0.001460      0.000521     -0.000271      0.000000
     94 O2    s      -0.000851      0.001042     -0.002513      0.000000
     95 O2    s      -0.001339     -0.000017     -0.000908      0.000000
     96 O2    s       0.006497      0.002465     -0.001868      0.000000
     97 O2    s      -0.002581     -0.000404     -0.000013      0.000000
     98 O2    s       0.001443      0.000136      0.001182      0.000000
     99 O2    s       0.001441     -0.000149     -0.000816      0.000000
    100 O2    s      -0.001265      0.000017      0.000660      0.000000
    101 O2    s       0.000499      0.000297      0.000677      0.000000
    102 O2    s       0.000193     -0.000097      0.000783      0.000000
    103 O2    s       0.000846     -0.000216      0.000241      0.000000
    104 O2    s       0.000014      0.000040     -0.000497      0.000000
    105 O3    s      -0.001052      0.000365      0.000710      0.000000
    106 O2    s       0.001612      0.000055      0.000638      0.000000
    107 O2    s       0.001554     -0.000296      0.000199      0.000000
    108 O2    s      -0.001869      0.000054     -0.000324      0.000000
    109 O3    s       0.003347      0.001348      0.002111      0.000000
    110 O2    s      -0.000812     -0.000488     -0.000068      0.000000
    111 O2    s      -0.002068     -0.000218      0.000944      0.000000
    112 O2    s       0.001627     -0.000067      0.000507      0.000000
    113 O2    s      -0.003822      0.000597     -0.001293      0.000000
    114 O3    s       0.005512     -0.003272     -0.000722      0.000000
    115 O2    s       0.001201      0.000352     -0.001558      0.000000
    116 O3    s      -0.001036     -0.000709     -0.001282      0.000000
    117 O2    s       0.001527     -0.000060     -0.000780      0.000000
    118 O3    s       0.001947      0.001386     -0.001528      0.000000
    119 O3    s      -0.002574     -0.000103     -0.002651      0.000000
    120 O2    s       0.000376     -0.000403     -0.001421      0.000000
--------------------------------------------------------------------------------
  Maximum abs         0.010195      0.008664      0.009079      0.000000
--------------------------------------------------------------------------------


  Born effective charge tensors : 

-------------------------------------------------------------------------------
  Atom             x           y             z
-------------------------------------------------------------------------------
    1 Ge    x       4.2987      0.0848      0.0003
            y      -0.0698      3.8748      0.0198
            z      -0.9431     -0.0133      4.3829
-------------------------------------------------------------------------------
    2 Ge    x       4.0047      0.3905      0.1687
            y       0.1721      4.1413      0.2800
            z       0.1967      0.0521      3.3276
-------------------------------------------------------------------------------
    3 Ge    x       4.0743      0.3277      0.1467
            y       0.3500      4.1854      0.2821
            z       0.2621      0.0378      3.3290
-------------------------------------------------------------------------------
    4 Si    x       3.4043      0.0828      0.3223
            y      -0.0825      3.2617     -0.0146
            z       0.2948      0.0841      3.8334
-------------------------------------------------------------------------------
    5 Si    x       3.5866     -0.0631     -0.5139
            y       0.0610      3.3006      0.0322
            z      -0.4684      0.0605      4.2022
-------------------------------------------------------------------------------
    6 Si    x       3.4524     -0.0792      0.0551
            y       0.0714      3.2555      0.0050
            z       0.5838      0.0151      3.7489
-------------------------------------------------------------------------------
    7 Si    x       3.4461     -0.1154     -0.3311
            y       0.1641      3.2533      0.0245
            z      -0.3822      0.0036      3.1409
-------------------------------------------------------------------------------
    8 Si    x       4.0147      0.1251      0.1783
            y       0.2336      3.4488     -0.0728
            z       0.8457      0.0330      3.2199
-------------------------------------------------------------------------------
    9 Si    x       3.4832      0.1084     -0.0948
            y      -0.0820      3.2457     -0.0222
            z      -0.6040     -0.0093      3.0416
-------------------------------------------------------------------------------
   10 Si    x       3.6071      0.3344      0.4070
            y      -0.0812      3.5235      0.0293
            z       0.4112      0.1032      3.1762
-------------------------------------------------------------------------------
   11 Si    x       3.4684      0.4023     -0.1881
            y       0.3951      3.6105     -0.2821
            z      -0.2192     -0.0892      3.2714
-------------------------------------------------------------------------------
   12 Si    x       3.1781      0.2354      0.0571
            y       0.2780      3.4378      0.1788
            z       0.1012      0.0727      2.8219
-------------------------------------------------------------------------------
   13 Si    x       3.2289     -0.2554     -0.0560
            y      -0.2618      3.4320      0.1867
            z      -0.1094      0.0522      2.7853
-------------------------------------------------------------------------------
   14 Si    x       3.1803     -0.2688      0.0396
            y      -0.2698      3.4579     -0.1606
            z       0.1409     -0.0777      2.7984
-------------------------------------------------------------------------------
   15 Si    x       3.2800      0.3197     -0.0499
            y       0.2256      3.5659     -0.0899
            z      -0.1354      0.0353      3.0870
-------------------------------------------------------------------------------
   16 Si    x       3.2096      0.3088      0.0959
            y       0.2045      3.4524      0.1603
            z       0.1069      0.0558      2.8025
-------------------------------------------------------------------------------
   17 Si    x       3.4029     -0.4460     -0.2715
            y      -0.3207      3.5558      0.3626
            z      -0.2479      0.1576      2.9933
-------------------------------------------------------------------------------
   18 Si    x       3.1646     -0.3092      0.0505
            y      -0.2075      3.4870     -0.1354
            z       0.1455     -0.0883      2.8152
-------------------------------------------------------------------------------
   19 Si    x       3.1939      0.3560     -0.1613
            y       0.1047      3.4207     -0.1777
            z      -0.1274     -0.0793      2.7586
-------------------------------------------------------------------------------
   20 Si    x       3.6026     -0.3128     -0.0411
            y      -0.1199      3.5032      0.2085
            z      -0.0674      0.0840      2.8185
-------------------------------------------------------------------------------
   21 Si    x       3.3571     -0.2655      0.1865
            y       0.0558      3.7400     -0.1468
            z       0.1593     -0.0222      2.8062
-------------------------------------------------------------------------------
   22 Si    x       3.2524      0.2917     -0.1489
            y       0.2182      3.3853     -0.1658
            z      -0.1263     -0.0585      2.7360
-------------------------------------------------------------------------------
   23 Si    x       3.5688     -0.2182      0.0125
            y      -0.2163      3.4979      0.2033
            z      -0.1345      0.0917      2.8251
-------------------------------------------------------------------------------
   24 Si    x       3.3450     -0.2027      0.1543
            y      -0.0690      3.6854     -0.0982
            z       0.1676      0.0288      2.7736
-------------------------------------------------------------------------------
   25 O3    x      -2.0259     -0.9435      0.4323
            y      -0.8997     -2.3188      0.4393
            z       0.5528      0.4400     -1.6205
-------------------------------------------------------------------------------
   26 O2    x      -1.6568     -0.7130     -0.3405
            y      -0.6849     -2.0053     -0.3411
            z      -0.3477     -0.3436     -1.3602
-------------------------------------------------------------------------------
   27 O2    x      -1.6759      0.7143      0.3458
            y       0.6768     -2.0018     -0.3580
            z       0.3504     -0.3472     -1.3651
-------------------------------------------------------------------------------
   28 O2    x      -1.6766      0.7356     -0.2617
            y       0.7164     -2.0267      0.2915
            z      -0.3561      0.2934     -1.3125
-------------------------------------------------------------------------------
   29 O2    x      -1.7353     -0.7297      0.3251
            y      -0.7347     -1.9883      0.3206
            z       0.3528      0.3207     -1.3348
-------------------------------------------------------------------------------
   30 O2    x      -1.7326     -0.7308     -0.2635
            y      -0.7493     -1.9577     -0.2962
            z      -0.3462     -0.2983     -1.3398
-------------------------------------------------------------------------------
   31 O3    x      -2.0782      0.9491      0.4377
            y       0.9592     -2.2764     -0.4927
            z       0.5483     -0.4665     -1.6507
-------------------------------------------------------------------------------
   32 O2    x      -1.7383      0.7483     -0.3536
            y       0.7707     -2.0060      0.3723
            z      -0.3681      0.3517     -1.3333
-------------------------------------------------------------------------------
   33 O3    x      -2.0764     -0.0135      1.0828
            y      -0.0160     -1.1991     -0.0017
            z       1.4158      0.0068     -3.3162
-------------------------------------------------------------------------------
   34 O2    x      -1.6109     -0.0167     -0.8054
            y      -0.0061     -1.0913     -0.0187
            z      -1.0015     -0.0501     -2.7527
-------------------------------------------------------------------------------
   35 O3    x      -2.2153     -0.0207     -1.0035
            y       0.0016     -1.2359     -0.0188
            z      -0.9999     -0.0504     -2.6100
-------------------------------------------------------------------------------
   36 O2    x      -1.6994      0.0097      0.6782
            y      -0.0114     -1.1056     -0.0129
            z       0.6607     -0.0215     -2.2157
-------------------------------------------------------------------------------
   37 O2    x      -1.7594     -0.0263     -0.6521
            y       0.0159     -1.1172     -0.0316
            z      -0.6072     -0.0402     -2.1708
-------------------------------------------------------------------------------
   38 O2    x      -1.7687      0.0093      0.7485
            y       0.0071     -1.1180     -0.0195
            z       0.7675     -0.0299     -2.1957
-------------------------------------------------------------------------------
   39 O2    x      -1.7303     -0.7261      0.3728
            y      -0.6792     -1.9405      0.3827
            z       0.3450      0.3642     -1.2651
-------------------------------------------------------------------------------
   40 O3    x      -2.1050     -0.9532     -0.2480
            y      -0.9475     -2.3468     -0.2944
            z      -0.3358     -0.2580     -1.4072
-------------------------------------------------------------------------------
   41 O2    x      -1.7170      0.7093      0.2566
            y       0.6857     -1.9531     -0.3051
            z       0.3128     -0.2903     -1.2442
-------------------------------------------------------------------------------
   42 O2    x      -1.8361      0.6678     -0.4353
            y       0.6587     -1.8435      0.4161
            z      -0.3731      0.3403     -1.2975
-------------------------------------------------------------------------------
   43 O2    x      -1.6558     -0.7181      0.2943
            y      -0.6346     -2.0069      0.3282
            z       0.3464      0.3215     -1.2387
-------------------------------------------------------------------------------
   44 O3    x      -1.9910     -0.9069     -0.4814
            y      -0.8019     -2.5766     -0.5038
            z      -0.4610     -0.4405     -1.4193
-------------------------------------------------------------------------------
   45 O2    x      -1.6456      0.6900      0.3590
            y       0.5957     -2.0457     -0.3884
            z       0.3592     -0.3617     -1.2394
-------------------------------------------------------------------------------
   46 O2    x      -1.6981      0.6549     -0.2696
            y       0.6142     -1.9062      0.2961
            z      -0.3375      0.2586     -1.2561
-------------------------------------------------------------------------------
   47 O2    x      -1.8121      0.0421     -0.5761
            y       0.0269     -1.1702      0.0227
            z      -0.3329      0.0140     -1.7028
-------------------------------------------------------------------------------
   48 O2    x      -1.7915     -0.0409      0.5208
            y      -0.0091     -1.2008      0.0120
            z       0.2786     -0.0176     -1.7269
-------------------------------------------------------------------------------
   49 O2    x      -1.2089     -0.0452      0.0572
            y      -0.0708     -2.4807      0.0262
            z       0.0799      0.0184     -1.0742
-------------------------------------------------------------------------------
   50 O2    x      -1.1646     -0.0412     -0.0473
            y      -0.0871     -2.5571     -0.0373
            z      -0.0750     -0.0061     -1.0645
-------------------------------------------------------------------------------
   51 O2    x      -1.1905      0.0286      0.0387
            y       0.0611     -2.5993      0.0201
            z       0.0669      0.0323     -1.0501
-------------------------------------------------------------------------------
   52 O2    x      -1.1619      0.0267     -0.0526
            y       0.0486     -2.5540     -0.0090
            z      -0.0806     -0.0067     -1.0668
-------------------------------------------------------------------------------
   53 O2    x      -2.3515      0.0884      0.0939
            y       0.0461     -1.2621      0.0662
            z       0.0894      0.0410     -1.1024
-------------------------------------------------------------------------------
   54 O2    x      -2.3764      0.0697      0.0362
            y       0.0249     -1.2381     -0.0741
            z       0.0367     -0.0435     -1.0889
-------------------------------------------------------------------------------
   55 O2    x      -2.4130     -0.0514     -0.0105
            y      -0.0184     -1.2355     -0.0686
            z       0.0043     -0.0392     -1.0748
-------------------------------------------------------------------------------
   56 O2    x      -2.3777     -0.0566      0.0262
            y      -0.0344     -1.2516      0.0681
            z       0.0191      0.0439     -1.0901
-------------------------------------------------------------------------------
   57 O3    x      -1.3668     -0.1669     -0.1759
            y      -0.1464     -1.4737     -0.0963
            z      -0.1558     -0.0356     -2.5603
-------------------------------------------------------------------------------
   58 O2    x      -1.1974     -0.1328     -0.0100
            y      -0.1171     -1.2685      0.0263
            z      -0.0085      0.0193     -2.0688
-------------------------------------------------------------------------------
   59 O2    x      -1.2212      0.1357     -0.0327
            y       0.1115     -1.2669      0.0264
            z      -0.0336      0.0280     -2.0475
-------------------------------------------------------------------------------
   60 O2    x      -1.1742      0.1061      0.0775
            y       0.0950     -1.2878      0.0098
            z       0.0732      0.0266     -2.0971
-------------------------------------------------------------------------------
   61 O3    x      -1.3192     -0.1524     -0.0570
            y      -0.0995     -1.4657     -0.0781
            z      -0.0247     -0.0711     -2.5957
-------------------------------------------------------------------------------
   62 O2    x      -1.1765     -0.1356      0.0318
            y      -0.0892     -1.2785     -0.0025
            z       0.0144      0.0075     -2.0710
-------------------------------------------------------------------------------
   63 O2    x      -1.2278      0.1525     -0.0754
            y       0.0960     -1.3025      0.0414
            z      -0.0597      0.0574     -2.0427
-------------------------------------------------------------------------------
   64 O2    x      -1.1690      0.1147      0.0136
            y       0.0711     -1.2977      0.0141
            z      -0.0049      0.0112     -2.1023
-------------------------------------------------------------------------------
   65 O2    x      -1.2264      0.0696      0.0794
            y       0.1144     -2.4996     -0.0154
            z       0.1068     -0.0265     -1.0366
-------------------------------------------------------------------------------
   66 O3    x      -1.4135     -0.0602     -0.1029
            y       0.0050     -3.1156     -0.1017
            z      -0.1273     -0.0933     -1.1344
-------------------------------------------------------------------------------
   67 O2    x      -1.2136     -0.0174      0.0817
            y      -0.0774     -2.4958     -0.0475
            z       0.0920     -0.0331     -1.0433
-------------------------------------------------------------------------------
   68 O3    x      -1.4551     -0.1881     -0.1049
            y      -0.2421     -3.1505     -0.0767
            z      -0.1371     -0.0920     -1.1315
-------------------------------------------------------------------------------
   69 O2    x      -2.4466     -0.0369      0.0006
            y      -0.0098     -1.2243      0.0520
            z      -0.0017      0.0191     -1.0620
-------------------------------------------------------------------------------
   70 O3    x      -2.9960     -0.1229     -0.1060
            y      -0.0977     -1.3768     -0.1039
            z      -0.1037     -0.0593     -1.2398
-------------------------------------------------------------------------------
   71 O3    x      -3.0674      0.0572     -0.0034
            y       0.0117     -1.3663     -0.0943
            z      -0.0652     -0.0437     -1.2203
-------------------------------------------------------------------------------
   72 O2    x      -2.4572      0.1359      0.0606
            y       0.0962     -1.2353      0.0490
            z       0.0214      0.0208     -1.0553
-------------------------------------------------------------------------------




  Elastic Constant Matrix: (Units=GPa)

-------------------------------------------------------------------------------
  Indices      1         2         3         4         5         6    
-------------------------------------------------------------------------------
       1     54.1551   28.4466   24.2051    0.4510   -4.3966    0.6797
       2     28.4466   76.7579   23.9779    0.0739   -3.7715    0.8343
       3     24.2051   23.9779   24.3730    0.1788   -1.1739    2.5200
       4      0.4510    0.0739    0.1788   11.5776    0.6622    0.1880
       5     -4.3966   -3.7715   -1.1739    0.6622   24.5435    2.5259
       6      0.6797    0.8343    2.5200    0.1880    2.5259   23.2102
-------------------------------------------------------------------------------


  Elastic Compliance Matrix: (Units=1/GPa)

-------------------------------------------------------------------------------
  Indices      1         2         3         4         5         6    
-------------------------------------------------------------------------------
       1    0.034190 -0.002720 -0.031290 -0.001095  0.004027  0.002064
       2   -0.002720  0.019153 -0.016167  0.000127  0.001579  0.000974
       3   -0.031290 -0.016167  0.088666  0.000254 -0.003053 -0.007799
       4   -0.001095  0.000127  0.000254  0.086559 -0.002455 -0.000434
       5    0.004027  0.001579 -0.003053 -0.002455  0.042081 -0.004403
       6    0.002064  0.000974 -0.007799 -0.000434 -0.004403  0.044318
-------------------------------------------------------------------------------

  Mechanical properties :

-------------------------------------------------------------------------------
  Convention :                    Reuss         Voigt         Hill
-------------------------------------------------------------------------------
  Bulk  Modulus (GPa)     =      24.00666      34.28280      29.14473
  Shear Modulus (GPa)     =      11.64940      17.11002      14.37971
-------------------------------------------------------------------------------
  Velocity S-wave (km/s)  =       2.43697       2.95342       2.70754
  Velocity P-wave (km/s)  =       4.48966       5.39514       4.96309
-------------------------------------------------------------------------------
  Compressibility (1/GPa) =    0.04165510
-------------------------------------------------------------------------------
  Stress axis :                     x             y             z
-------------------------------------------------------------------------------
  Youngs Moduli (GPa)     =      29.24863      52.21067      11.27826
-------------------------------------------------------------------------------
  Poissons Ratio (x)      =                     0.14200       0.35290
  Poissons Ratio (y)      =       0.07955                     0.18234
  Poissons Ratio (z)      =       0.91519       0.84410
-------------------------------------------------------------------------------


  Piezoelectric Strain Matrix: (Units=C/m**2)

-------------------------------------------------------------------------------
  Indices      1         2         3         4         5         6    
-------------------------------------------------------------------------------
       x     0.53846   1.24448   0.14389  -0.12936   0.07286  -0.02665
       y    -0.76937  -0.93991   0.09126  -0.00942  -0.22269   0.28208
       z     0.19237   0.12257   0.14705   0.02582  -0.37152  -0.08632
-------------------------------------------------------------------------------


  Piezoelectric Stress Matrix: (Units=10**-11 C/N)

-------------------------------------------------------------------------------
  Indices      1         2         3         4         5         6    
-------------------------------------------------------------------------------
       x     1.09029   2.01176  -2.42577  -1.17594   0.71953  -0.02446
       y    -2.69079  -1.74633   4.58385   0.03556  -1.54511   1.02707
       z    -0.00603  -0.12205   0.68517   0.30265  -1.47981  -0.28315
-------------------------------------------------------------------------------


  Static dielectric constant tensor : 

-------------------------------------------------------------------------------
              x         y         z
-------------------------------------------------------------------------------
       x     3.99465   0.05299  -0.04026
       y     0.05299   4.16412   0.02404
       z    -0.04026   0.02404   3.26862
--------------------------------------------------------------------------------

  High frequency dielectric constant tensor : 

-------------------------------------------------------------------------------
              x         y         z
-------------------------------------------------------------------------------
       x     1.68157   0.00010  -0.00080
       y     0.00010   1.68846   0.00104
       z    -0.00080   0.00104   1.62025
-------------------------------------------------------------------------------

  Static refractive indices : 

-------------------------------------------------------------------------------
    1 =    1.80709      2 =    1.99557      3 =    2.04438
-------------------------------------------------------------------------------

  High frequency refractive indices : 

-------------------------------------------------------------------------------
    1 =    1.27288      2 =    1.29676      3 =    1.29942
-------------------------------------------------------------------------------


  Time to end of optimisation =      15.2460 seconds


  Peak dynamic memory used =       5.01 MB 


  Timing analysis for GULP :

--------------------------------------------------------------------------------
  Task / Subroutine                                          Time (Seconds)
--------------------------------------------------------------------------------
  Calculation of reciprocal space energy and derivatives          0.8573
  Calculation of real space energy and derivatives                9.0170
  Calculation of three-body energy and derivatives                0.8468
  Calculation and manipulation of Hessian matrix                  4.6816
  Calculation of matrix inversion                                 0.0437
  Global summation overhead                                       0.0002
--------------------------------------------------------------------------------
  Total CPU time                                                 15.2461
--------------------------------------------------------------------------------


  Dump file written as c00116.vasp.grs
  CIF file written as c00116.vasp.cif


  Job Finished at 11:46.53  7th October    2025                               

