********************************************************************************
*                       GENERAL UTILITY LATTICE PROGRAM                        *
*                                 Julian Gale                                  *
*                       Curtin Institute for Computation                       *
*                    School of Molecular and Life Sciences                     *
*                    Curtin University, Western Australia                      *
********************************************************************************
* Version = 6.1.2 * Last modified =   3rd November 2022                        *
********************************************************************************
*  optimise     - perform optimisation run                                     *
*  conp         - constant pressure calculation                                *
*  property     - calculate properties for final geometry                      *
********************************************************************************

  Job Started  at 12:00.46  7th October    2025                               

  Number of CPUs =     1


  Total number of configurations input =      1

********************************************************************************
*  Input for Configuration =   1 : c00193.vasp                                 *
********************************************************************************

  Formula = Ge3Si21O48                                                  

  Number of irreducible atoms/shells =     120


  Total number atoms/shells =     120

  Dimensionality = 3               :  Bulk   



  Cartesian lattice vectors (Angstroms) :

       17.182800    0.000000    0.000000
        0.000000    7.513760    0.000000
        0.000000    0.000000   10.447700

  Cell parameters (Angstroms/Degrees):

  a =      17.1828    alpha =  90.0000
  b =       7.5138    beta  =  90.0000
  c =      10.4477    gamma =  90.0000

  Initial cell volume =        1348.875752 Angs**3

  Temperature of configuration =   0.00     K 

  Pressure of configuration =         0.000 GPa 

  Fractional coordinates of asymmetric unit :

--------------------------------------------------------------------------------
   No.  Atomic       x           y          z         Charge      Occupancy
        Label      (Frac)      (Frac)     (Frac)        (e)         (Frac)  
--------------------------------------------------------------------------------
      1 Ge    c    0.556730    0.000000    0.122130     4.00000    1.000000    
      2 Ge    c    0.839340 *  0.705910 *  0.017440 *   4.00000    1.000000    
      3 Ge    c    0.160660 *  0.294090 *  0.982560 *   4.00000    1.000000    
      4 Si    c    0.052090 *  0.000000 *  0.372270 *   4.00000    1.000000    
      5 Si    c    0.447910 *  0.000000 *  0.372270 *   4.00000    1.000000    
      6 Si    c    0.947910 *  0.000000 *  0.627730 *   4.00000    1.000000    
      7 Si    c    0.552090 *  0.000000 *  0.627730 *   4.00000    1.000000    
      8 Si    c    0.943270 *  0.000000 *  0.122130 *   4.00000    1.000000    
      9 Si    c    0.443270 *  0.000000 *  0.877870 *   4.00000    1.000000    
     10 Si    c    0.056730 *  0.000000 *  0.877870 *   4.00000    1.000000    
     11 Si    c    0.160190 *  0.293910 *  0.273440 *   4.00000    1.000000    
     12 Si    c    0.339810 *  0.706090 *  0.273440 *   4.00000    1.000000    
     13 Si    c    0.839810 *  0.293910 *  0.726560 *   4.00000    1.000000    
     14 Si    c    0.660190 *  0.706090 *  0.726560 *   4.00000    1.000000    
     15 Si    c    0.839810 *  0.706090 *  0.726560 *   4.00000    1.000000    
     16 Si    c    0.660190 *  0.293910 *  0.726560 *   4.00000    1.000000    
     17 Si    c    0.160190 *  0.706090 *  0.273440 *   4.00000    1.000000    
     18 Si    c    0.339810 *  0.293910 *  0.273440 *   4.00000    1.000000    
     19 Si    c    0.660660 *  0.294090 *  0.017440 *   4.00000    1.000000    
     20 Si    c    0.339340 *  0.294090 *  0.982560 *   4.00000    1.000000    
     21 Si    c    0.160660 *  0.705910 *  0.982560 *   4.00000    1.000000    
     22 Si    c    0.339340 *  0.705910 *  0.982560 *   4.00000    1.000000    
     23 Si    c    0.660660 *  0.705910 *  0.017440 *   4.00000    1.000000    
     24 Si    c    0.839340 *  0.294090 *  0.017440 *   4.00000    1.000000    
     25 O2    c    0.106570 *  0.174340 *  0.366200 *   0.87073    1.000000    
     26 O2    c    0.393430 *  0.825660 *  0.366200 *   0.87073    1.000000    
     27 O2    c    0.893430 *  0.174340 *  0.633800 *   0.87073    1.000000    
     28 O2    c    0.606570 *  0.825660 *  0.633800 *   0.87073    1.000000    
     29 O2    c    0.893430 *  0.825660 *  0.633800 *   0.87073    1.000000    
     30 O2    c    0.606570 *  0.174340 *  0.633800 *   0.87073    1.000000    
     31 O2    c    0.106570 *  0.825660 *  0.366200 *   0.87073    1.000000    
     32 O2    c    0.393430 *  0.174340 *  0.366200 *   0.87073    1.000000    
     33 O2    c    0.000000 *  0.000000 *  0.500000 *   0.87073    1.000000    
     34 O2    c    0.500000 *  0.000000 *  0.500000 *   0.87073    1.000000    
     35 O2    c    0.994520 *  0.000000 *  0.250840 *   0.87073    1.000000    
     36 O3    c    0.505480 *  0.000000 *  0.250840 *   1.33043    1.000000    
     37 O2    c    0.005480 *  0.000000 *  0.749160 *   0.87073    1.000000    
     38 O2    c    0.494520 *  0.000000 *  0.749160 *   0.87073    1.000000    
     39 O3    c    0.610230 *  0.175520 *  0.115390 *   1.33043    1.000000    
     40 O3    c    0.889770 *  0.824480 *  0.115390 *   1.33043    1.000000    
     41 O2    c    0.389770 *  0.175520 *  0.884610 *   0.87073    1.000000    
     42 O2    c    0.110230 *  0.824480 *  0.884610 *   0.87073    1.000000    
     43 O2    c    0.389770 *  0.824480 *  0.884610 *   0.87073    1.000000    
     44 O3    c    0.110230 *  0.175520 *  0.884610 *   1.33043    1.000000    
     45 O3    c    0.610230 *  0.824480 *  0.115390 *   1.33043    1.000000    
     46 O2    c    0.889770 *  0.175520 *  0.115390 *   0.87073    1.000000    
     47 O3    c    0.500000 *  0.000000 *  0.000000 *   1.33043    1.000000    
     48 O2    c    0.000000 *  0.000000 *  0.000000 *   0.87073    1.000000    
     49 O2    c    0.151750 *  0.500000 *  0.313330 *   0.87073    1.000000    
     50 O2    c    0.348250 *  0.500000 *  0.313330 *   0.87073    1.000000    
     51 O2    c    0.848250 *  0.500000 *  0.686670 *   0.87073    1.000000    
     52 O2    c    0.651750 *  0.500000 *  0.686670 *   0.87073    1.000000    
     53 O2    c    0.250000 *  0.234950 *  0.285720 *   0.87073    1.000000    
     54 O2    c    0.250000 *  0.765050 *  0.285720 *   0.87073    1.000000    
     55 O2    c    0.750000 *  0.234950 *  0.714280 *   0.87073    1.000000    
     56 O2    c    0.750000 *  0.765050 *  0.714280 *   0.87073    1.000000    
     57 O3    c    0.131410 *  0.268650 *  0.127790 *   1.33043    1.000000    
     58 O2    c    0.368590 *  0.731350 *  0.127790 *   0.87073    1.000000    
     59 O2    c    0.868590 *  0.268650 *  0.872210 *   0.87073    1.000000    
     60 O2    c    0.631410 *  0.731350 *  0.872210 *   0.87073    1.000000    
     61 O3    c    0.868590 *  0.731350 *  0.872210 *   1.33043    1.000000    
     62 O2    c    0.631410 *  0.268650 *  0.872210 *   0.87073    1.000000    
     63 O2    c    0.131410 *  0.731350 *  0.127790 *   0.87073    1.000000    
     64 O2    c    0.368590 *  0.268650 *  0.127790 *   0.87073    1.000000    
     65 O2    c    0.653920 *  0.500000 *  0.058200 *   0.87073    1.000000    
     66 O3    c    0.846080 *  0.500000 *  0.058200 *   1.33043    1.000000    
     67 O2    c    0.346080 *  0.500000 *  0.941800 *   0.87073    1.000000    
     68 O3    c    0.153920 *  0.500000 *  0.941800 *   1.33043    1.000000    
     69 O2    c    0.750000 *  0.231060 *  0.027050 *   0.87073    1.000000    
     70 O3    c    0.750000 *  0.768940 *  0.027050 *   1.33043    1.000000    
     71 O3    c    0.250000 *  0.231060 *  0.972950 *   1.33043    1.000000    
     72 O2    c    0.250000 *  0.768940 *  0.972950 *   0.87073    1.000000    
     73 O2    s    0.106570 *  0.174340 *  0.366200 *  -2.87073    1.000000    
     74 O2    s    0.393430 *  0.825660 *  0.366200 *  -2.87073    1.000000    
     75 O2    s    0.893430 *  0.174340 *  0.633800 *  -2.87073    1.000000    
     76 O2    s    0.606570 *  0.825660 *  0.633800 *  -2.87073    1.000000    
     77 O2    s    0.893430 *  0.825660 *  0.633800 *  -2.87073    1.000000    
     78 O2    s    0.606570 *  0.174340 *  0.633800 *  -2.87073    1.000000    
     79 O2    s    0.106570 *  0.825660 *  0.366200 *  -2.87073    1.000000    
     80 O2    s    0.393430 *  0.174340 *  0.366200 *  -2.87073    1.000000    
     81 O2    s    0.000000 *  0.000000 *  0.500000 *  -2.87073    1.000000    
     82 O2    s    0.500000 *  0.000000 *  0.500000 *  -2.87073    1.000000    
     83 O2    s    0.994520 *  0.000000 *  0.250840 *  -2.87073    1.000000    
     84 O3    s    0.505480 *  0.000000 *  0.250840 *  -3.33043    1.000000    
     85 O2    s    0.005480 *  0.000000 *  0.749160 *  -2.87073    1.000000    
     86 O2    s    0.494520 *  0.000000 *  0.749160 *  -2.87073    1.000000    
     87 O3    s    0.610230 *  0.175520 *  0.115390 *  -3.33043    1.000000    
     88 O3    s    0.889770 *  0.824480 *  0.115390 *  -3.33043    1.000000    
     89 O2    s    0.389770 *  0.175520 *  0.884610 *  -2.87073    1.000000    
     90 O2    s    0.110230 *  0.824480 *  0.884610 *  -2.87073    1.000000    
     91 O2    s    0.389770 *  0.824480 *  0.884610 *  -2.87073    1.000000    
     92 O3    s    0.110230 *  0.175520 *  0.884610 *  -3.33043    1.000000    
     93 O3    s    0.610230 *  0.824480 *  0.115390 *  -3.33043    1.000000    
     94 O2    s    0.889770 *  0.175520 *  0.115390 *  -2.87073    1.000000    
     95 O3    s    0.500000 *  0.000000 *  0.000000 *  -3.33043    1.000000    
     96 O2    s    0.000000 *  0.000000 *  0.000000 *  -2.87073    1.000000    
     97 O2    s    0.151750 *  0.500000 *  0.313330 *  -2.87073    1.000000    
     98 O2    s    0.348250 *  0.500000 *  0.313330 *  -2.87073    1.000000    
     99 O2    s    0.848250 *  0.500000 *  0.686670 *  -2.87073    1.000000    
    100 O2    s    0.651750 *  0.500000 *  0.686670 *  -2.87073    1.000000    
    101 O2    s    0.250000 *  0.234950 *  0.285720 *  -2.87073    1.000000    
    102 O2    s    0.250000 *  0.765050 *  0.285720 *  -2.87073    1.000000    
    103 O2    s    0.750000 *  0.234950 *  0.714280 *  -2.87073    1.000000    
    104 O2    s    0.750000 *  0.765050 *  0.714280 *  -2.87073    1.000000    
    105 O3    s    0.131410 *  0.268650 *  0.127790 *  -3.33043    1.000000    
    106 O2    s    0.368590 *  0.731350 *  0.127790 *  -2.87073    1.000000    
    107 O2    s    0.868590 *  0.268650 *  0.872210 *  -2.87073    1.000000    
    108 O2    s    0.631410 *  0.731350 *  0.872210 *  -2.87073    1.000000    
    109 O3    s    0.868590 *  0.731350 *  0.872210 *  -3.33043    1.000000    
    110 O2    s    0.631410 *  0.268650 *  0.872210 *  -2.87073    1.000000    
    111 O2    s    0.131410 *  0.731350 *  0.127790 *  -2.87073    1.000000    
    112 O2    s    0.368590 *  0.268650 *  0.127790 *  -2.87073    1.000000    
    113 O2    s    0.653920 *  0.500000 *  0.058200 *  -2.87073    1.000000    
    114 O3    s    0.846080 *  0.500000 *  0.058200 *  -3.33043    1.000000    
    115 O2    s    0.346080 *  0.500000 *  0.941800 *  -2.87073    1.000000    
    116 O3    s    0.153920 *  0.500000 *  0.941800 *  -3.33043    1.000000    
    117 O2    s    0.750000 *  0.231060 *  0.027050 *  -2.87073    1.000000    
    118 O3    s    0.750000 *  0.768940 *  0.027050 *  -3.33043    1.000000    
    119 O3    s    0.250000 *  0.231060 *  0.972950 *  -3.33043    1.000000    
    120 O2    s    0.250000 *  0.768940 *  0.972950 *  -2.87073    1.000000    
--------------------------------------------------------------------------------



********************************************************************************
*  General input information                                                   *
********************************************************************************

  Species output for all configurations : 

--------------------------------------------------------------------------------
  Species    Type    Atomic    Atomic    Charge       Radii (Angs)     Library
                     Number     Mass       (e)     Cova   Ionic  VDW   Symbol
--------------------------------------------------------------------------------
    Ge       Core       32      72.61   4.000000   1.170  0.000  1.750 Ge       
    Si       Core       14      28.09   4.000000   1.200  0.000  2.100 Si       
    O1       Core        8      16.00   1.733957   0.730  0.000  0.000 O1       
    O2       Core        8      16.00   0.870733   0.730  0.000  1.360 O2       
    O3       Core        8      16.00   1.330431   0.730  0.000  1.360 O3       
    O1       Shell       8       0.00  -3.733957   0.730  0.000  0.000 O1       
    O2       Shell       8       0.00  -2.870733   0.730  0.000  0.000 O2       
    O3       Shell       8       0.00  -3.330431   0.730  0.000  0.000 O3       
--------------------------------------------------------------------------------


  Lattice summation method               =    Ewald          (3-D)
                                         =    Parry          (2-D)
                                         =    Saunders et al (1-D)
  Accuracy factor for lattice sums       =   12.000


  Analytic derivatives to be used

  Time limit = Infinity

  Maximum range for interatomic potentials =    100000.000000 Angstroms

  General interatomic potentials :

--------------------------------------------------------------------------------
Atom  Types   Potential      Parameter       Value         Units   Cutoffs(Ang)
  1     2                                                            Min /  Max 
--------------------------------------------------------------------------------
Si   c O1   s Buckingham    Buckingham A     1315.2478    eV        0.000 16.000
                            Buckingham rho  0.31775900    Ang       
                            Buckingham C     10.141118    eV*Ang^6  
--------------------------------------------------------------------------------
Si   c O2   s Buckingham    Buckingham A     1315.2478    eV        0.000 16.000
                            Buckingham rho  0.31775900    Ang       
                            Buckingham C     10.141118    eV*Ang^6  
--------------------------------------------------------------------------------
Si   c O3   s Buckingham    Buckingham A     1315.2478    eV        0.000 16.000
                            Buckingham rho  0.31775900    Ang       
                            Buckingham C     10.141118    eV*Ang^6  
--------------------------------------------------------------------------------
Ge   c O1   s Buckingham    Buckingham A     1497.3996    eV        0.000 16.000
                            Buckingham rho  0.32564600    Ang       
                            Buckingham C     16.808599    eV*Ang^6  
--------------------------------------------------------------------------------
Ge   c O2   s Buckingham    Buckingham A     1497.3996    eV        0.000 16.000
                            Buckingham rho  0.32564600    Ang       
                            Buckingham C     16.808599    eV*Ang^6  
--------------------------------------------------------------------------------
Ge   c O3   s Buckingham    Buckingham A     1497.3996    eV        0.000 16.000
                            Buckingham rho  0.32564600    Ang       
                            Buckingham C     16.808599    eV*Ang^6  
--------------------------------------------------------------------------------
O1   s O1   s Buckingham    Buckingham A     22764.000    eV        0.000 16.000
                            Buckingham rho  0.14900000    Ang       
                            Buckingham C     10.937044    eV*Ang^6  
--------------------------------------------------------------------------------
O1   s O2   s Buckingham    Buckingham A     22764.000    eV        0.000 16.000
                            Buckingham rho  0.14900000    Ang       
                            Buckingham C     10.937044    eV*Ang^6  
--------------------------------------------------------------------------------
O1   s O3   s Buckingham    Buckingham A     22764.000    eV        0.000 16.000
                            Buckingham rho  0.14900000    Ang       
                            Buckingham C     10.937044    eV*Ang^6  
--------------------------------------------------------------------------------
O2   s O2   s Buckingham    Buckingham A     22764.000    eV        0.000 16.000
                            Buckingham rho  0.14900000    Ang       
                            Buckingham C     10.937044    eV*Ang^6  
--------------------------------------------------------------------------------
O2   s O3   s Buckingham    Buckingham A     22764.000    eV        0.000 16.000
                            Buckingham rho  0.14900000    Ang       
                            Buckingham C     10.937044    eV*Ang^6  
--------------------------------------------------------------------------------
O3   s O3   s Buckingham    Buckingham A     22764.000    eV        0.000 16.000
                            Buckingham rho  0.14900000    Ang       
                            Buckingham C     10.937044    eV*Ang^6  
--------------------------------------------------------------------------------
O1   c O1   s Spring (c-s)  Spring k 2       180.31577    eV*Ang^-2 0.000  0.800
                            Spring k 4       0.0000000    eV*Ang^-4 
--------------------------------------------------------------------------------
O2   c O2   s Spring (c-s)  Spring k 2       75.969800    eV*Ang^-2 0.000  0.800
                            Spring k 4       0.0000000    eV*Ang^-4 
--------------------------------------------------------------------------------
O3   c O3   s Spring (c-s)  Spring k 2       128.14270    eV*Ang^-2 0.000  0.800
                            Spring k 4       0.0000000    eV*Ang^-4 
--------------------------------------------------------------------------------

  General Three-body potentials :

--------------------------------------------------------------------------------
  Atoms       Potential      Parameter       Value         Units   Cutoffs(Ang)
  1 / 2 / 3                                                          Min /  Max 
--------------------------------------------------------------------------------
Si    core    Harmonic      Three-body cnst  1.2614000    eV*rad^-2 0.000  1.900
O1    shel                  Three-body angl  109.47000    degrees   0.000  1.900
O1    shel                  Three-body k4    0.0000000    eV*rad^-4 0.000  3.500
                            Three-body k3    0.0000000    eV*rad^-3 
--------------------------------------------------------------------------------
Si    core    Harmonic      Three-body cnst  1.2614000    eV*rad^-2 0.000  1.900
O1    shel                  Three-body angl  109.47000    degrees   0.000  1.900
õ(1   shel                  Three-body k4    0.0000000    eV*rad^-4 0.000  3.500
                            Three-body k3    0.0000000    eV*rad^-3 
--------------------------------------------------------------------------------
Si    core    Harmonic      Three-body cnst  1.2614000    eV*rad^-2 0.000  1.900
õ(1   shel                  Three-body angl  109.47000    degrees   0.000  1.900
õ(1   shel                  Three-body k4    0.0000000    eV*rad^-4 0.000  3.500
                            Three-body k3    0.0000000    eV*rad^-3 
--------------------------------------------------------------------------------
Si    core    Harmonic      Three-body cnst  1.2614000    eV*rad^-2 0.000  1.900
O1    shel                  Three-body angl  109.47000    degrees   0.000  1.900
O2    shel                  Three-body k4    0.0000000    eV*rad^-4 0.000  3.500
                            Three-body k3    0.0000000    eV*rad^-3 
--------------------------------------------------------------------------------
Si    core    Harmonic      Three-body cnst  1.2614000    eV*rad^-2 0.000  1.900
O1    shel                  Three-body angl  109.47000    degrees   0.000  1.900
õ(2   shel                  Three-body k4    0.0000000    eV*rad^-4 0.000  3.500
                            Three-body k3    0.0000000    eV*rad^-3 
--------------------------------------------------------------------------------
Si    core    Harmonic      Three-body cnst  1.2614000    eV*rad^-2 0.000  1.900
O2    shel                  Three-body angl  109.47000    degrees   0.000  1.900
õ(1   shel                  Three-body k4    0.0000000    eV*rad^-4 0.000  3.500
                            Three-body k3    0.0000000    eV*rad^-3 
--------------------------------------------------------------------------------
Si    core    Harmonic      Three-body cnst  1.2614000    eV*rad^-2 0.000  1.900
õ(1   shel                  Three-body angl  109.47000    degrees   0.000  1.900
õ(2   shel                  Three-body k4    0.0000000    eV*rad^-4 0.000  3.500
                            Three-body k3    0.0000000    eV*rad^-3 
--------------------------------------------------------------------------------
Si    core    Harmonic      Three-body cnst  1.2614000    eV*rad^-2 0.000  1.900
O2    shel                  Three-body angl  109.47000    degrees   0.000  1.900
O2    shel                  Three-body k4    0.0000000    eV*rad^-4 0.000  3.500
                            Three-body k3    0.0000000    eV*rad^-3 
--------------------------------------------------------------------------------
Si    core    Harmonic      Three-body cnst  1.2614000    eV*rad^-2 0.000  1.900
O2    shel                  Three-body angl  109.47000    degrees   0.000  1.900
õ(2   shel                  Three-body k4    0.0000000    eV*rad^-4 0.000  3.500
                            Three-body k3    0.0000000    eV*rad^-3 
--------------------------------------------------------------------------------
Si    core    Harmonic      Three-body cnst  1.2614000    eV*rad^-2 0.000  1.900
õ(2   shel                  Three-body angl  109.47000    degrees   0.000  1.900
õ(2   shel                  Three-body k4    0.0000000    eV*rad^-4 0.000  3.500
                            Three-body k3    0.0000000    eV*rad^-3 
--------------------------------------------------------------------------------

********************************************************************************
*  Output for configuration   1 : c00193.vasp                                  *
********************************************************************************


  Components of energy : 

--------------------------------------------------------------------------------
  Interatomic potentials     =         760.37579294 eV    
  Three-body potentials      =           0.01212789 eV    
  Monopole - monopole (real) =       -2676.00317478 eV    
  Monopole - monopole (recip)=       -1115.35404472 eV    
  Monopole - monopole (total)=       -3791.35721950 eV    
--------------------------------------------------------------------------------
  Total lattice energy       =       -3030.96929868 eV    
--------------------------------------------------------------------------------
  Total lattice energy       =         -292442.2047 kJ/(mole unit cells)
--------------------------------------------------------------------------------


  Number of variables =      363

  Maximum number of calculations  =          1000
  Maximum Hessian update interval =            10
  Maximum step size               =   0.100000000
  Maximum parameter tolerance     =   0.000010000
  Maximum function  tolerance     =   0.000010000
  Maximum gradient  tolerance     =   0.001000000
  Maximum gradient  component     =   0.010000000

  Symmetry not applied to optimisation

  Cell parameters to be optimised using strains

  Newton-Raphson optimiser to be used

  BFGS hessian update to be used

  Lower half triangular hessian to be used

  Minimiser to switch to RFO
  When gradient norm is less than     0.050000

  Dumpfile to be written after every cycle

  Start of bulk optimisation :

  Cycle:      0 Energy:     -3030.969299  Gnorm:      4.414210  CPU:    0.115
  ** Hessian calculated **
  Cycle:      1 Energy:     -3061.855038  Gnorm:      0.974702  CPU:    0.252
  ** Hessian calculated **
  Cycle:      2 Energy:     -3065.953121  Gnorm:      0.503332  CPU:    0.500
  ** Hessian calculated **
  Cycle:      3 Energy:     -3067.037470  Gnorm:      0.317367  CPU:    0.710
  Cycle:      4 Energy:     -3067.486457  Gnorm:      0.140286  CPU:    0.821
  Cycle:      5 Energy:     -3067.629669  Gnorm:      0.061496  CPU:    0.932
  ** Hessian calculated **
  Cycle:      6 Energy:     -3067.639789  Gnorm:      0.037523  CPU:    1.149
  ** Hessian has required structure
  Cycle:      7 Energy:     -3067.644184  Gnorm:      0.052425  CPU:    1.305
  ** Hessian has required structure
  Cycle:      8 Energy:     -3067.649455  Gnorm:      0.049883  CPU:    1.482
  ** Hessian has required structure
  Cycle:      9 Energy:     -3067.653424  Gnorm:      0.040392  CPU:    1.638
  ** Hessian has required structure
  Cycle:     10 Energy:     -3067.655904  Gnorm:      0.038362  CPU:    1.793
  ** Hessian has required structure
  Cycle:     11 Energy:     -3067.658773  Gnorm:      0.036607  CPU:    1.950
  ** Hessian has required structure
  Cycle:     12 Energy:     -3067.660948  Gnorm:      0.027252  CPU:    2.120
  ** Hessian has required structure
  Cycle:     13 Energy:     -3067.662001  Gnorm:      0.028496  CPU:    2.299
  ** Hessian has required structure
  Cycle:     14 Energy:     -3067.663549  Gnorm:      0.038085  CPU:    2.474
  ** Hessian has required structure
  Cycle:     15 Energy:     -3067.666865  Gnorm:      0.044467  CPU:    2.655
  ** Hessian has wrong structure
  ** Imaginary eigenvectors =   4
  Cycle:     16 Energy:     -3067.691943  Gnorm:      0.051723  CPU:    3.210
  ** Hessian has wrong structure
  ** Imaginary eigenvectors =   2
  Cycle:     17 Energy:     -3067.721495  Gnorm:      0.067647  CPU:    3.645
  ** Hessian has required structure
  Cycle:     18 Energy:     -3067.885600  Gnorm:      0.048298  CPU:    3.968
  ** Hessian has required structure
  Cycle:     19 Energy:     -3067.968211  Gnorm:      0.037631  CPU:    4.188
  ** Hessian has required structure
  Cycle:     20 Energy:     -3068.016188  Gnorm:      0.036116  CPU:    4.386
  ** Hessian has required structure
  Cycle:     21 Energy:     -3068.062582  Gnorm:      0.028881  CPU:    4.584
  ** Hessian has required structure
  Cycle:     22 Energy:     -3068.082539  Gnorm:      0.037063  CPU:    4.776
  ** Hessian has required structure
  Cycle:     23 Energy:     -3068.102721  Gnorm:      0.029937  CPU:    4.943
  ** Hessian has required structure
  Cycle:     24 Energy:     -3068.114601  Gnorm:      0.021575  CPU:    5.111
  ** Hessian has required structure
  Cycle:     25 Energy:     -3068.129268  Gnorm:      0.024179  CPU:    5.322
  ** Hessian has required structure
  Cycle:     26 Energy:     -3068.142681  Gnorm:      0.023427  CPU:    5.511
  ** Hessian has required structure
  Cycle:     27 Energy:     -3068.152525  Gnorm:      0.018116  CPU:    5.700
  ** Hessian has required structure
  Cycle:     28 Energy:     -3068.163383  Gnorm:      0.013918  CPU:    6.011
  ** Hessian has required structure
  Cycle:     29 Energy:     -3068.171637  Gnorm:      0.010891  CPU:    6.202
  ** Hessian has required structure
  Cycle:     30 Energy:     -3068.174368  Gnorm:      0.005852  CPU:    6.394
  ** Hessian has required structure
  Cycle:     31 Energy:     -3068.175279  Gnorm:      0.004671  CPU:    6.583
  ** Hessian has required structure
  Cycle:     32 Energy:     -3068.175653  Gnorm:      0.002796  CPU:    6.767
  ** Hessian has required structure
  Cycle:     33 Energy:     -3068.175825  Gnorm:      0.002220  CPU:    6.948
  ** Hessian has required structure
  Cycle:     34 Energy:     -3068.175955  Gnorm:      0.001362  CPU:    7.150
  ** Hessian has required structure
  Cycle:     35 Energy:     -3068.176022  Gnorm:      0.000984  CPU:    7.349
  ** Hessian has required structure
  Cycle:     36 Energy:     -3068.176047  Gnorm:      0.000592  CPU:    7.550
  ** Hessian has required structure
  Cycle:     37 Energy:     -3068.176062  Gnorm:      0.000354  CPU:    7.771
  ** Hessian has required structure
  Cycle:     38 Energy:     -3068.176065  Gnorm:      0.000249  CPU:    8.032
  ** Hessian has required structure
  Cycle:     39 Energy:     -3068.176066  Gnorm:      0.000175  CPU:    8.192
  ** Hessian has required structure
  Cycle:     40 Energy:     -3068.176067  Gnorm:      0.000123  CPU:    8.353
  ** Hessian has required structure


  **** Optimisation achieved ****


  Final energy =   -3068.17606727 eV      
  Final Gnorm  =       0.00008591

  Components of energy : 

--------------------------------------------------------------------------------
  Interatomic potentials     =         817.59336266 eV    
  Three-body potentials      =           0.23811537 eV    
  Monopole - monopole (real) =       -2203.62994013 eV    
  Monopole - monopole (recip)=       -1682.37760517 eV    
  Monopole - monopole (total)=       -3886.00754530 eV    
--------------------------------------------------------------------------------
  Total lattice energy       =       -3068.17606727 eV    
--------------------------------------------------------------------------------
  Total lattice energy       =         -296032.0891 kJ/(mole unit cells)
--------------------------------------------------------------------------------

  Final fractional coordinates of atoms :

--------------------------------------------------------------------------------
   No.  Atomic        x           y          z          Radius
        Label       (Frac)      (Frac)     (Frac)       (Angs) 
--------------------------------------------------------------------------------
     1  Ge    c     0.556730    0.000000    0.122130    0.000000
     2  Ge    c     0.858078    0.668310    0.024857    0.000000
     3  Ge    c     0.166471    0.282150    0.980323    0.000000
     4  Si    c     0.046868    0.004387    0.375842    0.000000
     5  Si    c     0.445816    0.010474    0.376385    0.000000
     6  Si    c     0.942983    0.993825    0.629032    0.000000
     7  Si    c     0.542696    0.015090    0.637717    0.000000
     8  Si    c     0.950690    0.989997    0.118096    0.000000
     9  Si    c     0.441860    0.003944    0.885006    0.000000
    10  Si    c     0.055855    0.001682    0.875942    0.000000
    11  Si    c     0.162669    0.288898    0.288693    0.000000
    12  Si    c     0.330777    0.724990    0.291081    0.000000
    13  Si    c     0.827762    0.283684    0.714951    0.000000
    14  Si    c     0.662285    0.724117    0.735522    0.000000
    15  Si    c     0.841881    0.688075    0.715863    0.000000
    16  Si    c     0.647406    0.317796    0.729167    0.000000
    17  Si    c     0.148970    0.696904    0.282041    0.000000
    18  Si    c     0.342382    0.322511    0.296105    0.000000
    19  Si    c     0.652559    0.318747    0.029763    0.000000
    20  Si    c     0.349767    0.322906    0.990656    0.000000
    21  Si    c     0.147854    0.687267    0.982437    0.000000
    22  Si    c     0.331503    0.720103    0.988525    0.000000
    23  Si    c     0.674575    0.716024    0.038373    0.000000
    24  Si    c     0.833903    0.266601    0.019147    0.000000
    25  O2    c     0.110330    0.161493    0.377679    0.000000
    26  O2    c     0.378868    0.859643    0.380416    0.000000
    27  O2    c     0.878243    0.150649    0.627784    0.000000
    28  O2    c     0.606166    0.859241    0.658646    0.000000
    29  O2    c     0.898113    0.807303    0.626241    0.000000
    30  O2    c     0.585706    0.203935    0.646241    0.000000
    31  O2    c     0.090882    0.815311    0.367556    0.000000
    32  O2    c     0.403392    0.201778    0.377403    0.000000
    33  O2    c     0.997670    0.010874    0.505757    0.000000
    34  O2    c     0.505323    0.994628    0.496258    0.000000
    35  O2    c     0.986329    0.034116    0.257659    0.000000
    36  O3    c     0.495042    0.978262    0.248721    0.000000
    37  O2    c     0.998573    0.009966    0.754222    0.000000
    38  O2    c     0.471218    0.003245    0.737911    0.000000
    39  O3    c     0.595500    0.209494    0.119447    0.000000
    40  O3    c     0.929131    0.786069    0.106367    0.000000
    41  O2    c     0.415194    0.202037    0.923121    0.000000
    42  O2    c     0.094410    0.807121    0.887625    0.000000
    43  O2    c     0.369671    0.867462    0.897730    0.000000
    44  O3    c     0.124199    0.143505    0.869370    0.000000
    45  O3    c     0.633315    0.850607    0.132793    0.000000
    46  O2    c     0.870289    0.102173    0.097877    0.000000
    47  O3    c     0.510355    0.940946    0.979840    0.000000
    48  O2    c     0.010455    0.053423    0.007488    0.000000
    49  O2    c     0.131799    0.490101    0.302341    0.000000
    50  O2    c     0.360942    0.527009    0.322770    0.000000
    51  O2    c     0.857714    0.481737    0.688313    0.000000
    52  O2    c     0.630469    0.526124    0.712399    0.000000
    53  O2    c     0.253336    0.278804    0.337268    0.000000
    54  O2    c     0.238441    0.740409    0.322729    0.000000
    55  O2    c     0.735204    0.271735    0.680008    0.000000
    56  O2    c     0.751075    0.736283    0.682253    0.000000
    57  O3    c     0.158002    0.223270    0.141475    0.000000
    58  O2    c     0.343209    0.771985    0.139397    0.000000
    59  O2    c     0.839344    0.231467    0.865156    0.000000
    60  O2    c     0.665951    0.774563    0.886997    0.000000
    61  O3    c     0.862848    0.729827    0.863770    0.000000
    62  O2    c     0.637169    0.263341    0.879720    0.000000
    63  O2    c     0.133563    0.747147    0.131295    0.000000
    64  O2    c     0.352383    0.280713    0.144290    0.000000
    65  O2    c     0.634946    0.523951    0.051954    0.000000
    66  O3    c     0.878431    0.447047    0.048305    0.000000
    67  O2    c     0.370549    0.528186    0.964692    0.000000
    68  O3    c     0.124237    0.488339    0.961164    0.000000
    69  O2    c     0.743798    0.280376    0.063186    0.000000
    70  O3    c     0.765033    0.707876    0.080125    0.000000
    71  O3    c     0.264045    0.282750    0.936757    0.000000
    72  O2    c     0.239809    0.711465    0.951567    0.000000
    73  O2    s     0.109265    0.158592    0.367798    0.000000
    74  O2    s     0.380519    0.860514    0.370129    0.000000
    75  O2    s     0.879558    0.148614    0.637510    0.000000
    76  O2    s     0.605584    0.861031    0.665099    0.000000
    77  O2    s     0.896901    0.814456    0.636030    0.000000
    78  O2    s     0.587920    0.196430    0.654414    0.000000
    79  O2    s     0.092642    0.822206    0.358998    0.000000
    80  O2    s     0.401180    0.194840    0.368409    0.000000
    81  O2    s     0.997039    0.008078    0.504947    0.000000
    82  O2    s     0.502758    0.998857    0.498752    0.000000
    83  O2    s     0.989036    0.025727    0.254857    0.000000
    84  O3    s     0.495486    0.983754    0.250681    0.000000
    85  O2    s     0.999114    0.007184    0.754573    0.000000
    86  O2    s     0.475775    0.004642    0.743375    0.000000
    87  O3    s     0.598330    0.203959    0.110281    0.000000
    88  O3    s     0.925511    0.796677    0.100901    0.000000
    89  O2    s     0.410810    0.194633    0.926651    0.000000
    90  O2    s     0.096183    0.814472    0.896833    0.000000
    91  O2    s     0.372998    0.865502    0.906550    0.000000
    92  O3    s     0.120731    0.140650    0.879300    0.000000
    93  O3    s     0.631371    0.848642    0.121993    0.000000
    94  O2    s     0.874729    0.108357    0.091238    0.000000
    95  O3    s     0.506966    0.952358    0.981589    0.000000
    96  O2    s     0.008838    0.041444    0.005603    0.000000
    97  O2    s     0.136902    0.491201    0.298719    0.000000
    98  O2    s     0.355737    0.525995    0.316534    0.000000
    99  O2    s     0.852824    0.482582    0.694046    0.000000
   100  O2    s     0.635626    0.524631    0.716616    0.000000
   101  O2    s     0.253291    0.284604    0.327805    0.000000
   102  O2    s     0.238775    0.733996    0.314922    0.000000
   103  O2    s     0.735833    0.277897    0.688864    0.000000
   104  O2    s     0.751181    0.729888    0.691394    0.000000
   105  O3    s     0.159146    0.234468    0.142941    0.000000
   106  O2    s     0.340685    0.761693    0.139431    0.000000
   107  O2    s     0.837486    0.240815    0.865114    0.000000
   108  O2    s     0.666439    0.763247    0.886284    0.000000
   109  O3    s     0.860366    0.720671    0.861972    0.000000
   110  O2    s     0.639787    0.274538    0.879232    0.000000
   111  O2    s     0.136611    0.735922    0.131804    0.000000
   112  O2    s     0.351044    0.289667    0.144376    0.000000
   113  O2    s     0.640999    0.521576    0.048088    0.000000
   114  O3    s     0.872442    0.446847    0.043600    0.000000
   115  O2    s     0.364345    0.527045    0.969881    0.000000
   116  O3    s     0.130108    0.492595    0.964934    0.000000
   117  O2    s     0.743818    0.283045    0.054750    0.000000
   118  O3    s     0.763742    0.705341    0.071218    0.000000
   119  O3    s     0.264965    0.286877    0.945927    0.000000
   120  O2    s     0.240007    0.709716    0.959040    0.000000
--------------------------------------------------------------------------------

  Final Cartesian lattice vectors (Angstroms) :

       17.002785    0.061001   -0.086652
        0.026459    7.592403    0.021504
       -0.051293    0.029009   10.297852


  Final cell parameters and derivatives :

--------------------------------------------------------------------------------
       a           17.003115 Angstrom     dE/de1(xx)     0.002117 eV/strain
       b            7.592480 Angstrom     dE/de2(yy)    -0.002075 eV/strain
       c           10.298021 Angstrom     dE/de3(zz)     0.003272 eV/strain
       alpha       89.677323 Degrees      dE/de4(yz)    -0.000144 eV/strain
       beta        90.576796 Degrees      dE/de5(xz)    -0.000354 eV/strain
       gamma       89.595601 Degrees      dE/de6(xy)     0.000100 eV/strain
--------------------------------------------------------------------------------

  Primitive cell volume =          1329.309164 Angs**3

  Density of cell =      1.968380 g/cm**3

  Non-primitive cell volume =          1329.309164 Angs**3


  Final internal derivatives :

--------------------------------------------------------------------------------
   No.  Atomic          a             b             c           Radius
        Label          (eV)          (eV)          (eV)        (eV/Angs)
--------------------------------------------------------------------------------
      1 Ge    c       0.000000      0.000000      0.000000      0.000000
      2 Ge    c      -0.002403     -0.002076     -0.001112      0.000000
      3 Ge    c       0.002304      0.000723     -0.000317      0.000000
      4 Si    c       0.004146     -0.000388     -0.000423      0.000000
      5 Si    c      -0.006007      0.000692      0.002707      0.000000
      6 Si    c      -0.007766     -0.001005      0.000449      0.000000
      7 Si    c       0.000177      0.000244      0.000378      0.000000
      8 Si    c      -0.002571     -0.001025      0.000141      0.000000
      9 Si    c      -0.001370      0.000173     -0.001780      0.000000
     10 Si    c       0.007379     -0.000175      0.004235      0.000000
     11 Si    c       0.000100      0.000619     -0.000897      0.000000
     12 Si    c      -0.000423     -0.000537      0.000179      0.000000
     13 Si    c       0.002036      0.000760      0.001350      0.000000
     14 Si    c      -0.001118      0.000303      0.000247      0.000000
     15 Si    c       0.001300     -0.000789      0.001263      0.000000
     16 Si    c      -0.000678      0.000002     -0.000689      0.000000
     17 Si    c      -0.000442     -0.000302     -0.000107      0.000000
     18 Si    c       0.000542     -0.000060     -0.000182      0.000000
     19 Si    c       0.001015      0.000964      0.000026      0.000000
     20 Si    c      -0.001099      0.000166      0.000129      0.000000
     21 Si    c      -0.000933     -0.000851      0.000046      0.000000
     22 Si    c      -0.001425     -0.000642     -0.000057      0.000000
     23 Si    c       0.002790     -0.000666     -0.001042      0.000000
     24 Si    c       0.001251      0.001522     -0.000780      0.000000
     25 O2    c      -0.000739     -0.000148      0.000232      0.000000
     26 O2    c       0.000599      0.000122      0.000348      0.000000
     27 O2    c      -0.001898      0.001356     -0.000199      0.000000
     28 O2    c       0.000856     -0.000584     -0.000050      0.000000
     29 O2    c      -0.000050     -0.000395     -0.000304      0.000000
     30 O2    c      -0.000173      0.000131     -0.000096      0.000000
     31 O2    c      -0.000747      0.000280      0.000197      0.000000
     32 O2    c       0.000204      0.000398      0.000129      0.000000
     33 O2    c       0.008813      0.000591     -0.004484      0.000000
     34 O2    c       0.006121     -0.000165      0.001393      0.000000
     35 O2    c      -0.004428      0.000571     -0.000410      0.000000
     36 O3    c      -0.007445     -0.001609      0.003164      0.000000
     37 O2    c      -0.008373      0.000212     -0.003168      0.000000
     38 O2    c      -0.002397     -0.000050      0.001181      0.000000
     39 O3    c      -0.000184      0.001116      0.001666      0.000000
     40 O3    c       0.002459      0.000529      0.001872      0.000000
     41 O2    c       0.000491     -0.000399     -0.000270      0.000000
     42 O2    c       0.000063     -0.000471     -0.000402      0.000000
     43 O2    c       0.000250      0.000253     -0.000242      0.000000
     44 O3    c       0.000892      0.001041     -0.000316      0.000000
     45 O3    c       0.000782     -0.000283      0.001720      0.000000
     46 O2    c      -0.001059      0.000305      0.000705      0.000000
     47 O3    c       0.004549     -0.000965     -0.000730      0.000000
     48 O2    c       0.005137      0.001771     -0.001149      0.000000
     49 O2    c       0.000429     -0.000653     -0.000343      0.000000
     50 O2    c      -0.000365      0.001132     -0.000204      0.000000
     51 O2    c      -0.001285     -0.000011      0.001158      0.000000
     52 O2    c      -0.000342     -0.000145      0.000059      0.000000
     53 O2    c      -0.001445      0.000115     -0.000171      0.000000
     54 O2    c       0.001453     -0.000088     -0.000027      0.000000
     55 O2    c       0.001329      0.000022     -0.000248      0.000000
     56 O2    c       0.002264      0.000073      0.000085      0.000000
     57 O3    c       0.001170      0.000729      0.001306      0.000000
     58 O2    c      -0.000251     -0.000188      0.000082      0.000000
     59 O2    c      -0.001372      0.000745     -0.000051      0.000000
     60 O2    c      -0.000716      0.000132      0.000652      0.000000
     61 O3    c      -0.000930     -0.000937     -0.001202      0.000000
     62 O2    c       0.000353      0.000068      0.000987      0.000000
     63 O2    c       0.000125     -0.000269     -0.000184      0.000000
     64 O2    c       0.000074      0.000154     -0.000414      0.000000
     65 O2    c       0.000403     -0.000392     -0.000517      0.000000
     66 O3    c      -0.002363      0.000405     -0.002587      0.000000
     67 O2    c      -0.000753      0.000401      0.000290      0.000000
     68 O3    c       0.001669     -0.000779      0.000492      0.000000
     69 O2    c       0.000812      0.000131      0.000179      0.000000
     70 O3    c      -0.001386     -0.000513     -0.000962      0.000000
     71 O3    c      -0.005646      0.000864      0.001127      0.000000
     72 O2    c       0.003365     -0.000126      0.000046      0.000000
     73 O2    s       0.002223      0.000285     -0.000306      0.000000
     74 O2    s      -0.002538     -0.000589     -0.000458      0.000000
     75 O2    s      -0.003603      0.000713      0.000915      0.000000
     76 O2    s       0.000500     -0.000050     -0.000154      0.000000
     77 O2    s      -0.003302     -0.001129      0.000989      0.000000
     78 O2    s       0.000761      0.000312      0.000179      0.000000
     79 O2    s       0.001529     -0.000181     -0.000125      0.000000
     80 O2    s      -0.002713      0.000188     -0.000801      0.000000
     81 O2    s      -0.000865     -0.000121     -0.000426      0.000000
     82 O2    s      -0.000715     -0.000080      0.001241      0.000000
     83 O2    s       0.001678      0.000182      0.000576      0.000000
     84 O3    s       0.001126     -0.000308     -0.002193      0.000000
     85 O2    s       0.001953     -0.000239      0.001399      0.000000
     86 O2    s      -0.000701      0.000345     -0.000199      0.000000
     87 O3    s       0.001676      0.000610     -0.002315      0.000000
     88 O3    s      -0.002991     -0.001387     -0.000936      0.000000
     89 O2    s      -0.001113      0.000327      0.000215      0.000000
     90 O2    s       0.002375     -0.000575      0.000545      0.000000
     91 O2    s      -0.001070     -0.000537      0.000503      0.000000
     92 O3    s       0.003478      0.000261      0.000727      0.000000
     93 O3    s       0.002569     -0.000700     -0.000696      0.000000
     94 O2    s      -0.001231      0.000531     -0.000958      0.000000
     95 O3    s      -0.003650      0.000564     -0.000126      0.000000
     96 O2    s      -0.000539      0.000043      0.001327      0.000000
     97 O2    s       0.001444     -0.000405     -0.000379      0.000000
     98 O2    s      -0.001022      0.000124     -0.000488      0.000000
     99 O2    s      -0.002110     -0.000087      0.001148      0.000000
    100 O2    s       0.000839     -0.000106      0.000081      0.000000
    101 O2    s      -0.001103      0.000343     -0.000904      0.000000
    102 O2    s       0.000514     -0.000514     -0.000775      0.000000
    103 O2    s       0.001438      0.000605      0.001281      0.000000
    104 O2    s       0.000424     -0.000674      0.000991      0.000000
    105 O3    s       0.000524      0.000090     -0.000461      0.000000
    106 O2    s      -0.001167     -0.000300     -0.000398      0.000000
    107 O2    s      -0.001328      0.000063      0.000420      0.000000
    108 O2    s       0.002993     -0.000844     -0.000109      0.000000
    109 O3    s      -0.001349      0.000221      0.000338      0.000000
    110 O2    s       0.000737      0.000061      0.000377      0.000000
    111 O2    s       0.000633      0.000032      0.000285      0.000000
    112 O2    s      -0.001200      0.000086     -0.000269      0.000000
    113 O2    s       0.001254      0.000159     -0.000575      0.000000
    114 O3    s      -0.002383     -0.000530     -0.000118      0.000000
    115 O2    s      -0.000964      0.000246      0.000582      0.000000
    116 O3    s       0.000690     -0.000122      0.000456      0.000000
    117 O2    s       0.000552      0.000710     -0.002171      0.000000
    118 O3    s       0.000246     -0.000843     -0.000574      0.000000
    119 O3    s       0.002287      0.000025      0.000738      0.000000
    120 O2    s       0.000174     -0.000184      0.000984      0.000000
--------------------------------------------------------------------------------
  Maximum abs         0.008813      0.002076      0.004484      0.000000
--------------------------------------------------------------------------------


  Born effective charge tensors : 

-------------------------------------------------------------------------------
  Atom             x           y             z
-------------------------------------------------------------------------------
    1 Ge    x       4.2909      0.2617     -0.1618
            y      -0.1904      3.8994     -0.0450
            z      -0.7700     -0.0506      3.7370
-------------------------------------------------------------------------------
    2 Ge    x       4.0243      0.3295      0.1276
            y       0.3881      4.1993      0.2061
            z       0.2635      0.0366      3.3126
-------------------------------------------------------------------------------
    3 Ge    x       3.9710      0.4131      0.2207
            y       0.0913      4.1703      0.3253
            z       0.1893      0.0897      3.3830
-------------------------------------------------------------------------------
    4 Si    x       3.4151     -0.1066     -0.2544
            y       0.1134      3.2270      0.0383
            z      -0.4898      0.0160      3.7866
-------------------------------------------------------------------------------
    5 Si    x       3.6064     -0.1769     -0.0397
            y       0.1006      3.2874      0.0489
            z       0.4690      0.0623      4.0626
-------------------------------------------------------------------------------
    6 Si    x       3.4832      0.1038     -0.1583
            y      -0.1107      3.2083     -0.0068
            z      -0.5619     -0.0367      3.7589
-------------------------------------------------------------------------------
    7 Si    x       3.4762      0.1234      0.3344
            y      -0.0976      3.2533     -0.0231
            z       0.3176      0.0918      3.7781
-------------------------------------------------------------------------------
    8 Si    x       3.4822      0.3622      0.3076
            y      -0.1946      3.5078      0.0093
            z       0.4511      0.1500      3.1766
-------------------------------------------------------------------------------
    9 Si    x       3.6886     -0.2218     -0.2449
            y       0.1680      3.3157     -0.0130
            z      -0.2995     -0.0769      3.3016
-------------------------------------------------------------------------------
   10 Si    x       3.6705      0.0388      0.1766
            y       0.3310      3.3856     -0.0509
            z       0.6146     -0.0073      3.1381
-------------------------------------------------------------------------------
   11 Si    x       3.2680      0.3376     -0.0772
            y       0.1979      3.5842     -0.1075
            z      -0.1258      0.0520      3.0869
-------------------------------------------------------------------------------
   12 Si    x       3.1938      0.3090      0.1387
            y       0.1500      3.4431      0.1604
            z       0.1061      0.0662      2.8228
-------------------------------------------------------------------------------
   13 Si    x       3.2286     -0.3273     -0.1410
            y      -0.1807      3.4444      0.1538
            z      -0.1415      0.0538      2.7871
-------------------------------------------------------------------------------
   14 Si    x       3.2369     -0.3233      0.0582
            y      -0.1865      3.5029     -0.1612
            z       0.1528     -0.0621      2.7731
-------------------------------------------------------------------------------
   15 Si    x       3.2929      0.2810     -0.0028
            y       0.3128      3.5338     -0.1185
            z      -0.0416     -0.0147      3.1024
-------------------------------------------------------------------------------
   16 Si    x       3.2334      0.2316      0.0331
            y       0.2899      3.4590      0.2286
            z       0.1034      0.0607      2.7864
-------------------------------------------------------------------------------
   17 Si    x       3.2139     -0.2410     -0.0423
            y      -0.2767      3.4352      0.1979
            z      -0.0920      0.0561      2.8125
-------------------------------------------------------------------------------
   18 Si    x       3.1652     -0.2400      0.0412
            y      -0.2697      3.4333     -0.1719
            z       0.1383     -0.0855      2.8100
-------------------------------------------------------------------------------
   19 Si    x       3.5023      0.3898     -0.3168
            y       0.3725      3.4654     -0.3378
            z      -0.3231     -0.1406      2.9095
-------------------------------------------------------------------------------
   20 Si    x       3.5856     -0.2011      0.0288
            y      -0.2155      3.5050      0.1831
            z      -0.1493      0.0998      2.8209
-------------------------------------------------------------------------------
   21 Si    x       3.3591     -0.1914      0.1828
            y      -0.1094      3.7172     -0.1454
            z       0.1873      0.0132      2.7961
-------------------------------------------------------------------------------
   22 Si    x       3.1964      0.3607     -0.1844
            y       0.0516      3.4145     -0.1822
            z      -0.1121     -0.0782      2.7745
-------------------------------------------------------------------------------
   23 Si    x       3.7268     -0.5098     -0.1782
            y      -0.2064      3.6463      0.3950
            z      -0.1613      0.1998      2.9780
-------------------------------------------------------------------------------
   24 Si    x       3.3200     -0.2838      0.1616
            y       0.1024      3.7062     -0.0705
            z       0.1613     -0.0366      2.8052
-------------------------------------------------------------------------------
   25 O2    x      -1.7537     -0.7194      0.3063
            y      -0.7458     -1.9381      0.3062
            z       0.3527      0.2978     -1.3459
-------------------------------------------------------------------------------
   26 O2    x      -1.7309     -0.7017     -0.3137
            y      -0.7195     -1.9355     -0.3532
            z      -0.3548     -0.3218     -1.3688
-------------------------------------------------------------------------------
   27 O2    x      -1.7510      0.7208      0.3093
            y       0.7474     -1.9381     -0.3336
            z       0.3734     -0.3236     -1.3594
-------------------------------------------------------------------------------
   28 O2    x      -1.8029      0.7493     -0.3705
            y       0.7834     -1.9781      0.3781
            z      -0.3851      0.3424     -1.3273
-------------------------------------------------------------------------------
   29 O2    x      -1.6493     -0.7043      0.2866
            y      -0.6608     -2.0054      0.3009
            z       0.3595      0.3112     -1.3536
-------------------------------------------------------------------------------
   30 O2    x      -1.6893     -0.7174     -0.3502
            y      -0.6790     -2.0070     -0.3409
            z      -0.3566     -0.3290     -1.3499
-------------------------------------------------------------------------------
   31 O2    x      -1.6413      0.7036      0.3339
            y       0.6540     -1.9945     -0.3627
            z       0.3645     -0.3463     -1.3766
-------------------------------------------------------------------------------
   32 O2    x      -1.6266      0.6883     -0.2926
            y       0.6459     -2.0195      0.3199
            z      -0.3819      0.3237     -1.3468
-------------------------------------------------------------------------------
   33 O2    x      -1.6996     -0.0231      0.8592
            y      -0.0159     -1.0804      0.0154
            z       1.1231      0.0447     -2.7013
-------------------------------------------------------------------------------
   34 O2    x      -1.6593     -0.0042     -0.8247
            y       0.0039     -1.0983     -0.0051
            z      -1.0182     -0.0334     -2.7058
-------------------------------------------------------------------------------
   35 O2    x      -1.6044     -0.0286     -0.6678
            y       0.0184     -1.1315     -0.0367
            z      -0.6159     -0.0539     -2.2463
-------------------------------------------------------------------------------
   36 O3    x      -2.0943      0.0221      1.0223
            y       0.0156     -1.2643     -0.0423
            z       1.0179     -0.0607     -2.7759
-------------------------------------------------------------------------------
   37 O2    x      -1.7519      0.0067     -0.7285
            y      -0.0011     -1.1120      0.0073
            z      -0.7435      0.0081     -2.1951
-------------------------------------------------------------------------------
   38 O2    x      -1.7222     -0.0091      0.6844
            y      -0.0334     -1.1089      0.0157
            z       0.6633      0.0133     -2.1883
-------------------------------------------------------------------------------
   39 O3    x      -2.0162     -0.9300      0.5182
            y      -0.8066     -2.3578      0.5187
            z       0.5641      0.5077     -1.5146
-------------------------------------------------------------------------------
   40 O3    x      -1.9131     -0.8280     -0.4004
            y      -0.6916     -2.6088     -0.4147
            z      -0.4384     -0.4128     -1.3727
-------------------------------------------------------------------------------
   41 O2    x      -1.6402      0.6529      0.3701
            y       0.5181     -2.0536     -0.4400
            z       0.3640     -0.4025     -1.2697
-------------------------------------------------------------------------------
   42 O2    x      -1.6383      0.6256     -0.3497
            y       0.5674     -1.9257      0.3879
            z      -0.3744      0.3340     -1.3044
-------------------------------------------------------------------------------
   43 O2    x      -1.7360     -0.7009      0.4085
            y      -0.6380     -1.9124      0.4076
            z       0.3525      0.3803     -1.2944
-------------------------------------------------------------------------------
   44 O3    x      -2.1535     -0.9424     -0.3737
            y      -0.9255     -2.2594     -0.4340
            z      -0.3732     -0.3522     -1.4678
-------------------------------------------------------------------------------
   45 O3    x      -2.0791      0.9064      0.4213
            y       0.8935     -2.2676     -0.5175
            z       0.4648     -0.4806     -1.5381
-------------------------------------------------------------------------------
   46 O2    x      -1.8356      0.6148     -0.3637
            y       0.6280     -1.8198      0.3526
            z      -0.3588      0.3132     -1.2536
-------------------------------------------------------------------------------
   47 O3    x      -2.2187      0.1160     -0.8015
            y       0.1083     -1.3731      0.0648
            z      -0.4652      0.0249     -1.9906
-------------------------------------------------------------------------------
   48 O2    x      -1.7119     -0.0192      0.5287
            y      -0.0014     -1.2352      0.0023
            z       0.2770     -0.0289     -1.7491
-------------------------------------------------------------------------------
   49 O2    x      -1.1880      0.0556      0.0337
            y       0.1081     -2.5919      0.0519
            z       0.0578      0.0545     -1.0497
-------------------------------------------------------------------------------
   50 O2    x      -1.1657      0.0480     -0.0622
            y       0.0919     -2.5344      0.0239
            z      -0.0825      0.0120     -1.0714
-------------------------------------------------------------------------------
   51 O2    x      -1.1826     -0.0645      0.0584
            y      -0.1152     -2.5583      0.0231
            z       0.0769      0.0089     -1.0639
-------------------------------------------------------------------------------
   52 O2    x      -1.1864     -0.0599     -0.0390
            y      -0.1238     -2.5990     -0.0426
            z      -0.0666      0.0010     -1.0429
-------------------------------------------------------------------------------
   53 O2    x      -2.3733     -0.1026      0.0036
            y      -0.0626     -1.2545      0.0693
            z      -0.0029      0.0399     -1.0851
-------------------------------------------------------------------------------
   54 O2    x      -2.4157     -0.0932     -0.0373
            y      -0.0333     -1.2439     -0.0678
            z      -0.0070     -0.0391     -1.0633
-------------------------------------------------------------------------------
   55 O2    x      -2.4109      0.1060      0.0755
            y       0.0510     -1.2432     -0.0768
            z       0.0361     -0.0415     -1.0793
-------------------------------------------------------------------------------
   56 O2    x      -2.3947      0.1134      0.1224
            y       0.0496     -1.2627      0.0603
            z       0.0998      0.0322     -1.0809
-------------------------------------------------------------------------------
   57 O3    x      -1.3112     -0.1526     -0.0244
            y      -0.0922     -1.4949     -0.1029
            z       0.0054     -0.1062     -2.5984
-------------------------------------------------------------------------------
   58 O2    x      -1.1742     -0.1328      0.0475
            y      -0.0775     -1.2845     -0.0219
            z       0.0234     -0.0170     -2.0930
-------------------------------------------------------------------------------
   59 O2    x      -1.1927      0.1355     -0.0618
            y       0.0751     -1.2717      0.0325
            z      -0.0278      0.0593     -2.0786
-------------------------------------------------------------------------------
   60 O2    x      -1.1975      0.1210     -0.0023
            y       0.0646     -1.3300      0.0285
            z      -0.0386      0.0127     -2.0466
-------------------------------------------------------------------------------
   61 O3    x      -1.3617     -0.1556     -0.1908
            y      -0.1560     -1.4424     -0.0410
            z      -0.1905      0.0198     -2.6170
-------------------------------------------------------------------------------
   62 O2    x      -1.2256     -0.1420     -0.0105
            y      -0.1269     -1.2985     -0.0010
            z      -0.0023     -0.0132     -2.0375
-------------------------------------------------------------------------------
   63 O2    x      -1.2355      0.1444     -0.0351
            y       0.1286     -1.2792      0.0109
            z      -0.0362      0.0016     -2.0580
-------------------------------------------------------------------------------
   64 O2    x      -1.1853      0.1069      0.0920
            y       0.1031     -1.2861     -0.0084
            z       0.0980      0.0126     -2.1083
-------------------------------------------------------------------------------
   65 O2    x      -1.2625     -0.0555      0.0829
            y      -0.1294     -2.3960     -0.0420
            z       0.1040     -0.0202     -1.0478
-------------------------------------------------------------------------------
   66 O3    x      -1.4833     -0.2320     -0.1236
            y      -0.3331     -3.0575     -0.0722
            z      -0.1701     -0.1055     -1.1479
-------------------------------------------------------------------------------
   67 O2    x      -1.2486      0.0990      0.0828
            y       0.1722     -2.4889      0.0194
            z       0.1089     -0.0083     -1.0367
-------------------------------------------------------------------------------
   68 O3    x      -1.4126     -0.0235     -0.1057
            y       0.0793     -3.1435     -0.0641
            z      -0.1260     -0.0584     -1.1284
-------------------------------------------------------------------------------
   69 O2    x      -2.3994      0.2057      0.0452
            y       0.1374     -1.2556      0.0485
            z       0.0255      0.0221     -1.0748
-------------------------------------------------------------------------------
   70 O3    x      -3.0196      0.1516     -0.0274
            y       0.0753     -1.3754     -0.0793
            z      -0.0406     -0.0316     -1.2170
-------------------------------------------------------------------------------
   71 O3    x      -3.0134     -0.1860     -0.1261
            y      -0.1546     -1.3983     -0.1105
            z      -0.1204     -0.0660     -1.2239
-------------------------------------------------------------------------------
   72 O2    x      -2.4711     -0.0841     -0.0191
            y      -0.0287     -1.2292      0.0526
            z      -0.0212      0.0160     -1.0545
-------------------------------------------------------------------------------




  Elastic Constant Matrix: (Units=GPa)

-------------------------------------------------------------------------------
  Indices      1         2         3         4         5         6    
-------------------------------------------------------------------------------
       1     55.0618   28.9335   29.3431   -0.8718   -3.1346    0.4340
       2     28.9335   76.3796   25.8173   -1.1729   -3.2527    0.4768
       3     29.3431   25.8173   32.9329   -1.0411   -1.2671    2.1733
       4     -0.8718   -1.1729   -1.0411   12.7661    0.5319    0.0791
       5     -3.1346   -3.2527   -1.2671    0.5319   24.9756    0.8668
       6      0.4340    0.4768    2.1733    0.0791    0.8668   27.8056
-------------------------------------------------------------------------------


  Elastic Compliance Matrix: (Units=1/GPa)

-------------------------------------------------------------------------------
  Indices      1         2         3         4         5         6    
-------------------------------------------------------------------------------
       1    0.035585 -0.003625 -0.028893 -0.000373  0.002478  0.001689
       2   -0.003625  0.018264 -0.011060  0.000469  0.001333  0.000565
       3   -0.028893 -0.011060  0.065081  0.002415 -0.001664 -0.004401
       4   -0.000373  0.000469  0.002415  0.078613 -0.001525 -0.000367
       5    0.002478  0.001333 -0.001664 -0.001525  0.040513 -0.001190
       6    0.001689  0.000565 -0.004401 -0.000367 -0.001190  0.036310
-------------------------------------------------------------------------------

  Mechanical properties :

-------------------------------------------------------------------------------
  Convention :                    Reuss         Voigt         Hill
-------------------------------------------------------------------------------
  Bulk  Modulus (GPa)     =      31.46988      36.95134      34.21061
  Shear Modulus (GPa)     =      13.43680      18.46148      15.94914
-------------------------------------------------------------------------------
  Velocity S-wave (km/s)  =       2.61272       3.06252       2.84652
  Velocity P-wave (km/s)  =       5.00894       5.59266       5.30883
-------------------------------------------------------------------------------
  Compressibility (1/GPa) =    0.03177641
-------------------------------------------------------------------------------
  Stress axis :                     x             y             z
-------------------------------------------------------------------------------
  Youngs Moduli (GPa)     =      28.10158      54.75153      15.36555
-------------------------------------------------------------------------------
  Poissons Ratio (x)      =                     0.19846       0.44395
  Poissons Ratio (y)      =       0.10186                     0.16994
  Poissons Ratio (z)      =       0.81193       0.60553
-------------------------------------------------------------------------------


  Piezoelectric Strain Matrix: (Units=C/m**2)

-------------------------------------------------------------------------------
  Indices      1         2         3         4         5         6    
-------------------------------------------------------------------------------
       x    -0.16050  -0.51483  -1.01779   0.34609   0.05314   0.19895
       y     0.10675   0.36062   0.07160  -0.01505   0.58515  -0.02110
       z     0.08062  -0.21705  -0.09213  -0.02104   0.07388   0.03782
-------------------------------------------------------------------------------


  Piezoelectric Stress Matrix: (Units=10**-11 C/N)

-------------------------------------------------------------------------------
  Indices      1         2         3         4         5         6    
-------------------------------------------------------------------------------
       x     2.58997   0.27807  -5.60354   2.44134   0.19975   1.09509
       y     0.18426   0.61686  -0.33296  -0.17649   2.43802  -0.13881
       z     0.65721  -0.31276  -0.62647  -0.21349   0.30438   0.17122
-------------------------------------------------------------------------------


  Static dielectric constant tensor : 

-------------------------------------------------------------------------------
              x         y         z
-------------------------------------------------------------------------------
       x     4.10323   0.04457  -0.04079
       y     0.04457   4.19061  -0.02775
       z    -0.04079  -0.02775   3.22670
--------------------------------------------------------------------------------

  High frequency dielectric constant tensor : 

-------------------------------------------------------------------------------
              x         y         z
-------------------------------------------------------------------------------
       x     1.68344  -0.00010  -0.00053
       y    -0.00010   1.69068   0.00051
       z    -0.00053   0.00051   1.62458
-------------------------------------------------------------------------------

  Static refractive indices : 

-------------------------------------------------------------------------------
    1 =    1.79558      2 =    2.02122      3 =    2.05209
-------------------------------------------------------------------------------

  High frequency refractive indices : 

-------------------------------------------------------------------------------
    1 =    1.27459      2 =    1.29747      3 =    1.30027
-------------------------------------------------------------------------------


  Time to end of optimisation =       8.7269 seconds


  Peak dynamic memory used =       5.01 MB 


  Timing analysis for GULP :

--------------------------------------------------------------------------------
  Task / Subroutine                                          Time (Seconds)
--------------------------------------------------------------------------------
  Calculation of reciprocal space energy and derivatives          0.5102
  Calculation of real space energy and derivatives                5.1957
  Calculation of three-body energy and derivatives                0.4848
  Calculation and manipulation of Hessian matrix                  2.7485
  Calculation of matrix inversion                                 0.0320
  Global summation overhead                                       0.0001
--------------------------------------------------------------------------------
  Total CPU time                                                  8.7269
--------------------------------------------------------------------------------


  Dump file written as c00193.vasp.grs
  CIF file written as c00193.vasp.cif


  Job Finished at 12:00.54  7th October    2025                               

