********************************************************************************
*                       GENERAL UTILITY LATTICE PROGRAM                        *
*                                 Julian Gale                                  *
*                       Curtin Institute for Computation                       *
*                    School of Molecular and Life Sciences                     *
*                    Curtin University, Western Australia                      *
********************************************************************************
* Version = 6.1.2 * Last modified =   3rd November 2022                        *
********************************************************************************
*  optimise     - perform optimisation run                                     *
*  conp         - constant pressure calculation                                *
*  property     - calculate properties for final geometry                      *
********************************************************************************

  Job Started  at 11:53.01  7th October    2025                               

  Number of CPUs =     1


  Total number of configurations input =      1

********************************************************************************
*  Input for Configuration =   1 : c00152.vasp                                 *
********************************************************************************

  Formula = Ge3Si21O48                                                  

  Number of irreducible atoms/shells =     120


  Total number atoms/shells =     120

  Dimensionality = 3               :  Bulk   



  Cartesian lattice vectors (Angstroms) :

       17.182800    0.000000    0.000000
        0.000000    7.513760    0.000000
        0.000000    0.000000   10.447700

  Cell parameters (Angstroms/Degrees):

  a =      17.1828    alpha =  90.0000
  b =       7.5138    beta  =  90.0000
  c =      10.4477    gamma =  90.0000

  Initial cell volume =        1348.875752 Angs**3

  Temperature of configuration =   0.00     K 

  Pressure of configuration =         0.000 GPa 

  Fractional coordinates of asymmetric unit :

--------------------------------------------------------------------------------
   No.  Atomic       x           y          z         Charge      Occupancy
        Label      (Frac)      (Frac)     (Frac)        (e)         (Frac)  
--------------------------------------------------------------------------------
      1 Ge    c    0.556730    0.000000    0.122130     4.00000    1.000000    
      2 Ge    c    0.339810 *  0.706090 *  0.273440 *   4.00000    1.000000    
      3 Ge    c    0.839810 *  0.706090 *  0.726560 *   4.00000    1.000000    
      4 Si    c    0.052090 *  0.000000 *  0.372270 *   4.00000    1.000000    
      5 Si    c    0.447910 *  0.000000 *  0.372270 *   4.00000    1.000000    
      6 Si    c    0.947910 *  0.000000 *  0.627730 *   4.00000    1.000000    
      7 Si    c    0.552090 *  0.000000 *  0.627730 *   4.00000    1.000000    
      8 Si    c    0.943270 *  0.000000 *  0.122130 *   4.00000    1.000000    
      9 Si    c    0.443270 *  0.000000 *  0.877870 *   4.00000    1.000000    
     10 Si    c    0.056730 *  0.000000 *  0.877870 *   4.00000    1.000000    
     11 Si    c    0.160190 *  0.293910 *  0.273440 *   4.00000    1.000000    
     12 Si    c    0.839810 *  0.293910 *  0.726560 *   4.00000    1.000000    
     13 Si    c    0.660190 *  0.706090 *  0.726560 *   4.00000    1.000000    
     14 Si    c    0.660190 *  0.293910 *  0.726560 *   4.00000    1.000000    
     15 Si    c    0.160190 *  0.706090 *  0.273440 *   4.00000    1.000000    
     16 Si    c    0.339810 *  0.293910 *  0.273440 *   4.00000    1.000000    
     17 Si    c    0.660660 *  0.294090 *  0.017440 *   4.00000    1.000000    
     18 Si    c    0.839340 *  0.705910 *  0.017440 *   4.00000    1.000000    
     19 Si    c    0.339340 *  0.294090 *  0.982560 *   4.00000    1.000000    
     20 Si    c    0.160660 *  0.705910 *  0.982560 *   4.00000    1.000000    
     21 Si    c    0.339340 *  0.705910 *  0.982560 *   4.00000    1.000000    
     22 Si    c    0.160660 *  0.294090 *  0.982560 *   4.00000    1.000000    
     23 Si    c    0.660660 *  0.705910 *  0.017440 *   4.00000    1.000000    
     24 Si    c    0.839340 *  0.294090 *  0.017440 *   4.00000    1.000000    
     25 O2    c    0.106570 *  0.174340 *  0.366200 *   0.87073    1.000000    
     26 O3    c    0.393430 *  0.825660 *  0.366200 *   1.33043    1.000000    
     27 O2    c    0.893430 *  0.174340 *  0.633800 *   0.87073    1.000000    
     28 O2    c    0.606570 *  0.825660 *  0.633800 *   0.87073    1.000000    
     29 O3    c    0.893430 *  0.825660 *  0.633800 *   1.33043    1.000000    
     30 O2    c    0.606570 *  0.174340 *  0.633800 *   0.87073    1.000000    
     31 O2    c    0.106570 *  0.825660 *  0.366200 *   0.87073    1.000000    
     32 O2    c    0.393430 *  0.174340 *  0.366200 *   0.87073    1.000000    
     33 O2    c    0.000000 *  0.000000 *  0.500000 *   0.87073    1.000000    
     34 O2    c    0.500000 *  0.000000 *  0.500000 *   0.87073    1.000000    
     35 O2    c    0.994520 *  0.000000 *  0.250840 *   0.87073    1.000000    
     36 O3    c    0.505480 *  0.000000 *  0.250840 *   1.33043    1.000000    
     37 O2    c    0.005480 *  0.000000 *  0.749160 *   0.87073    1.000000    
     38 O2    c    0.494520 *  0.000000 *  0.749160 *   0.87073    1.000000    
     39 O3    c    0.610230 *  0.175520 *  0.115390 *   1.33043    1.000000    
     40 O2    c    0.889770 *  0.824480 *  0.115390 *   0.87073    1.000000    
     41 O2    c    0.389770 *  0.175520 *  0.884610 *   0.87073    1.000000    
     42 O2    c    0.110230 *  0.824480 *  0.884610 *   0.87073    1.000000    
     43 O2    c    0.389770 *  0.824480 *  0.884610 *   0.87073    1.000000    
     44 O2    c    0.110230 *  0.175520 *  0.884610 *   0.87073    1.000000    
     45 O3    c    0.610230 *  0.824480 *  0.115390 *   1.33043    1.000000    
     46 O2    c    0.889770 *  0.175520 *  0.115390 *   0.87073    1.000000    
     47 O3    c    0.500000 *  0.000000 *  0.000000 *   1.33043    1.000000    
     48 O2    c    0.000000 *  0.000000 *  0.000000 *   0.87073    1.000000    
     49 O2    c    0.151750 *  0.500000 *  0.313330 *   0.87073    1.000000    
     50 O3    c    0.348250 *  0.500000 *  0.313330 *   1.33043    1.000000    
     51 O3    c    0.848250 *  0.500000 *  0.686670 *   1.33043    1.000000    
     52 O2    c    0.651750 *  0.500000 *  0.686670 *   0.87073    1.000000    
     53 O2    c    0.250000 *  0.234950 *  0.285720 *   0.87073    1.000000    
     54 O3    c    0.250000 *  0.765050 *  0.285720 *   1.33043    1.000000    
     55 O2    c    0.750000 *  0.234950 *  0.714280 *   0.87073    1.000000    
     56 O3    c    0.750000 *  0.765050 *  0.714280 *   1.33043    1.000000    
     57 O2    c    0.131410 *  0.268650 *  0.127790 *   0.87073    1.000000    
     58 O3    c    0.368590 *  0.731350 *  0.127790 *   1.33043    1.000000    
     59 O2    c    0.868590 *  0.268650 *  0.872210 *   0.87073    1.000000    
     60 O2    c    0.631410 *  0.731350 *  0.872210 *   0.87073    1.000000    
     61 O3    c    0.868590 *  0.731350 *  0.872210 *   1.33043    1.000000    
     62 O2    c    0.631410 *  0.268650 *  0.872210 *   0.87073    1.000000    
     63 O2    c    0.131410 *  0.731350 *  0.127790 *   0.87073    1.000000    
     64 O2    c    0.368590 *  0.268650 *  0.127790 *   0.87073    1.000000    
     65 O2    c    0.653920 *  0.500000 *  0.058200 *   0.87073    1.000000    
     66 O2    c    0.846080 *  0.500000 *  0.058200 *   0.87073    1.000000    
     67 O2    c    0.346080 *  0.500000 *  0.941800 *   0.87073    1.000000    
     68 O2    c    0.153920 *  0.500000 *  0.941800 *   0.87073    1.000000    
     69 O2    c    0.750000 *  0.231060 *  0.027050 *   0.87073    1.000000    
     70 O2    c    0.750000 *  0.768940 *  0.027050 *   0.87073    1.000000    
     71 O2    c    0.250000 *  0.231060 *  0.972950 *   0.87073    1.000000    
     72 O2    c    0.250000 *  0.768940 *  0.972950 *   0.87073    1.000000    
     73 O2    s    0.106570 *  0.174340 *  0.366200 *  -2.87073    1.000000    
     74 O3    s    0.393430 *  0.825660 *  0.366200 *  -3.33043    1.000000    
     75 O2    s    0.893430 *  0.174340 *  0.633800 *  -2.87073    1.000000    
     76 O2    s    0.606570 *  0.825660 *  0.633800 *  -2.87073    1.000000    
     77 O3    s    0.893430 *  0.825660 *  0.633800 *  -3.33043    1.000000    
     78 O2    s    0.606570 *  0.174340 *  0.633800 *  -2.87073    1.000000    
     79 O2    s    0.106570 *  0.825660 *  0.366200 *  -2.87073    1.000000    
     80 O2    s    0.393430 *  0.174340 *  0.366200 *  -2.87073    1.000000    
     81 O2    s    0.000000 *  0.000000 *  0.500000 *  -2.87073    1.000000    
     82 O2    s    0.500000 *  0.000000 *  0.500000 *  -2.87073    1.000000    
     83 O2    s    0.994520 *  0.000000 *  0.250840 *  -2.87073    1.000000    
     84 O3    s    0.505480 *  0.000000 *  0.250840 *  -3.33043    1.000000    
     85 O2    s    0.005480 *  0.000000 *  0.749160 *  -2.87073    1.000000    
     86 O2    s    0.494520 *  0.000000 *  0.749160 *  -2.87073    1.000000    
     87 O3    s    0.610230 *  0.175520 *  0.115390 *  -3.33043    1.000000    
     88 O2    s    0.889770 *  0.824480 *  0.115390 *  -2.87073    1.000000    
     89 O2    s    0.389770 *  0.175520 *  0.884610 *  -2.87073    1.000000    
     90 O2    s    0.110230 *  0.824480 *  0.884610 *  -2.87073    1.000000    
     91 O2    s    0.389770 *  0.824480 *  0.884610 *  -2.87073    1.000000    
     92 O2    s    0.110230 *  0.175520 *  0.884610 *  -2.87073    1.000000    
     93 O3    s    0.610230 *  0.824480 *  0.115390 *  -3.33043    1.000000    
     94 O2    s    0.889770 *  0.175520 *  0.115390 *  -2.87073    1.000000    
     95 O3    s    0.500000 *  0.000000 *  0.000000 *  -3.33043    1.000000    
     96 O2    s    0.000000 *  0.000000 *  0.000000 *  -2.87073    1.000000    
     97 O2    s    0.151750 *  0.500000 *  0.313330 *  -2.87073    1.000000    
     98 O3    s    0.348250 *  0.500000 *  0.313330 *  -3.33043    1.000000    
     99 O3    s    0.848250 *  0.500000 *  0.686670 *  -3.33043    1.000000    
    100 O2    s    0.651750 *  0.500000 *  0.686670 *  -2.87073    1.000000    
    101 O2    s    0.250000 *  0.234950 *  0.285720 *  -2.87073    1.000000    
    102 O3    s    0.250000 *  0.765050 *  0.285720 *  -3.33043    1.000000    
    103 O2    s    0.750000 *  0.234950 *  0.714280 *  -2.87073    1.000000    
    104 O3    s    0.750000 *  0.765050 *  0.714280 *  -3.33043    1.000000    
    105 O2    s    0.131410 *  0.268650 *  0.127790 *  -2.87073    1.000000    
    106 O3    s    0.368590 *  0.731350 *  0.127790 *  -3.33043    1.000000    
    107 O2    s    0.868590 *  0.268650 *  0.872210 *  -2.87073    1.000000    
    108 O2    s    0.631410 *  0.731350 *  0.872210 *  -2.87073    1.000000    
    109 O3    s    0.868590 *  0.731350 *  0.872210 *  -3.33043    1.000000    
    110 O2    s    0.631410 *  0.268650 *  0.872210 *  -2.87073    1.000000    
    111 O2    s    0.131410 *  0.731350 *  0.127790 *  -2.87073    1.000000    
    112 O2    s    0.368590 *  0.268650 *  0.127790 *  -2.87073    1.000000    
    113 O2    s    0.653920 *  0.500000 *  0.058200 *  -2.87073    1.000000    
    114 O2    s    0.846080 *  0.500000 *  0.058200 *  -2.87073    1.000000    
    115 O2    s    0.346080 *  0.500000 *  0.941800 *  -2.87073    1.000000    
    116 O2    s    0.153920 *  0.500000 *  0.941800 *  -2.87073    1.000000    
    117 O2    s    0.750000 *  0.231060 *  0.027050 *  -2.87073    1.000000    
    118 O2    s    0.750000 *  0.768940 *  0.027050 *  -2.87073    1.000000    
    119 O2    s    0.250000 *  0.231060 *  0.972950 *  -2.87073    1.000000    
    120 O2    s    0.250000 *  0.768940 *  0.972950 *  -2.87073    1.000000    
--------------------------------------------------------------------------------



********************************************************************************
*  General input information                                                   *
********************************************************************************

  Species output for all configurations : 

--------------------------------------------------------------------------------
  Species    Type    Atomic    Atomic    Charge       Radii (Angs)     Library
                     Number     Mass       (e)     Cova   Ionic  VDW   Symbol
--------------------------------------------------------------------------------
    Ge       Core       32      72.61   4.000000   1.170  0.000  1.750 Ge       
    Si       Core       14      28.09   4.000000   1.200  0.000  2.100 Si       
    O1       Core        8      16.00   1.733957   0.730  0.000  0.000 O1       
    O2       Core        8      16.00   0.870733   0.730  0.000  1.360 O2       
    O3       Core        8      16.00   1.330431   0.730  0.000  1.360 O3       
    O1       Shell       8       0.00  -3.733957   0.730  0.000  0.000 O1       
    O2       Shell       8       0.00  -2.870733   0.730  0.000  0.000 O2       
    O3       Shell       8       0.00  -3.330431   0.730  0.000  0.000 O3       
--------------------------------------------------------------------------------


  Lattice summation method               =    Ewald          (3-D)
                                         =    Parry          (2-D)
                                         =    Saunders et al (1-D)
  Accuracy factor for lattice sums       =   12.000


  Analytic derivatives to be used

  Time limit = Infinity

  Maximum range for interatomic potentials =    100000.000000 Angstroms

  General interatomic potentials :

--------------------------------------------------------------------------------
Atom  Types   Potential      Parameter       Value         Units   Cutoffs(Ang)
  1     2                                                            Min /  Max 
--------------------------------------------------------------------------------
Si   c O1   s Buckingham    Buckingham A     1315.2478    eV        0.000 16.000
                            Buckingham rho  0.31775900    Ang       
                            Buckingham C     10.141118    eV*Ang^6  
--------------------------------------------------------------------------------
Si   c O2   s Buckingham    Buckingham A     1315.2478    eV        0.000 16.000
                            Buckingham rho  0.31775900    Ang       
                            Buckingham C     10.141118    eV*Ang^6  
--------------------------------------------------------------------------------
Si   c O3   s Buckingham    Buckingham A     1315.2478    eV        0.000 16.000
                            Buckingham rho  0.31775900    Ang       
                            Buckingham C     10.141118    eV*Ang^6  
--------------------------------------------------------------------------------
Ge   c O1   s Buckingham    Buckingham A     1497.3996    eV        0.000 16.000
                            Buckingham rho  0.32564600    Ang       
                            Buckingham C     16.808599    eV*Ang^6  
--------------------------------------------------------------------------------
Ge   c O2   s Buckingham    Buckingham A     1497.3996    eV        0.000 16.000
                            Buckingham rho  0.32564600    Ang       
                            Buckingham C     16.808599    eV*Ang^6  
--------------------------------------------------------------------------------
Ge   c O3   s Buckingham    Buckingham A     1497.3996    eV        0.000 16.000
                            Buckingham rho  0.32564600    Ang       
                            Buckingham C     16.808599    eV*Ang^6  
--------------------------------------------------------------------------------
O1   s O1   s Buckingham    Buckingham A     22764.000    eV        0.000 16.000
                            Buckingham rho  0.14900000    Ang       
                            Buckingham C     10.937044    eV*Ang^6  
--------------------------------------------------------------------------------
O1   s O2   s Buckingham    Buckingham A     22764.000    eV        0.000 16.000
                            Buckingham rho  0.14900000    Ang       
                            Buckingham C     10.937044    eV*Ang^6  
--------------------------------------------------------------------------------
O1   s O3   s Buckingham    Buckingham A     22764.000    eV        0.000 16.000
                            Buckingham rho  0.14900000    Ang       
                            Buckingham C     10.937044    eV*Ang^6  
--------------------------------------------------------------------------------
O2   s O2   s Buckingham    Buckingham A     22764.000    eV        0.000 16.000
                            Buckingham rho  0.14900000    Ang       
                            Buckingham C     10.937044    eV*Ang^6  
--------------------------------------------------------------------------------
O2   s O3   s Buckingham    Buckingham A     22764.000    eV        0.000 16.000
                            Buckingham rho  0.14900000    Ang       
                            Buckingham C     10.937044    eV*Ang^6  
--------------------------------------------------------------------------------
O3   s O3   s Buckingham    Buckingham A     22764.000    eV        0.000 16.000
                            Buckingham rho  0.14900000    Ang       
                            Buckingham C     10.937044    eV*Ang^6  
--------------------------------------------------------------------------------
O1   c O1   s Spring (c-s)  Spring k 2       180.31577    eV*Ang^-2 0.000  0.800
                            Spring k 4       0.0000000    eV*Ang^-4 
--------------------------------------------------------------------------------
O2   c O2   s Spring (c-s)  Spring k 2       75.969800    eV*Ang^-2 0.000  0.800
                            Spring k 4       0.0000000    eV*Ang^-4 
--------------------------------------------------------------------------------
O3   c O3   s Spring (c-s)  Spring k 2       128.14270    eV*Ang^-2 0.000  0.800
                            Spring k 4       0.0000000    eV*Ang^-4 
--------------------------------------------------------------------------------

  General Three-body potentials :

--------------------------------------------------------------------------------
  Atoms       Potential      Parameter       Value         Units   Cutoffs(Ang)
  1 / 2 / 3                                                          Min /  Max 
--------------------------------------------------------------------------------
Si    core    Harmonic      Three-body cnst  1.2614000    eV*rad^-2 0.000  1.900
O1    shel                  Three-body angl  109.47000    degrees   0.000  1.900
O1    shel                  Three-body k4    0.0000000    eV*rad^-4 0.000  3.500
                            Three-body k3    0.0000000    eV*rad^-3 
--------------------------------------------------------------------------------
Si    core    Harmonic      Three-body cnst  1.2614000    eV*rad^-2 0.000  1.900
O1    shel                  Three-body angl  109.47000    degrees   0.000  1.900
õ(1   shel                  Three-body k4    0.0000000    eV*rad^-4 0.000  3.500
                            Three-body k3    0.0000000    eV*rad^-3 
--------------------------------------------------------------------------------
Si    core    Harmonic      Three-body cnst  1.2614000    eV*rad^-2 0.000  1.900
õ(1   shel                  Three-body angl  109.47000    degrees   0.000  1.900
õ(1   shel                  Three-body k4    0.0000000    eV*rad^-4 0.000  3.500
                            Three-body k3    0.0000000    eV*rad^-3 
--------------------------------------------------------------------------------
Si    core    Harmonic      Three-body cnst  1.2614000    eV*rad^-2 0.000  1.900
O1    shel                  Three-body angl  109.47000    degrees   0.000  1.900
O2    shel                  Three-body k4    0.0000000    eV*rad^-4 0.000  3.500
                            Three-body k3    0.0000000    eV*rad^-3 
--------------------------------------------------------------------------------
Si    core    Harmonic      Three-body cnst  1.2614000    eV*rad^-2 0.000  1.900
O1    shel                  Three-body angl  109.47000    degrees   0.000  1.900
õ(2   shel                  Three-body k4    0.0000000    eV*rad^-4 0.000  3.500
                            Three-body k3    0.0000000    eV*rad^-3 
--------------------------------------------------------------------------------
Si    core    Harmonic      Three-body cnst  1.2614000    eV*rad^-2 0.000  1.900
O2    shel                  Three-body angl  109.47000    degrees   0.000  1.900
õ(1   shel                  Three-body k4    0.0000000    eV*rad^-4 0.000  3.500
                            Three-body k3    0.0000000    eV*rad^-3 
--------------------------------------------------------------------------------
Si    core    Harmonic      Three-body cnst  1.2614000    eV*rad^-2 0.000  1.900
õ(1   shel                  Three-body angl  109.47000    degrees   0.000  1.900
õ(2   shel                  Three-body k4    0.0000000    eV*rad^-4 0.000  3.500
                            Three-body k3    0.0000000    eV*rad^-3 
--------------------------------------------------------------------------------
Si    core    Harmonic      Three-body cnst  1.2614000    eV*rad^-2 0.000  1.900
O2    shel                  Three-body angl  109.47000    degrees   0.000  1.900
O2    shel                  Three-body k4    0.0000000    eV*rad^-4 0.000  3.500
                            Three-body k3    0.0000000    eV*rad^-3 
--------------------------------------------------------------------------------
Si    core    Harmonic      Three-body cnst  1.2614000    eV*rad^-2 0.000  1.900
O2    shel                  Three-body angl  109.47000    degrees   0.000  1.900
õ(2   shel                  Three-body k4    0.0000000    eV*rad^-4 0.000  3.500
                            Three-body k3    0.0000000    eV*rad^-3 
--------------------------------------------------------------------------------
Si    core    Harmonic      Three-body cnst  1.2614000    eV*rad^-2 0.000  1.900
õ(2   shel                  Three-body angl  109.47000    degrees   0.000  1.900
õ(2   shel                  Three-body k4    0.0000000    eV*rad^-4 0.000  3.500
                            Three-body k3    0.0000000    eV*rad^-3 
--------------------------------------------------------------------------------

********************************************************************************
*  Output for configuration   1 : c00152.vasp                                  *
********************************************************************************


  Components of energy : 

--------------------------------------------------------------------------------
  Interatomic potentials     =         760.32238343 eV    
  Three-body potentials      =           0.01322767 eV    
  Monopole - monopole (real) =       -2676.00317478 eV    
  Monopole - monopole (recip)=       -1115.35404472 eV    
  Monopole - monopole (total)=       -3791.35721950 eV    
--------------------------------------------------------------------------------
  Total lattice energy       =       -3031.02160840 eV    
--------------------------------------------------------------------------------
  Total lattice energy       =         -292447.2518 kJ/(mole unit cells)
--------------------------------------------------------------------------------


  Number of variables =      363

  Maximum number of calculations  =          1000
  Maximum Hessian update interval =            10
  Maximum step size               =   0.100000000
  Maximum parameter tolerance     =   0.000010000
  Maximum function  tolerance     =   0.000010000
  Maximum gradient  tolerance     =   0.001000000
  Maximum gradient  component     =   0.010000000

  Symmetry not applied to optimisation

  Cell parameters to be optimised using strains

  Newton-Raphson optimiser to be used

  BFGS hessian update to be used

  Lower half triangular hessian to be used

  Minimiser to switch to RFO
  When gradient norm is less than     0.050000

  Dumpfile to be written after every cycle

  Start of bulk optimisation :

  Cycle:      0 Energy:     -3031.021608  Gnorm:      4.413816  CPU:    0.124
  ** Hessian calculated **
  Cycle:      1 Energy:     -3061.912866  Gnorm:      0.982928  CPU:    0.261
  ** Hessian calculated **
  Cycle:      2 Energy:     -3064.153339  Gnorm:      0.748700  CPU:    0.491
  ** Hessian calculated **
  Cycle:      3 Energy:     -3065.650065  Gnorm:      0.425789  CPU:    0.704
  Cycle:      4 Energy:     -3066.154631  Gnorm:      0.276457  CPU:    0.824
  Cycle:      5 Energy:     -3066.566296  Gnorm:      0.210386  CPU:    0.965
  Cycle:      6 Energy:     -3066.939509  Gnorm:      0.162978  CPU:    1.104
  Cycle:      7 Energy:     -3067.176691  Gnorm:      0.132414  CPU:    1.223
  Cycle:      8 Energy:     -3067.320587  Gnorm:      0.097313  CPU:    1.341
  Cycle:      9 Energy:     -3067.396667  Gnorm:      0.076774  CPU:    1.458
  Cycle:     10 Energy:     -3067.431019  Gnorm:      0.056388  CPU:    1.576
  Cycle:     11 Energy:     -3067.460093  Gnorm:      0.052120  CPU:    1.715
  Cycle:     12 Energy:     -3067.489102  Gnorm:      0.052710  CPU:    1.855
  ** Hessian calculated **
  Cycle:     13 Energy:     -3067.498535  Gnorm:      0.046686  CPU:    2.104
  ** Hessian has required structure
  Cycle:     14 Energy:     -3067.512386  Gnorm:      0.052930  CPU:    2.312
  ** Hessian has required structure
  Cycle:     15 Energy:     -3067.529582  Gnorm:      0.054559  CPU:    2.521
  ** Hessian has required structure
  Cycle:     16 Energy:     -3067.543264  Gnorm:      0.074695  CPU:    2.705
  ** Hessian has required structure
  Cycle:     17 Energy:     -3067.560550  Gnorm:      0.087389  CPU:    2.890
  ** Hessian has required structure
  Cycle:     18 Energy:     -3067.572681  Gnorm:      0.089897  CPU:    3.053
  ** Hessian has required structure
  Cycle:     19 Energy:     -3067.601573  Gnorm:      0.105856  CPU:    3.238
  ** Hessian has required structure
  Cycle:     20 Energy:     -3067.614308  Gnorm:      0.085735  CPU:    3.403
  ** Hessian has required structure
  Cycle:     21 Energy:     -3067.618448  Gnorm:      0.105322  CPU:    3.569
  ** Hessian has required structure
  Cycle:     22 Energy:     -3067.626959  Gnorm:      0.088754  CPU:    3.735
  ** Hessian has wrong structure
  ** Imaginary eigenvectors =   3
  Cycle:     23 Energy:     -3067.652129  Gnorm:      0.087894  CPU:    4.281
  ** Hessian has wrong structure
  ** Imaginary eigenvectors =   2
  Cycle:     24 Energy:     -3067.696107  Gnorm:      0.092891  CPU:    4.761
  ** Hessian has required structure
  Cycle:     25 Energy:     -3068.015664  Gnorm:      0.051165  CPU:    5.066
  ** Hessian has required structure
  Cycle:     26 Energy:     -3068.125514  Gnorm:      0.033070  CPU:    5.275
  ** Hessian has required structure
  Cycle:     27 Energy:     -3068.169258  Gnorm:      0.028604  CPU:    5.461
  ** Hessian has required structure
  Cycle:     28 Energy:     -3068.204110  Gnorm:      0.022601  CPU:    5.648
  ** Hessian has required structure
  Cycle:     29 Energy:     -3068.221498  Gnorm:      0.026919  CPU:    5.856
  ** Hessian has required structure
  Cycle:     30 Energy:     -3068.241498  Gnorm:      0.017616  CPU:    6.043
  ** Hessian has required structure
  Cycle:     31 Energy:     -3068.254998  Gnorm:      0.017155  CPU:    6.252
  ** Hessian has required structure
  Cycle:     32 Energy:     -3068.267585  Gnorm:      0.016925  CPU:    6.440
  ** Hessian has required structure
  Cycle:     33 Energy:     -3068.277895  Gnorm:      0.019508  CPU:    6.626
  ** Hessian has required structure
  Cycle:     34 Energy:     -3068.289551  Gnorm:      0.015931  CPU:    6.815
  ** Hessian has required structure
  Cycle:     35 Energy:     -3068.301109  Gnorm:      0.010632  CPU:    7.109
  ** Hessian has required structure
  Cycle:     36 Energy:     -3068.305843  Gnorm:      0.006519  CPU:    7.325
  ** Hessian has required structure
  Cycle:     37 Energy:     -3068.307241  Gnorm:      0.002953  CPU:    7.537
  ** Hessian has required structure
  Cycle:     38 Energy:     -3068.307597  Gnorm:      0.002119  CPU:    7.721
  ** Hessian has required structure
  Cycle:     39 Energy:     -3068.307742  Gnorm:      0.001027  CPU:    7.906
  ** Hessian has required structure
  Cycle:     40 Energy:     -3068.307796  Gnorm:      0.000686  CPU:    8.090
  ** Hessian has required structure
  Cycle:     41 Energy:     -3068.307816  Gnorm:      0.000366  CPU:    8.274
  ** Hessian has required structure
  Cycle:     42 Energy:     -3068.307824  Gnorm:      0.000141  CPU:    8.479
  ** Hessian has required structure
  Cycle:     43 Energy:     -3068.307825  Gnorm:      0.000094  CPU:    8.640
  ** Hessian has required structure


  **** Optimisation achieved ****


  Final energy =   -3068.30782550 eV      
  Final Gnorm  =       0.00007000

  Components of energy : 

--------------------------------------------------------------------------------
  Interatomic potentials     =         816.17379867 eV    
  Three-body potentials      =           0.20467130 eV    
  Monopole - monopole (real) =       -2205.67839300 eV    
  Monopole - monopole (recip)=       -1679.00790247 eV    
  Monopole - monopole (total)=       -3884.68629547 eV    
--------------------------------------------------------------------------------
  Total lattice energy       =       -3068.30782550 eV    
--------------------------------------------------------------------------------
  Total lattice energy       =         -296044.8018 kJ/(mole unit cells)
--------------------------------------------------------------------------------

  Final fractional coordinates of atoms :

--------------------------------------------------------------------------------
   No.  Atomic        x           y          z          Radius
        Label       (Frac)      (Frac)     (Frac)       (Angs) 
--------------------------------------------------------------------------------
     1  Ge    c     0.556730    0.000000    0.122130    0.000000
     2  Ge    c     0.335496    0.705380    0.300207    0.000000
     3  Ge    c     0.851332    0.660309    0.723273    0.000000
     4  Si    c     0.048634    0.983801    0.381861    0.000000
     5  Si    c     0.452886    0.988308    0.383118    0.000000
     6  Si    c     0.954850    0.967934    0.643486    0.000000
     7  Si    c     0.550657    0.993894    0.638595    0.000000
     8  Si    c     0.944009    0.983180    0.132940    0.000000
     9  Si    c     0.443967    0.984987    0.880482    0.000000
    10  Si    c     0.058477    0.984691    0.896111    0.000000
    11  Si    c     0.165812    0.267894    0.291101    0.000000
    12  Si    c     0.833722    0.250681    0.736378    0.000000
    13  Si    c     0.668289    0.702608    0.730361    0.000000
    14  Si    c     0.653887    0.296303    0.741348    0.000000
    15  Si    c     0.151942    0.673043    0.297427    0.000000
    16  Si    c     0.347117    0.292077    0.295132    0.000000
    17  Si    c     0.652187    0.319750    0.042702    0.000000
    18  Si    c     0.855395    0.665456    0.032466    0.000000
    19  Si    c     0.349455    0.299325    0.992889    0.000000
    20  Si    c     0.154635    0.670510    0.992854    0.000000
    21  Si    c     0.335307    0.703400    0.991692    0.000000
    22  Si    c     0.168743    0.271479    0.988079    0.000000
    23  Si    c     0.675270    0.716006    0.033736    0.000000
    24  Si    c     0.832364    0.269977    0.040604    0.000000
    25  O2    c     0.115407    0.131510    0.372921    0.000000
    26  O3    c     0.390839    0.834050    0.400583    0.000000
    27  O2    c     0.879933    0.098022    0.659408    0.000000
    28  O2    c     0.610611    0.830389    0.651761    0.000000
    29  O3    c     0.919586    0.774752    0.634911    0.000000
    30  O2    c     0.594431    0.178172    0.659832    0.000000
    31  O2    c     0.088638    0.790315    0.376333    0.000000
    32  O2    c     0.404316    0.171656    0.379918    0.000000
    33  O2    c     0.003400    0.012661    0.515684    0.000000
    34  O2    c     0.517873    0.994042    0.493627    0.000000
    35  O2    c     0.986016    0.006424    0.268886    0.000000
    36  O3    c     0.496667    0.952564    0.247966    0.000000
    37  O2    c     0.013707    0.994402    0.762144    0.000000
    38  O2    c     0.476686    0.976957    0.734420    0.000000
    39  O3    c     0.591647    0.213082    0.128665    0.000000
    40  O2    c     0.912160    0.784600    0.120339    0.000000
    41  O2    c     0.407757    0.179830    0.907186    0.000000
    42  O2    c     0.097069    0.791023    0.908837    0.000000
    43  O2    c     0.378330    0.835135    0.894704    0.000000
    44  O2    c     0.125434    0.132890    0.896519    0.000000
    45  O3    c     0.637215    0.860353    0.124798    0.000000
    46  O2    c     0.873199    0.124618    0.129876    0.000000
    47  O3    c     0.512786    0.944714    0.978355    0.000000
    48  O2    c     0.001771    0.029060    0.015701    0.000000
    49  O2    c     0.137287    0.466552    0.323474    0.000000
    50  O3    c     0.365346    0.491512    0.325101    0.000000
    51  O3    c     0.867243    0.438477    0.698750    0.000000
    52  O2    c     0.638654    0.501964    0.712834    0.000000
    53  O2    c     0.256901    0.246966    0.328469    0.000000
    54  O3    c     0.237983    0.724517    0.341280    0.000000
    55  O2    c     0.742093    0.243880    0.699089    0.000000
    56  O3    c     0.756579    0.713872    0.679468    0.000000
    57  O2    c     0.156066    0.224273    0.138851    0.000000
    58  O3    c     0.347569    0.763331    0.139311    0.000000
    59  O2    c     0.841012    0.216250    0.890008    0.000000
    60  O2    c     0.667732    0.761009    0.881190    0.000000
    61  O3    c     0.869652    0.712735    0.883581    0.000000
    62  O2    c     0.639963    0.257204    0.893317    0.000000
    63  O2    c     0.141989    0.713436    0.144664    0.000000
    64  O2    c     0.363654    0.249161    0.142870    0.000000
    65  O2    c     0.634923    0.526916    0.058801    0.000000
    66  O2    c     0.873113    0.459707    0.060785    0.000000
    67  O2    c     0.368752    0.504416    0.972128    0.000000
    68  O2    c     0.135334    0.467415    0.961381    0.000000
    69  O2    c     0.741668    0.278182    0.082357    0.000000
    70  O2    c     0.766049    0.705428    0.070666    0.000000
    71  O2    c     0.260424    0.261584    0.953298    0.000000
    72  O2    c     0.243969    0.709309    0.955719    0.000000
    73  O2    s     0.113926    0.130972    0.364571    0.000000
    74  O3    s     0.392375    0.838594    0.390453    0.000000
    75  O2    s     0.882683    0.101288    0.666375    0.000000
    76  O2    s     0.610521    0.834027    0.659042    0.000000
    77  O3    s     0.917548    0.784806    0.642935    0.000000
    78  O2    s     0.596334    0.171323    0.666677    0.000000
    79  O2    s     0.091287    0.798054    0.368371    0.000000
    80  O2    s     0.403112    0.165660    0.370839    0.000000
    81  O2    s     0.003069    0.004119    0.514820    0.000000
    82  O2    s     0.514183    0.993350    0.497456    0.000000
    83  O2    s     0.988279    0.001088    0.265833    0.000000
    84  O3    s     0.497630    0.960495    0.250344    0.000000
    85  O2    s     0.012377    0.990278    0.764731    0.000000
    86  O2    s     0.481118    0.979703    0.740121    0.000000
    87  O3    s     0.595009    0.207083    0.119452    0.000000
    88  O2    s     0.909478    0.792869    0.112224    0.000000
    89  O2    s     0.405030    0.172841    0.914027    0.000000
    90  O2    s     0.099366    0.798235    0.916898    0.000000
    91  O2    s     0.380546    0.836544    0.903993    0.000000
    92  O2    s     0.123142    0.132583    0.906782    0.000000
    93  O3    s     0.634839    0.855966    0.114714    0.000000
    94  O2    s     0.876257    0.125599    0.120191    0.000000
    95  O3    s     0.509202    0.953568    0.980097    0.000000
    96  O2    s     0.001713    0.018973    0.015302    0.000000
    97  O2    s     0.141888    0.467279    0.317251    0.000000
    98  O3    s     0.360905    0.488001    0.319825    0.000000
    99  O3    s     0.862532    0.437635    0.704548    0.000000
   100  O2    s     0.643381    0.500782    0.717738    0.000000
   101  O2    s     0.256617    0.253920    0.320957    0.000000
   102  O3    s     0.237242    0.717725    0.333451    0.000000
   103  O2    s     0.742358    0.250199    0.707544    0.000000
   104  O3    s     0.755369    0.708483    0.688010    0.000000
   105  O2    s     0.158481    0.233952    0.138996    0.000000
   106  O3    s     0.345405    0.752855    0.137532    0.000000
   107  O2    s     0.839279    0.225713    0.889909    0.000000
   108  O2    s     0.668568    0.750152    0.881209    0.000000
   109  O3    s     0.866754    0.703850    0.885631    0.000000
   110  O2    s     0.642669    0.267586    0.892563    0.000000
   111  O2    s     0.144382    0.704617    0.144404    0.000000
   112  O2    s     0.360504    0.258699    0.142634    0.000000
   113  O2    s     0.640913    0.523917    0.054492    0.000000
   114  O2    s     0.867040    0.461514    0.055730    0.000000
   115  O2    s     0.363218    0.503074    0.976383    0.000000
   116  O2    s     0.140931    0.468376    0.967578    0.000000
   117  O2    s     0.742000    0.281755    0.073606    0.000000
   118  O2    s     0.765922    0.702051    0.062325    0.000000
   119  O2    s     0.260163    0.266878    0.961451    0.000000
   120  O2    s     0.244062    0.704286    0.963753    0.000000
--------------------------------------------------------------------------------

  Final Cartesian lattice vectors (Angstroms) :

       17.092088    0.087360    0.047144
        0.037965    7.598529   -0.026546
        0.027323   -0.038528   10.297729


  Final cell parameters and derivatives :

--------------------------------------------------------------------------------
       a           17.092376 Angstrom     dE/de1(xx)     0.005993 eV/strain
       b            7.598671 Angstrom     dE/de2(yy)     0.003688 eV/strain
       c           10.297837 Angstrom     dE/de3(zz)     0.008708 eV/strain
       alpha       90.413763 Degrees      dE/de4(yz)     0.000304 eV/strain
       beta        89.691048 Degrees      dE/de5(xz)     0.000157 eV/strain
       gamma       89.421451 Degrees      dE/de6(xy)    -0.000042 eV/strain
--------------------------------------------------------------------------------

  Primitive cell volume =          1337.353269 Angs**3

  Density of cell =      1.956541 g/cm**3

  Non-primitive cell volume =          1337.353269 Angs**3


  Final internal derivatives :

--------------------------------------------------------------------------------
   No.  Atomic          a             b             c           Radius
        Label          (eV)          (eV)          (eV)        (eV/Angs)
--------------------------------------------------------------------------------
      1 Ge    c       0.000000      0.000000      0.000000      0.000000
      2 Ge    c       0.003792      0.001026      0.001229      0.000000
      3 Ge    c       0.000163      0.000327      0.000799      0.000000
      4 Si    c       0.007022     -0.001331     -0.000771      0.000000
      5 Si    c      -0.000457     -0.000020     -0.000054      0.000000
      6 Si    c      -0.006379     -0.001423     -0.000721      0.000000
      7 Si    c      -0.000145     -0.000144      0.000025      0.000000
      8 Si    c      -0.005288     -0.001506     -0.000578      0.000000
      9 Si    c      -0.000190     -0.000210     -0.000111      0.000000
     10 Si    c       0.007094     -0.000142      0.000633      0.000000
     11 Si    c      -0.000305      0.000598     -0.000717      0.000000
     12 Si    c       0.001416      0.000267     -0.000792      0.000000
     13 Si    c       0.001417      0.000335      0.000513      0.000000
     14 Si    c      -0.000081      0.000241     -0.000232      0.000000
     15 Si    c      -0.003910     -0.000266      0.000703      0.000000
     16 Si    c      -0.000750     -0.001110     -0.000809      0.000000
     17 Si    c      -0.000527     -0.000182      0.000528      0.000000
     18 Si    c      -0.001142     -0.000611     -0.000666      0.000000
     19 Si    c      -0.001583      0.000319      0.000061      0.000000
     20 Si    c      -0.001670     -0.000562     -0.001187      0.000000
     21 Si    c       0.000281     -0.000107     -0.001380      0.000000
     22 Si    c      -0.000339      0.000324     -0.000204      0.000000
     23 Si    c       0.001458     -0.000157     -0.000438      0.000000
     24 Si    c       0.001169     -0.000486      0.000518      0.000000
     25 O2    c       0.001276      0.000648      0.000967      0.000000
     26 O3    c      -0.000313     -0.000123     -0.000286      0.000000
     27 O2    c      -0.002026      0.000984      0.000365      0.000000
     28 O2    c      -0.000204      0.000008      0.000057      0.000000
     29 O3    c       0.000754     -0.000038      0.000107      0.000000
     30 O2    c      -0.000136     -0.000057     -0.000032      0.000000
     31 O2    c      -0.000383      0.000017     -0.000224      0.000000
     32 O2    c       0.000547     -0.000211      0.000254      0.000000
     33 O2    c       0.000614      0.001637      0.001388      0.000000
     34 O2    c      -0.000149     -0.000013     -0.000052      0.000000
     35 O2    c      -0.005309      0.001175      0.002288      0.000000
     36 O3    c       0.000014      0.000084      0.000077      0.000000
     37 O2    c       0.000421      0.000892     -0.001834      0.000000
     38 O2    c       0.000096     -0.000020      0.000061      0.000000
     39 O3    c       0.000320      0.000129     -0.000244      0.000000
     40 O2    c       0.000548     -0.000293      0.000228      0.000000
     41 O2    c       0.000583     -0.000030     -0.000325      0.000000
     42 O2    c       0.001027     -0.002046     -0.000407      0.000000
     43 O2    c      -0.000085      0.000012      0.000060      0.000000
     44 O2    c      -0.000170      0.000190     -0.000064      0.000000
     45 O3    c       0.000100     -0.000007      0.000163      0.000000
     46 O2    c      -0.002096      0.001292      0.000089      0.000000
     47 O3    c       0.000251     -0.000064      0.000144      0.000000
     48 O2    c       0.001918      0.002783      0.000493      0.000000
     49 O2    c      -0.000720     -0.000239      0.000624      0.000000
     50 O3    c       0.002713     -0.000120      0.001945      0.000000
     51 O3    c      -0.001008     -0.000993      0.000071      0.000000
     52 O2    c       0.000325     -0.000619     -0.000010      0.000000
     53 O2    c       0.000426     -0.000322      0.000360      0.000000
     54 O3    c      -0.002884      0.001310      0.001842      0.000000
     55 O2    c      -0.001592      0.000042      0.000084      0.000000
     56 O3    c      -0.000668     -0.000028      0.001100      0.000000
     57 O2    c       0.000142     -0.000052     -0.000076      0.000000
     58 O3    c       0.002265      0.001174     -0.000925      0.000000
     59 O2    c       0.000051      0.000361     -0.000404      0.000000
     60 O2    c      -0.000542     -0.000667      0.000110      0.000000
     61 O3    c      -0.000791     -0.001122      0.001495      0.000000
     62 O2    c      -0.000195      0.000048     -0.000811      0.000000
     63 O2    c      -0.001640      0.000515      0.000693      0.000000
     64 O2    c       0.000558     -0.000414     -0.000073      0.000000
     65 O2    c       0.000787      0.000588      0.000046      0.000000
     66 O2    c      -0.000404      0.001962      0.000027      0.000000
     67 O2    c       0.000710     -0.000588     -0.000134      0.000000
     68 O2    c      -0.000583     -0.000587     -0.000144      0.000000
     69 O2    c       0.000008     -0.000038      0.000060      0.000000
     70 O2    c       0.002210      0.000043     -0.001497      0.000000
     71 O2    c       0.000201      0.000011      0.000079      0.000000
     72 O2    c       0.001561      0.000291     -0.000912      0.000000
     73 O2    s       0.003127     -0.000146     -0.000298      0.000000
     74 O3    s       0.001136      0.000416      0.000514      0.000000
     75 O2    s      -0.002637      0.000244      0.000520      0.000000
     76 O2    s       0.000663      0.000036      0.000195      0.000000
     77 O3    s      -0.002636     -0.000672     -0.000373      0.000000
     78 O2    s       0.000515      0.000198      0.000217      0.000000
     79 O2    s       0.001890     -0.000574      0.000591      0.000000
     80 O2    s       0.000475     -0.000427      0.000252      0.000000
     81 O2    s       0.000103     -0.000518     -0.000003      0.000000
     82 O2    s       0.000096      0.000017      0.000032      0.000000
     83 O2    s      -0.000494     -0.000397      0.000581      0.000000
     84 O3    s       0.000096     -0.000124     -0.000137      0.000000
     85 O2    s      -0.000957      0.000394     -0.001147      0.000000
     86 O2    s       0.000001      0.000062     -0.000211      0.000000
     87 O3    s       0.000068     -0.000040      0.000154      0.000000
     88 O2    s      -0.004171     -0.001518     -0.000933      0.000000
     89 O2    s       0.000245     -0.000110     -0.000385      0.000000
     90 O2    s       0.003069     -0.000389     -0.000764      0.000000
     91 O2    s       0.000277      0.000175     -0.000539      0.000000
     92 O2    s       0.003718      0.000549     -0.000337      0.000000
     93 O3    s       0.000035     -0.000206     -0.000606      0.000000
     94 O2    s      -0.004328     -0.000015      0.000186      0.000000
     95 O3    s       0.000389     -0.000069      0.000221      0.000000
     96 O2    s      -0.000184     -0.000056      0.000113      0.000000
     97 O2    s      -0.000686     -0.000176      0.000732      0.000000
     98 O3    s       0.000771      0.000053      0.000430      0.000000
     99 O3    s      -0.000637      0.000160      0.000379      0.000000
    100 O2    s       0.001039      0.000036      0.000501      0.000000
    101 O2    s      -0.000377     -0.000727      0.001121      0.000000
    102 O3    s       0.001454      0.000453      0.000844      0.000000
    103 O2    s       0.000176      0.000219      0.000744      0.000000
    104 O3    s      -0.000459      0.000016      0.000150      0.000000
    105 O2    s      -0.001667     -0.000946     -0.000051      0.000000
    106 O3    s       0.000379      0.000519      0.000260      0.000000
    107 O2    s       0.000944      0.000104     -0.000757      0.000000
    108 O2    s       0.000190     -0.000484      0.000488      0.000000
    109 O3    s      -0.000928      0.000060      0.000832      0.000000
    110 O2    s       0.000977      0.000291     -0.000236      0.000000
    111 O2    s      -0.001901      0.001004     -0.000028      0.000000
    112 O2    s       0.001064     -0.000488     -0.000377      0.000000
    113 O2    s       0.000963      0.000134     -0.000429      0.000000
    114 O2    s      -0.002172      0.000318     -0.000834      0.000000
    115 O2    s       0.001280      0.000061     -0.000461      0.000000
    116 O2    s      -0.000946     -0.000276     -0.000845      0.000000
    117 O2    s      -0.000276      0.000009     -0.000442      0.000000
    118 O2    s       0.000259     -0.000402     -0.001195      0.000000
    119 O2    s       0.000104     -0.000305     -0.000793      0.000000
    120 O2    s       0.000594      0.000682     -0.001153      0.000000
--------------------------------------------------------------------------------
  Maximum abs         0.007094      0.002783      0.002288      0.000000
--------------------------------------------------------------------------------


  Born effective charge tensors : 

-------------------------------------------------------------------------------
  Atom             x           y             z
-------------------------------------------------------------------------------
    1 Ge    x       4.2938      0.3322     -0.1126
            y      -0.2160      3.9045     -0.0137
            z      -0.7384     -0.1474      3.7330
-------------------------------------------------------------------------------
    2 Ge    x       3.9459      0.3373      0.1930
            y       0.2233      4.1712      0.2451
            z       0.1735      0.0604      3.4613
-------------------------------------------------------------------------------
    3 Ge    x       3.9546      0.2740     -0.0641
            y       0.3956      4.2062     -0.2392
            z      -0.1435     -0.0768      3.4381
-------------------------------------------------------------------------------
    4 Si    x       3.4117     -0.1266     -0.1914
            y       0.1560      3.2139     -0.0150
            z      -0.4131      0.0754      3.7897
-------------------------------------------------------------------------------
    5 Si    x       3.7686      0.0427     -0.1038
            y       0.2323      3.4259     -0.0712
            z       0.5576      0.0881      4.0788
-------------------------------------------------------------------------------
    6 Si    x       3.5698      0.3769     -0.1636
            y      -0.0322      3.4628      0.0709
            z      -0.4750     -0.1604      3.8732
-------------------------------------------------------------------------------
    7 Si    x       3.4383      0.0778      0.3416
            y      -0.0852      3.2463      0.0196
            z       0.2721     -0.0076      3.7556
-------------------------------------------------------------------------------
    8 Si    x       3.4529      0.1778      0.2226
            y      -0.2016      3.2333      0.0148
            z       0.4697      0.0381      3.1085
-------------------------------------------------------------------------------
    9 Si    x       3.7700     -0.1865     -0.1873
            y       0.1098      3.3157     -0.0239
            z      -0.2709     -0.0127      3.2935
-------------------------------------------------------------------------------
   10 Si    x       3.4696     -0.1334      0.1888
            y       0.1568      3.2620     -0.0287
            z       0.5023     -0.0057      3.1148
-------------------------------------------------------------------------------
   11 Si    x       3.1978      0.2878     -0.1184
            y       0.1650      3.4523     -0.1490
            z      -0.0995     -0.0804      2.8260
-------------------------------------------------------------------------------
   12 Si    x       3.2985     -0.2613     -0.1328
            y      -0.0121      3.7471      0.0237
            z      -0.1576      0.0107      2.8849
-------------------------------------------------------------------------------
   13 Si    x       3.5807     -0.2815      0.0016
            y      -0.1749      3.5474     -0.2070
            z       0.0671     -0.0789      2.8660
-------------------------------------------------------------------------------
   14 Si    x       3.2125      0.2130      0.0788
            y       0.2648      3.4338      0.1932
            z       0.1227      0.0706      2.8005
-------------------------------------------------------------------------------
   15 Si    x       3.5007     -0.1334      0.0423
            y      -0.2390      3.5370      0.2001
            z      -0.0295      0.1052      2.8948
-------------------------------------------------------------------------------
   16 Si    x       3.2913     -0.1428      0.1162
            y      -0.1436      3.7320     -0.0849
            z       0.1488     -0.0052      2.9154
-------------------------------------------------------------------------------
   17 Si    x       3.5358      0.3968     -0.2607
            y       0.4105      3.5075     -0.3239
            z      -0.2985     -0.1274      2.8617
-------------------------------------------------------------------------------
   18 Si    x       3.3026      0.3085      0.0920
            y       0.3079      3.5078      0.0963
            z       0.1296     -0.0176      2.9998
-------------------------------------------------------------------------------
   19 Si    x       3.2844     -0.2392     -0.1283
            y      -0.2440      3.3940      0.1743
            z      -0.1685      0.0407      2.7220
-------------------------------------------------------------------------------
   20 Si    x       3.2525     -0.2532      0.1111
            y      -0.2526      3.4133     -0.1682
            z       0.1420     -0.0769      2.7166
-------------------------------------------------------------------------------
   21 Si    x       3.2927      0.3327     -0.1475
            y       0.1240      3.5521     -0.1210
            z      -0.0953      0.0126      3.0390
-------------------------------------------------------------------------------
   22 Si    x       3.2455      0.3261      0.1660
            y       0.1157      3.4410      0.1709
            z       0.1047      0.0664      2.7297
-------------------------------------------------------------------------------
   23 Si    x       3.3337     -0.5208     -0.2329
            y      -0.1781      3.6550      0.3595
            z      -0.1830      0.2091      2.8837
-------------------------------------------------------------------------------
   24 Si    x       3.2236     -0.3653      0.1668
            y      -0.0827      3.4367     -0.1678
            z       0.1352     -0.0664      2.7091
-------------------------------------------------------------------------------
   25 O2    x      -1.7693     -0.7245      0.3328
            y      -0.7623     -1.9354      0.3508
            z       0.3669      0.3354     -1.3470
-------------------------------------------------------------------------------
   26 O3    x      -2.1170     -0.9306     -0.3330
            y      -1.0003     -2.3140     -0.3364
            z      -0.4189     -0.3060     -1.5588
-------------------------------------------------------------------------------
   27 O2    x      -1.8433      0.6506      0.3314
            y       0.7278     -1.8529     -0.3421
            z       0.3798     -0.3009     -1.3557
-------------------------------------------------------------------------------
   28 O2    x      -1.7604      0.7309     -0.3658
            y       0.7522     -1.9719      0.3625
            z      -0.3620      0.3418     -1.3490
-------------------------------------------------------------------------------
   29 O3    x      -1.9196     -0.8903      0.3443
            y      -0.8595     -2.5417      0.3086
            z       0.4358      0.3380     -1.5391
-------------------------------------------------------------------------------
   30 O2    x      -1.6834     -0.7221     -0.3793
            y      -0.6751     -1.9968     -0.3910
            z      -0.3628     -0.3631     -1.3589
-------------------------------------------------------------------------------
   31 O2    x      -1.6198      0.6818      0.3032
            y       0.6348     -2.0207     -0.3170
            z       0.3305     -0.3108     -1.3529
-------------------------------------------------------------------------------
   32 O2    x      -1.6900      0.6459     -0.3267
            y       0.6543     -1.8996      0.3550
            z      -0.4075      0.3196     -1.4009
-------------------------------------------------------------------------------
   33 O2    x      -1.5671     -0.0272      0.7786
            y      -0.0206     -1.0988      0.0297
            z       0.9854      0.0458     -2.7571
-------------------------------------------------------------------------------
   34 O2    x      -1.6645      0.0025     -0.7854
            y       0.0056     -1.0885      0.0159
            z      -0.9750      0.0159     -2.6618
-------------------------------------------------------------------------------
   35 O2    x      -1.7050     -0.0153     -0.7295
            y       0.0172     -1.1130     -0.0003
            z      -0.7164     -0.0306     -2.2199
-------------------------------------------------------------------------------
   36 O3    x      -1.9857     -0.0437      0.9455
            y       0.0124     -1.2847     -0.0139
            z       0.9109      0.0233     -2.8071
-------------------------------------------------------------------------------
   37 O2    x      -1.6939     -0.0133     -0.7267
            y      -0.0055     -1.1139     -0.0097
            z      -0.7313     -0.0054     -2.2800
-------------------------------------------------------------------------------
   38 O2    x      -1.7713     -0.0144      0.6785
            y      -0.0357     -1.1081      0.0140
            z       0.6707      0.0091     -2.1498
-------------------------------------------------------------------------------
   39 O3    x      -2.0496     -0.9310      0.4828
            y      -0.8040     -2.3730      0.4480
            z       0.5516      0.4614     -1.4762
-------------------------------------------------------------------------------
   40 O2    x      -1.6356     -0.6842     -0.3301
            y      -0.5589     -2.0466     -0.3538
            z      -0.3494     -0.3443     -1.2297
-------------------------------------------------------------------------------
   41 O2    x      -1.6618      0.6773      0.4034
            y       0.5646     -2.0157     -0.4342
            z       0.3764     -0.3950     -1.2913
-------------------------------------------------------------------------------
   42 O2    x      -1.6546      0.6892     -0.3380
            y       0.6050     -2.0243      0.3752
            z      -0.3655      0.3562     -1.2401
-------------------------------------------------------------------------------
   43 O2    x      -1.7399     -0.7021      0.4133
            y      -0.6502     -1.9287      0.4086
            z       0.3592      0.3634     -1.2949
-------------------------------------------------------------------------------
   44 O2    x      -1.7597     -0.7134     -0.3193
            y      -0.6925     -1.9186     -0.3452
            z      -0.3321     -0.3269     -1.2557
-------------------------------------------------------------------------------
   45 O3    x      -2.1075      0.9202      0.4135
            y       0.9042     -2.3092     -0.5402
            z       0.4531     -0.4845     -1.4888
-------------------------------------------------------------------------------
   46 O2    x      -1.7626      0.7101     -0.3275
            y       0.6762     -1.9051      0.3519
            z      -0.3383      0.3395     -1.2531
-------------------------------------------------------------------------------
   47 O3    x      -2.2516      0.0394     -0.8667
            y       0.0684     -1.3337      0.0118
            z      -0.5065     -0.0200     -2.0451
-------------------------------------------------------------------------------
   48 O2    x      -1.8111     -0.0131      0.6188
            y      -0.0024     -1.1921      0.0138
            z       0.3483      0.0048     -1.6918
-------------------------------------------------------------------------------
   49 O2    x      -1.1577      0.0825      0.0577
            y       0.1412     -2.5652     -0.0199
            z       0.0681     -0.0103     -1.0851
-------------------------------------------------------------------------------
   50 O3    x      -1.3137     -0.0114     -0.0873
            y       0.0392     -3.2108     -0.0808
            z      -0.0998     -0.0931     -1.2023
-------------------------------------------------------------------------------
   51 O3    x      -1.3534     -0.1852      0.1023
            y      -0.2583     -3.1524      0.1448
            z       0.1276      0.1201     -1.2207
-------------------------------------------------------------------------------
   52 O2    x      -1.1677     -0.0413     -0.0507
            y      -0.0963     -2.5994      0.0498
            z      -0.0645      0.0555     -1.0670
-------------------------------------------------------------------------------
   53 O2    x      -2.4381     -0.0579     -0.0165
            y      -0.0165     -1.2369      0.0612
            z      -0.0379      0.0385     -1.0868
-------------------------------------------------------------------------------
   54 O3    x      -2.9883     -0.1828     -0.0947
            y      -0.1298     -1.4096     -0.1061
            z      -0.1076     -0.0753     -1.2273
-------------------------------------------------------------------------------
   55 O2    x      -2.4062      0.1697      0.0096
            y       0.0987     -1.2530     -0.0648
            z      -0.0021     -0.0389     -1.0854
-------------------------------------------------------------------------------
   56 O3    x      -3.0050      0.1297      0.1221
            y       0.0378     -1.3867      0.0945
            z       0.1455      0.0493     -1.2485
-------------------------------------------------------------------------------
   57 O2    x      -1.1787     -0.1275     -0.0059
            y      -0.0859     -1.2803      0.0236
            z      -0.0047      0.0062     -2.0756
-------------------------------------------------------------------------------
   58 O3    x      -1.3193     -0.1537     -0.0227
            y      -0.1102     -1.4799     -0.1126
            z      -0.0214     -0.0709     -2.6003
-------------------------------------------------------------------------------
   59 O2    x      -1.1893      0.1275     -0.0418
            y       0.0700     -1.2751     -0.0783
            z      -0.0227     -0.0608     -2.0748
-------------------------------------------------------------------------------
   60 O2    x      -1.1970      0.1205     -0.0718
            y       0.0632     -1.3234      0.0095
            z      -0.0682     -0.0166     -2.0421
-------------------------------------------------------------------------------
   61 O3    x      -1.3512     -0.1624      0.0072
            y      -0.1572     -1.4387      0.0715
            z      -0.0359      0.0503     -2.6091
-------------------------------------------------------------------------------
   62 O2    x      -1.2226     -0.1373      0.0021
            y      -0.1259     -1.2960     -0.0475
            z       0.0225     -0.0570     -2.0398
-------------------------------------------------------------------------------
   63 O2    x      -1.1899      0.1167      0.0236
            y       0.1157     -1.2850      0.0007
            z       0.0116      0.0037     -2.0881
-------------------------------------------------------------------------------
   64 O2    x      -1.2341      0.1210      0.0312
            y       0.1175     -1.2660      0.0415
            z       0.0400      0.0525     -2.0899
-------------------------------------------------------------------------------
   65 O2    x      -1.2825     -0.0766      0.0833
            y      -0.1634     -2.4016      0.0414
            z       0.1101      0.0232     -1.0327
-------------------------------------------------------------------------------
   66 O2    x      -1.2630     -0.0953     -0.0767
            y      -0.1874     -2.4891      0.0191
            z      -0.1040     -0.0045     -1.0075
-------------------------------------------------------------------------------
   67 O2    x      -1.2494      0.0512      0.0704
            y       0.1136     -2.5487      0.0396
            z       0.0887      0.0361     -1.0104
-------------------------------------------------------------------------------
   68 O2    x      -1.2247      0.0571     -0.0808
            y       0.1116     -2.5075     -0.0177
            z      -0.0930      0.0032     -1.0222
-------------------------------------------------------------------------------
   69 O2    x      -2.4133      0.1620     -0.0101
            y       0.1113     -1.2503      0.0658
            z      -0.0055      0.0292     -1.0628
-------------------------------------------------------------------------------
   70 O2    x      -2.3825      0.1225     -0.0593
            y       0.0655     -1.2656     -0.0546
            z      -0.0433     -0.0278     -1.0409
-------------------------------------------------------------------------------
   71 O2    x      -2.4430     -0.0913     -0.0188
            y      -0.0469     -1.2351     -0.0633
            z       0.0082     -0.0313     -1.0388
-------------------------------------------------------------------------------
   72 O2    x      -2.4332     -0.0998      0.0321
            y      -0.0629     -1.2555      0.0657
            z       0.0332      0.0379     -1.0330
-------------------------------------------------------------------------------




  Elastic Constant Matrix: (Units=GPa)

-------------------------------------------------------------------------------
  Indices      1         2         3         4         5         6    
-------------------------------------------------------------------------------
       1     50.5957   24.4832   26.3579   -2.2818    6.5603   -0.9163
       2     24.4832   69.5472   20.1280   -2.9064    6.9552    0.9998
       3     26.3579   20.1280   44.5906   -1.6759    3.5788   -0.7422
       4     -2.2818   -2.9064   -1.6759   11.8646    0.9687    0.8577
       5      6.5603    6.9552    3.5788    0.9687   24.4539   -1.3559
       6     -0.9163    0.9998   -0.7422    0.8577   -1.3559   25.5156
-------------------------------------------------------------------------------


  Elastic Compliance Matrix: (Units=1/GPa)

-------------------------------------------------------------------------------
  Indices      1         2         3         4         5         6    
-------------------------------------------------------------------------------
       1    0.031419 -0.006056 -0.015363  0.002717 -0.004533  0.000587
       2   -0.006056  0.018213 -0.004299  0.003040 -0.003120 -0.001324
       3   -0.015363 -0.004299  0.033445  0.000636  0.000457  0.000592
       4    0.002717  0.003040  0.000636  0.086303 -0.005282 -0.003185
       5   -0.004533 -0.003120  0.000457 -0.005282  0.043275  0.002450
       6    0.000587 -0.001324  0.000592 -0.003185  0.002450  0.039519
-------------------------------------------------------------------------------

  Mechanical properties :

-------------------------------------------------------------------------------
  Convention :                    Reuss         Voigt         Hill
-------------------------------------------------------------------------------
  Bulk  Modulus (GPa)     =      31.60385      34.07463      32.83924
  Shear Modulus (GPa)     =      15.91563      18.61780      17.26671
-------------------------------------------------------------------------------
  Velocity S-wave (km/s)  =       2.85212       3.08475       2.97071
  Velocity P-wave (km/s)  =       5.19606       5.48665       5.34333
-------------------------------------------------------------------------------
  Compressibility (1/GPa) =    0.03164172
-------------------------------------------------------------------------------
  Stress axis :                     x             y             z
-------------------------------------------------------------------------------
  Youngs Moduli (GPa)     =      31.82764      54.90604      29.89998
-------------------------------------------------------------------------------
  Poissons Ratio (x)      =                     0.33251       0.45935
  Poissons Ratio (y)      =       0.19275                     0.12853
  Poissons Ratio (z)      =       0.48896       0.23603
-------------------------------------------------------------------------------


  Piezoelectric Strain Matrix: (Units=C/m**2)

-------------------------------------------------------------------------------
  Indices      1         2         3         4         5         6    
-------------------------------------------------------------------------------
       x    -0.08974   0.21873  -0.18677   0.11712   0.07108   0.29996
       y    -0.09992  -0.62894   0.28418  -0.12428   0.42814   0.19721
       z    -0.04951  -0.06789  -0.29593   0.28525   0.35550   0.04806
-------------------------------------------------------------------------------


  Piezoelectric Stress Matrix: (Units=10**-11 C/N)

-------------------------------------------------------------------------------
  Indices      1         2         3         4         5         6    
-------------------------------------------------------------------------------
       x    -0.11030   0.50671  -0.55233   0.90796   0.28310   1.12025
       y    -0.58591  -1.40462   1.39767  -1.56183   2.22126   1.01808
       z     0.25936   0.00298  -0.84725   2.20583   1.42964   0.17471
-------------------------------------------------------------------------------


  Static dielectric constant tensor : 

-------------------------------------------------------------------------------
              x         y         z
-------------------------------------------------------------------------------
       x     4.01008   0.05507  -0.04823
       y     0.05507   4.11351  -0.06385
       z    -0.04823  -0.06385   3.23534
--------------------------------------------------------------------------------

  High frequency dielectric constant tensor : 

-------------------------------------------------------------------------------
              x         y         z
-------------------------------------------------------------------------------
       x     1.67959   0.00037   0.00159
       y     0.00037   1.68655  -0.00081
       z     0.00159  -0.00081   1.62036
-------------------------------------------------------------------------------

  Static refractive indices : 

-------------------------------------------------------------------------------
    1 =    1.79673      2 =    1.99667      3 =    2.03568
-------------------------------------------------------------------------------

  High frequency refractive indices : 

-------------------------------------------------------------------------------
    1 =    1.27291      2 =    1.29600      3 =    1.29868
-------------------------------------------------------------------------------


  Time to end of optimisation =       9.0151 seconds


  Peak dynamic memory used =       5.01 MB 


  Timing analysis for GULP :

--------------------------------------------------------------------------------
  Task / Subroutine                                          Time (Seconds)
--------------------------------------------------------------------------------
  Calculation of reciprocal space energy and derivatives          0.5255
  Calculation of real space energy and derivatives                5.7624
  Calculation of three-body energy and derivatives                0.5439
  Calculation and manipulation of Hessian matrix                  2.4450
  Calculation of matrix inversion                                 0.0313
  Global summation overhead                                       0.0001
--------------------------------------------------------------------------------
  Total CPU time                                                  9.0152
--------------------------------------------------------------------------------


  Dump file written as c00152.vasp.grs
  CIF file written as c00152.vasp.cif


  Job Finished at 11:53.10  7th October    2025                               

