********************************************************************************
*                       GENERAL UTILITY LATTICE PROGRAM                        *
*                                 Julian Gale                                  *
*                       Curtin Institute for Computation                       *
*                    School of Molecular and Life Sciences                     *
*                    Curtin University, Western Australia                      *
********************************************************************************
* Version = 6.1.2 * Last modified =   3rd November 2022                        *
********************************************************************************
*  optimise     - perform optimisation run                                     *
*  conp         - constant pressure calculation                                *
*  property     - calculate properties for final geometry                      *
********************************************************************************

  Job Started  at 11:58.35  7th October    2025                               

  Number of CPUs =     1


  Total number of configurations input =      1

********************************************************************************
*  Input for Configuration =   1 : c00182.vasp                                 *
********************************************************************************

  Formula = Ge3Si21O48                                                  

  Number of irreducible atoms/shells =     120


  Total number atoms/shells =     120

  Dimensionality = 3               :  Bulk   



  Cartesian lattice vectors (Angstroms) :

       17.182800    0.000000    0.000000
        0.000000    7.513760    0.000000
        0.000000    0.000000   10.447700

  Cell parameters (Angstroms/Degrees):

  a =      17.1828    alpha =  90.0000
  b =       7.5138    beta  =  90.0000
  c =      10.4477    gamma =  90.0000

  Initial cell volume =        1348.875752 Angs**3

  Temperature of configuration =   0.00     K 

  Pressure of configuration =         0.000 GPa 

  Fractional coordinates of asymmetric unit :

--------------------------------------------------------------------------------
   No.  Atomic       x           y          z         Charge      Occupancy
        Label      (Frac)      (Frac)     (Frac)        (e)         (Frac)  
--------------------------------------------------------------------------------
      1 Ge    c    0.556730    0.000000    0.122130     4.00000    1.000000    
      2 Ge    c    0.660190 *  0.706090 *  0.726560 *   4.00000    1.000000    
      3 Ge    c    0.839340 *  0.294090 *  0.017440 *   4.00000    1.000000    
      4 Si    c    0.052090 *  0.000000 *  0.372270 *   4.00000    1.000000    
      5 Si    c    0.447910 *  0.000000 *  0.372270 *   4.00000    1.000000    
      6 Si    c    0.947910 *  0.000000 *  0.627730 *   4.00000    1.000000    
      7 Si    c    0.552090 *  0.000000 *  0.627730 *   4.00000    1.000000    
      8 Si    c    0.943270 *  0.000000 *  0.122130 *   4.00000    1.000000    
      9 Si    c    0.443270 *  0.000000 *  0.877870 *   4.00000    1.000000    
     10 Si    c    0.056730 *  0.000000 *  0.877870 *   4.00000    1.000000    
     11 Si    c    0.160190 *  0.293910 *  0.273440 *   4.00000    1.000000    
     12 Si    c    0.339810 *  0.706090 *  0.273440 *   4.00000    1.000000    
     13 Si    c    0.839810 *  0.293910 *  0.726560 *   4.00000    1.000000    
     14 Si    c    0.839810 *  0.706090 *  0.726560 *   4.00000    1.000000    
     15 Si    c    0.660190 *  0.293910 *  0.726560 *   4.00000    1.000000    
     16 Si    c    0.160190 *  0.706090 *  0.273440 *   4.00000    1.000000    
     17 Si    c    0.339810 *  0.293910 *  0.273440 *   4.00000    1.000000    
     18 Si    c    0.660660 *  0.294090 *  0.017440 *   4.00000    1.000000    
     19 Si    c    0.839340 *  0.705910 *  0.017440 *   4.00000    1.000000    
     20 Si    c    0.339340 *  0.294090 *  0.982560 *   4.00000    1.000000    
     21 Si    c    0.160660 *  0.705910 *  0.982560 *   4.00000    1.000000    
     22 Si    c    0.339340 *  0.705910 *  0.982560 *   4.00000    1.000000    
     23 Si    c    0.160660 *  0.294090 *  0.982560 *   4.00000    1.000000    
     24 Si    c    0.660660 *  0.705910 *  0.017440 *   4.00000    1.000000    
     25 O2    c    0.106570 *  0.174340 *  0.366200 *   0.87073    1.000000    
     26 O2    c    0.393430 *  0.825660 *  0.366200 *   0.87073    1.000000    
     27 O2    c    0.893430 *  0.174340 *  0.633800 *   0.87073    1.000000    
     28 O3    c    0.606570 *  0.825660 *  0.633800 *   1.33043    1.000000    
     29 O2    c    0.893430 *  0.825660 *  0.633800 *   0.87073    1.000000    
     30 O2    c    0.606570 *  0.174340 *  0.633800 *   0.87073    1.000000    
     31 O2    c    0.106570 *  0.825660 *  0.366200 *   0.87073    1.000000    
     32 O2    c    0.393430 *  0.174340 *  0.366200 *   0.87073    1.000000    
     33 O2    c    0.000000 *  0.000000 *  0.500000 *   0.87073    1.000000    
     34 O2    c    0.500000 *  0.000000 *  0.500000 *   0.87073    1.000000    
     35 O2    c    0.994520 *  0.000000 *  0.250840 *   0.87073    1.000000    
     36 O3    c    0.505480 *  0.000000 *  0.250840 *   1.33043    1.000000    
     37 O2    c    0.005480 *  0.000000 *  0.749160 *   0.87073    1.000000    
     38 O2    c    0.494520 *  0.000000 *  0.749160 *   0.87073    1.000000    
     39 O3    c    0.610230 *  0.175520 *  0.115390 *   1.33043    1.000000    
     40 O2    c    0.889770 *  0.824480 *  0.115390 *   0.87073    1.000000    
     41 O2    c    0.389770 *  0.175520 *  0.884610 *   0.87073    1.000000    
     42 O2    c    0.110230 *  0.824480 *  0.884610 *   0.87073    1.000000    
     43 O2    c    0.389770 *  0.824480 *  0.884610 *   0.87073    1.000000    
     44 O2    c    0.110230 *  0.175520 *  0.884610 *   0.87073    1.000000    
     45 O3    c    0.610230 *  0.824480 *  0.115390 *   1.33043    1.000000    
     46 O3    c    0.889770 *  0.175520 *  0.115390 *   1.33043    1.000000    
     47 O3    c    0.500000 *  0.000000 *  0.000000 *   1.33043    1.000000    
     48 O2    c    0.000000 *  0.000000 *  0.000000 *   0.87073    1.000000    
     49 O2    c    0.151750 *  0.500000 *  0.313330 *   0.87073    1.000000    
     50 O2    c    0.348250 *  0.500000 *  0.313330 *   0.87073    1.000000    
     51 O2    c    0.848250 *  0.500000 *  0.686670 *   0.87073    1.000000    
     52 O3    c    0.651750 *  0.500000 *  0.686670 *   1.33043    1.000000    
     53 O2    c    0.250000 *  0.234950 *  0.285720 *   0.87073    1.000000    
     54 O2    c    0.250000 *  0.765050 *  0.285720 *   0.87073    1.000000    
     55 O2    c    0.750000 *  0.234950 *  0.714280 *   0.87073    1.000000    
     56 O3    c    0.750000 *  0.765050 *  0.714280 *   1.33043    1.000000    
     57 O2    c    0.131410 *  0.268650 *  0.127790 *   0.87073    1.000000    
     58 O2    c    0.368590 *  0.731350 *  0.127790 *   0.87073    1.000000    
     59 O3    c    0.868590 *  0.268650 *  0.872210 *   1.33043    1.000000    
     60 O3    c    0.631410 *  0.731350 *  0.872210 *   1.33043    1.000000    
     61 O2    c    0.868590 *  0.731350 *  0.872210 *   0.87073    1.000000    
     62 O2    c    0.631410 *  0.268650 *  0.872210 *   0.87073    1.000000    
     63 O2    c    0.131410 *  0.731350 *  0.127790 *   0.87073    1.000000    
     64 O2    c    0.368590 *  0.268650 *  0.127790 *   0.87073    1.000000    
     65 O2    c    0.653920 *  0.500000 *  0.058200 *   0.87073    1.000000    
     66 O3    c    0.846080 *  0.500000 *  0.058200 *   1.33043    1.000000    
     67 O2    c    0.346080 *  0.500000 *  0.941800 *   0.87073    1.000000    
     68 O2    c    0.153920 *  0.500000 *  0.941800 *   0.87073    1.000000    
     69 O3    c    0.750000 *  0.231060 *  0.027050 *   1.33043    1.000000    
     70 O2    c    0.750000 *  0.768940 *  0.027050 *   0.87073    1.000000    
     71 O2    c    0.250000 *  0.231060 *  0.972950 *   0.87073    1.000000    
     72 O2    c    0.250000 *  0.768940 *  0.972950 *   0.87073    1.000000    
     73 O2    s    0.106570 *  0.174340 *  0.366200 *  -2.87073    1.000000    
     74 O2    s    0.393430 *  0.825660 *  0.366200 *  -2.87073    1.000000    
     75 O2    s    0.893430 *  0.174340 *  0.633800 *  -2.87073    1.000000    
     76 O3    s    0.606570 *  0.825660 *  0.633800 *  -3.33043    1.000000    
     77 O2    s    0.893430 *  0.825660 *  0.633800 *  -2.87073    1.000000    
     78 O2    s    0.606570 *  0.174340 *  0.633800 *  -2.87073    1.000000    
     79 O2    s    0.106570 *  0.825660 *  0.366200 *  -2.87073    1.000000    
     80 O2    s    0.393430 *  0.174340 *  0.366200 *  -2.87073    1.000000    
     81 O2    s    0.000000 *  0.000000 *  0.500000 *  -2.87073    1.000000    
     82 O2    s    0.500000 *  0.000000 *  0.500000 *  -2.87073    1.000000    
     83 O2    s    0.994520 *  0.000000 *  0.250840 *  -2.87073    1.000000    
     84 O3    s    0.505480 *  0.000000 *  0.250840 *  -3.33043    1.000000    
     85 O2    s    0.005480 *  0.000000 *  0.749160 *  -2.87073    1.000000    
     86 O2    s    0.494520 *  0.000000 *  0.749160 *  -2.87073    1.000000    
     87 O3    s    0.610230 *  0.175520 *  0.115390 *  -3.33043    1.000000    
     88 O2    s    0.889770 *  0.824480 *  0.115390 *  -2.87073    1.000000    
     89 O2    s    0.389770 *  0.175520 *  0.884610 *  -2.87073    1.000000    
     90 O2    s    0.110230 *  0.824480 *  0.884610 *  -2.87073    1.000000    
     91 O2    s    0.389770 *  0.824480 *  0.884610 *  -2.87073    1.000000    
     92 O2    s    0.110230 *  0.175520 *  0.884610 *  -2.87073    1.000000    
     93 O3    s    0.610230 *  0.824480 *  0.115390 *  -3.33043    1.000000    
     94 O3    s    0.889770 *  0.175520 *  0.115390 *  -3.33043    1.000000    
     95 O3    s    0.500000 *  0.000000 *  0.000000 *  -3.33043    1.000000    
     96 O2    s    0.000000 *  0.000000 *  0.000000 *  -2.87073    1.000000    
     97 O2    s    0.151750 *  0.500000 *  0.313330 *  -2.87073    1.000000    
     98 O2    s    0.348250 *  0.500000 *  0.313330 *  -2.87073    1.000000    
     99 O2    s    0.848250 *  0.500000 *  0.686670 *  -2.87073    1.000000    
    100 O3    s    0.651750 *  0.500000 *  0.686670 *  -3.33043    1.000000    
    101 O2    s    0.250000 *  0.234950 *  0.285720 *  -2.87073    1.000000    
    102 O2    s    0.250000 *  0.765050 *  0.285720 *  -2.87073    1.000000    
    103 O2    s    0.750000 *  0.234950 *  0.714280 *  -2.87073    1.000000    
    104 O3    s    0.750000 *  0.765050 *  0.714280 *  -3.33043    1.000000    
    105 O2    s    0.131410 *  0.268650 *  0.127790 *  -2.87073    1.000000    
    106 O2    s    0.368590 *  0.731350 *  0.127790 *  -2.87073    1.000000    
    107 O3    s    0.868590 *  0.268650 *  0.872210 *  -3.33043    1.000000    
    108 O3    s    0.631410 *  0.731350 *  0.872210 *  -3.33043    1.000000    
    109 O2    s    0.868590 *  0.731350 *  0.872210 *  -2.87073    1.000000    
    110 O2    s    0.631410 *  0.268650 *  0.872210 *  -2.87073    1.000000    
    111 O2    s    0.131410 *  0.731350 *  0.127790 *  -2.87073    1.000000    
    112 O2    s    0.368590 *  0.268650 *  0.127790 *  -2.87073    1.000000    
    113 O2    s    0.653920 *  0.500000 *  0.058200 *  -2.87073    1.000000    
    114 O3    s    0.846080 *  0.500000 *  0.058200 *  -3.33043    1.000000    
    115 O2    s    0.346080 *  0.500000 *  0.941800 *  -2.87073    1.000000    
    116 O2    s    0.153920 *  0.500000 *  0.941800 *  -2.87073    1.000000    
    117 O3    s    0.750000 *  0.231060 *  0.027050 *  -3.33043    1.000000    
    118 O2    s    0.750000 *  0.768940 *  0.027050 *  -2.87073    1.000000    
    119 O2    s    0.250000 *  0.231060 *  0.972950 *  -2.87073    1.000000    
    120 O2    s    0.250000 *  0.768940 *  0.972950 *  -2.87073    1.000000    
--------------------------------------------------------------------------------



********************************************************************************
*  General input information                                                   *
********************************************************************************

  Species output for all configurations : 

--------------------------------------------------------------------------------
  Species    Type    Atomic    Atomic    Charge       Radii (Angs)     Library
                     Number     Mass       (e)     Cova   Ionic  VDW   Symbol
--------------------------------------------------------------------------------
    Ge       Core       32      72.61   4.000000   1.170  0.000  1.750 Ge       
    Si       Core       14      28.09   4.000000   1.200  0.000  2.100 Si       
    O1       Core        8      16.00   1.733957   0.730  0.000  0.000 O1       
    O2       Core        8      16.00   0.870733   0.730  0.000  1.360 O2       
    O3       Core        8      16.00   1.330431   0.730  0.000  1.360 O3       
    O1       Shell       8       0.00  -3.733957   0.730  0.000  0.000 O1       
    O2       Shell       8       0.00  -2.870733   0.730  0.000  0.000 O2       
    O3       Shell       8       0.00  -3.330431   0.730  0.000  0.000 O3       
--------------------------------------------------------------------------------


  Lattice summation method               =    Ewald          (3-D)
                                         =    Parry          (2-D)
                                         =    Saunders et al (1-D)
  Accuracy factor for lattice sums       =   12.000


  Analytic derivatives to be used

  Time limit = Infinity

  Maximum range for interatomic potentials =    100000.000000 Angstroms

  General interatomic potentials :

--------------------------------------------------------------------------------
Atom  Types   Potential      Parameter       Value         Units   Cutoffs(Ang)
  1     2                                                            Min /  Max 
--------------------------------------------------------------------------------
Si   c O1   s Buckingham    Buckingham A     1315.2478    eV        0.000 16.000
                            Buckingham rho  0.31775900    Ang       
                            Buckingham C     10.141118    eV*Ang^6  
--------------------------------------------------------------------------------
Si   c O2   s Buckingham    Buckingham A     1315.2478    eV        0.000 16.000
                            Buckingham rho  0.31775900    Ang       
                            Buckingham C     10.141118    eV*Ang^6  
--------------------------------------------------------------------------------
Si   c O3   s Buckingham    Buckingham A     1315.2478    eV        0.000 16.000
                            Buckingham rho  0.31775900    Ang       
                            Buckingham C     10.141118    eV*Ang^6  
--------------------------------------------------------------------------------
Ge   c O1   s Buckingham    Buckingham A     1497.3996    eV        0.000 16.000
                            Buckingham rho  0.32564600    Ang       
                            Buckingham C     16.808599    eV*Ang^6  
--------------------------------------------------------------------------------
Ge   c O2   s Buckingham    Buckingham A     1497.3996    eV        0.000 16.000
                            Buckingham rho  0.32564600    Ang       
                            Buckingham C     16.808599    eV*Ang^6  
--------------------------------------------------------------------------------
Ge   c O3   s Buckingham    Buckingham A     1497.3996    eV        0.000 16.000
                            Buckingham rho  0.32564600    Ang       
                            Buckingham C     16.808599    eV*Ang^6  
--------------------------------------------------------------------------------
O1   s O1   s Buckingham    Buckingham A     22764.000    eV        0.000 16.000
                            Buckingham rho  0.14900000    Ang       
                            Buckingham C     10.937044    eV*Ang^6  
--------------------------------------------------------------------------------
O1   s O2   s Buckingham    Buckingham A     22764.000    eV        0.000 16.000
                            Buckingham rho  0.14900000    Ang       
                            Buckingham C     10.937044    eV*Ang^6  
--------------------------------------------------------------------------------
O1   s O3   s Buckingham    Buckingham A     22764.000    eV        0.000 16.000
                            Buckingham rho  0.14900000    Ang       
                            Buckingham C     10.937044    eV*Ang^6  
--------------------------------------------------------------------------------
O2   s O2   s Buckingham    Buckingham A     22764.000    eV        0.000 16.000
                            Buckingham rho  0.14900000    Ang       
                            Buckingham C     10.937044    eV*Ang^6  
--------------------------------------------------------------------------------
O2   s O3   s Buckingham    Buckingham A     22764.000    eV        0.000 16.000
                            Buckingham rho  0.14900000    Ang       
                            Buckingham C     10.937044    eV*Ang^6  
--------------------------------------------------------------------------------
O3   s O3   s Buckingham    Buckingham A     22764.000    eV        0.000 16.000
                            Buckingham rho  0.14900000    Ang       
                            Buckingham C     10.937044    eV*Ang^6  
--------------------------------------------------------------------------------
O1   c O1   s Spring (c-s)  Spring k 2       180.31577    eV*Ang^-2 0.000  0.800
                            Spring k 4       0.0000000    eV*Ang^-4 
--------------------------------------------------------------------------------
O2   c O2   s Spring (c-s)  Spring k 2       75.969800    eV*Ang^-2 0.000  0.800
                            Spring k 4       0.0000000    eV*Ang^-4 
--------------------------------------------------------------------------------
O3   c O3   s Spring (c-s)  Spring k 2       128.14270    eV*Ang^-2 0.000  0.800
                            Spring k 4       0.0000000    eV*Ang^-4 
--------------------------------------------------------------------------------

  General Three-body potentials :

--------------------------------------------------------------------------------
  Atoms       Potential      Parameter       Value         Units   Cutoffs(Ang)
  1 / 2 / 3                                                          Min /  Max 
--------------------------------------------------------------------------------
Si    core    Harmonic      Three-body cnst  1.2614000    eV*rad^-2 0.000  1.900
O1    shel                  Three-body angl  109.47000    degrees   0.000  1.900
O1    shel                  Three-body k4    0.0000000    eV*rad^-4 0.000  3.500
                            Three-body k3    0.0000000    eV*rad^-3 
--------------------------------------------------------------------------------
Si    core    Harmonic      Three-body cnst  1.2614000    eV*rad^-2 0.000  1.900
O1    shel                  Three-body angl  109.47000    degrees   0.000  1.900
õ(1   shel                  Three-body k4    0.0000000    eV*rad^-4 0.000  3.500
                            Three-body k3    0.0000000    eV*rad^-3 
--------------------------------------------------------------------------------
Si    core    Harmonic      Three-body cnst  1.2614000    eV*rad^-2 0.000  1.900
õ(1   shel                  Three-body angl  109.47000    degrees   0.000  1.900
õ(1   shel                  Three-body k4    0.0000000    eV*rad^-4 0.000  3.500
                            Three-body k3    0.0000000    eV*rad^-3 
--------------------------------------------------------------------------------
Si    core    Harmonic      Three-body cnst  1.2614000    eV*rad^-2 0.000  1.900
O1    shel                  Three-body angl  109.47000    degrees   0.000  1.900
O2    shel                  Three-body k4    0.0000000    eV*rad^-4 0.000  3.500
                            Three-body k3    0.0000000    eV*rad^-3 
--------------------------------------------------------------------------------
Si    core    Harmonic      Three-body cnst  1.2614000    eV*rad^-2 0.000  1.900
O1    shel                  Three-body angl  109.47000    degrees   0.000  1.900
õ(2   shel                  Three-body k4    0.0000000    eV*rad^-4 0.000  3.500
                            Three-body k3    0.0000000    eV*rad^-3 
--------------------------------------------------------------------------------
Si    core    Harmonic      Three-body cnst  1.2614000    eV*rad^-2 0.000  1.900
O2    shel                  Three-body angl  109.47000    degrees   0.000  1.900
õ(1   shel                  Three-body k4    0.0000000    eV*rad^-4 0.000  3.500
                            Three-body k3    0.0000000    eV*rad^-3 
--------------------------------------------------------------------------------
Si    core    Harmonic      Three-body cnst  1.2614000    eV*rad^-2 0.000  1.900
õ(1   shel                  Three-body angl  109.47000    degrees   0.000  1.900
õ(2   shel                  Three-body k4    0.0000000    eV*rad^-4 0.000  3.500
                            Three-body k3    0.0000000    eV*rad^-3 
--------------------------------------------------------------------------------
Si    core    Harmonic      Three-body cnst  1.2614000    eV*rad^-2 0.000  1.900
O2    shel                  Three-body angl  109.47000    degrees   0.000  1.900
O2    shel                  Three-body k4    0.0000000    eV*rad^-4 0.000  3.500
                            Three-body k3    0.0000000    eV*rad^-3 
--------------------------------------------------------------------------------
Si    core    Harmonic      Three-body cnst  1.2614000    eV*rad^-2 0.000  1.900
O2    shel                  Three-body angl  109.47000    degrees   0.000  1.900
õ(2   shel                  Three-body k4    0.0000000    eV*rad^-4 0.000  3.500
                            Three-body k3    0.0000000    eV*rad^-3 
--------------------------------------------------------------------------------
Si    core    Harmonic      Three-body cnst  1.2614000    eV*rad^-2 0.000  1.900
õ(2   shel                  Three-body angl  109.47000    degrees   0.000  1.900
õ(2   shel                  Three-body k4    0.0000000    eV*rad^-4 0.000  3.500
                            Three-body k3    0.0000000    eV*rad^-3 
--------------------------------------------------------------------------------

********************************************************************************
*  Output for configuration   1 : c00182.vasp                                  *
********************************************************************************


  Components of energy : 

--------------------------------------------------------------------------------
  Interatomic potentials     =         760.34908818 eV    
  Three-body potentials      =           0.01357642 eV    
  Monopole - monopole (real) =       -2676.00317478 eV    
  Monopole - monopole (recip)=       -1115.35404472 eV    
  Monopole - monopole (total)=       -3791.35721950 eV    
--------------------------------------------------------------------------------
  Total lattice energy       =       -3030.99455490 eV    
--------------------------------------------------------------------------------
  Total lattice energy       =         -292444.6416 kJ/(mole unit cells)
--------------------------------------------------------------------------------


  Number of variables =      363

  Maximum number of calculations  =          1000
  Maximum Hessian update interval =            10
  Maximum step size               =   0.100000000
  Maximum parameter tolerance     =   0.000010000
  Maximum function  tolerance     =   0.000010000
  Maximum gradient  tolerance     =   0.001000000
  Maximum gradient  component     =   0.010000000

  Symmetry not applied to optimisation

  Cell parameters to be optimised using strains

  Newton-Raphson optimiser to be used

  BFGS hessian update to be used

  Lower half triangular hessian to be used

  Minimiser to switch to RFO
  When gradient norm is less than     0.050000

  Dumpfile to be written after every cycle

  Start of bulk optimisation :

  Cycle:      0 Energy:     -3030.994555  Gnorm:      4.413902  CPU:    0.137
  ** Hessian calculated **
  Cycle:      1 Energy:     -3041.648577  Gnorm:      3.719435  CPU:    0.351
  ** Hessian calculated **
  Cycle:      2 Energy:     -3063.397071  Gnorm:      0.811158  CPU:    0.582
  ** Hessian calculated **
  Cycle:      3 Energy:     -3065.206976  Gnorm:      0.468083  CPU:    0.809
  Cycle:      4 Energy:     -3065.835815  Gnorm:      0.304449  CPU:    0.921
  Cycle:      5 Energy:     -3066.337840  Gnorm:      0.228337  CPU:    1.046
  Cycle:      6 Energy:     -3066.763371  Gnorm:      0.175027  CPU:    1.173
  Cycle:      7 Energy:     -3067.028122  Gnorm:      0.139379  CPU:    1.280
  Cycle:      8 Energy:     -3067.187992  Gnorm:      0.104520  CPU:    1.388
  Cycle:      9 Energy:     -3067.272591  Gnorm:      0.078707  CPU:    1.500
  Cycle:     10 Energy:     -3067.316784  Gnorm:      0.061568  CPU:    1.621
  Cycle:     11 Energy:     -3067.347209  Gnorm:      0.059341  CPU:    1.741
  Cycle:     12 Energy:     -3067.382768  Gnorm:      0.065233  CPU:    1.863
  ** Hessian calculated **
  Cycle:     13 Energy:     -3067.395491  Gnorm:      0.057445  CPU:    2.078
  Cycle:     14 Energy:     -3067.412896  Gnorm:      0.051938  CPU:    2.199
  Cycle:     15 Energy:     -3067.440409  Gnorm:      0.048327  CPU:    2.352
  ** Hessian has required structure
  Cycle:     16 Energy:     -3067.450920  Gnorm:      0.079322  CPU:    2.521
  ** Hessian has required structure
  Cycle:     17 Energy:     -3067.466506  Gnorm:      0.091937  CPU:    2.710
  ** Hessian has required structure
  Cycle:     18 Energy:     -3067.486711  Gnorm:      0.086198  CPU:    2.899
  ** Hessian has required structure
  Cycle:     19 Energy:     -3067.494424  Gnorm:      0.098548  CPU:    3.067
  ** Hessian has required structure
  Cycle:     20 Energy:     -3067.501601  Gnorm:      0.109483  CPU:    3.233
  ** Hessian has required structure
  Cycle:     21 Energy:     -3067.512118  Gnorm:      0.093699  CPU:    3.397
  ** Hessian has required structure
  Cycle:     22 Energy:     -3067.521323  Gnorm:      0.085435  CPU:    3.563
  ** Hessian has wrong structure
  ** Imaginary eigenvectors =   3
  Cycle:     23 Energy:     -3067.579102  Gnorm:      0.091891  CPU:    4.097
  ** Hessian has wrong structure
  ** Imaginary eigenvectors =   2
  Cycle:     24 Energy:     -3067.597526  Gnorm:      0.101288  CPU:    4.486
  ** Hessian has wrong structure
  ** Imaginary eigenvectors =   1
  ** Hessian has required structure
  Cycle:     25 Energy:     -3067.885709  Gnorm:      0.068750  CPU:    5.073
  ** Hessian has required structure
  Cycle:     26 Energy:     -3067.986292  Gnorm:      0.036159  CPU:    5.256
  ** Hessian has required structure
  Cycle:     27 Energy:     -3068.032541  Gnorm:      0.024593  CPU:    5.431
  ** Hessian has required structure
  Cycle:     28 Energy:     -3068.065660  Gnorm:      0.036822  CPU:    5.604
  ** Hessian has required structure
  Cycle:     29 Energy:     -3068.084719  Gnorm:      0.028833  CPU:    5.794
  ** Hessian has required structure
  Cycle:     30 Energy:     -3068.103866  Gnorm:      0.025971  CPU:    5.996
  ** Hessian has required structure
  Cycle:     31 Energy:     -3068.131071  Gnorm:      0.023737  CPU:    6.213
  ** Hessian has required structure
  Cycle:     32 Energy:     -3068.150496  Gnorm:      0.019803  CPU:    6.405
  ** Hessian has required structure
  Cycle:     33 Energy:     -3068.163266  Gnorm:      0.023502  CPU:    6.597
  ** Hessian has required structure
  Cycle:     34 Energy:     -3068.174660  Gnorm:      0.018777  CPU:    6.790
  ** Hessian has required structure
  Cycle:     35 Energy:     -3068.211381  Gnorm:      0.023999  CPU:    7.106
  ** Hessian has required structure
  Cycle:     36 Energy:     -3068.229965  Gnorm:      0.022320  CPU:    7.299
  ** Hessian has required structure
  Cycle:     37 Energy:     -3068.242589  Gnorm:      0.012292  CPU:    7.491
  ** Hessian has required structure
  Cycle:     38 Energy:     -3068.249001  Gnorm:      0.008426  CPU:    7.683
  ** Hessian has required structure
  Cycle:     39 Energy:     -3068.251532  Gnorm:      0.008592  CPU:    7.873
  ** Hessian has required structure
  Cycle:     40 Energy:     -3068.252996  Gnorm:      0.002941  CPU:    8.063
  ** Hessian has required structure
  Cycle:     41 Energy:     -3068.253541  Gnorm:      0.003005  CPU:    8.275
  ** Hessian has required structure
  Cycle:     42 Energy:     -3068.253890  Gnorm:      0.002470  CPU:    8.484
  ** Hessian has required structure
  Cycle:     43 Energy:     -3068.254151  Gnorm:      0.002133  CPU:    8.670
  ** Hessian has required structure
  Cycle:     44 Energy:     -3068.254373  Gnorm:      0.001560  CPU:    8.875
  ** Hessian has required structure
  Cycle:     45 Energy:     -3068.254573  Gnorm:      0.000825  CPU:    9.186
  ** Hessian has required structure
  Cycle:     46 Energy:     -3068.254628  Gnorm:      0.000455  CPU:    9.396
  ** Hessian has required structure
  Cycle:     47 Energy:     -3068.254644  Gnorm:      0.000239  CPU:    9.606
  ** Hessian has required structure
  Cycle:     48 Energy:     -3068.254648  Gnorm:      0.000147  CPU:    9.793
  ** Hessian has required structure
  Cycle:     49 Energy:     -3068.254650  Gnorm:      0.000103  CPU:    9.959
  ** Hessian has required structure


  **** Optimisation achieved ****


  Final energy =   -3068.25465014 eV      
  Final Gnorm  =       0.00007263

  Components of energy : 

--------------------------------------------------------------------------------
  Interatomic potentials     =         817.09193541 eV    
  Three-body potentials      =           0.22817835 eV    
  Monopole - monopole (real) =       -2203.79241953 eV    
  Monopole - monopole (recip)=       -1681.78234438 eV    
  Monopole - monopole (total)=       -3885.57476391 eV    
--------------------------------------------------------------------------------
  Total lattice energy       =       -3068.25465014 eV    
--------------------------------------------------------------------------------
  Total lattice energy       =         -296039.6712 kJ/(mole unit cells)
--------------------------------------------------------------------------------

  Final fractional coordinates of atoms :

--------------------------------------------------------------------------------
   No.  Atomic        x           y          z          Radius
        Label       (Frac)      (Frac)     (Frac)       (Angs) 
--------------------------------------------------------------------------------
     1  Ge    c     0.556730    0.000000    0.122130    0.000000
     2  Ge    c     0.646392    0.668330    0.719729    0.000000
     3  Ge    c     0.856880    0.342926    0.031109    0.000000
     4  Si    c     0.045839    0.998677    0.370267    0.000000
     5  Si    c     0.446013    0.002808    0.375981    0.000000
     6  Si    c     0.948534    0.998305    0.630335    0.000000
     7  Si    c     0.542832    0.973578    0.633527    0.000000
     8  Si    c     0.945775    0.021069    0.117699    0.000000
     9  Si    c     0.442677    0.001028    0.881672    0.000000
    10  Si    c     0.056547    0.996011    0.879951    0.000000
    11  Si    c     0.149828    0.306992    0.279981    0.000000
    12  Si    c     0.342355    0.690529    0.293968    0.000000
    13  Si    c     0.846416    0.304354    0.723863    0.000000
    14  Si    c     0.829290    0.709660    0.710714    0.000000
    15  Si    c     0.667022    0.255425    0.737978    0.000000
    16  Si    c     0.161901    0.713543    0.283994    0.000000
    17  Si    c     0.331438    0.285035    0.288334    0.000000
    18  Si    c     0.674705    0.285012    0.040191    0.000000
    19  Si    c     0.829773    0.741937    0.015554    0.000000
    20  Si    c     0.333138    0.285736    0.986080    0.000000
    21  Si    c     0.166527    0.714003    0.981318    0.000000
    22  Si    c     0.347408    0.687050    0.991431    0.000000
    23  Si    c     0.151391    0.312608    0.979152    0.000000
    24  Si    c     0.649265    0.680963    0.025504    0.000000
    25  O2    c     0.090962    0.187331    0.362291    0.000000
    26  O2    c     0.401403    0.812389    0.380150    0.000000
    27  O2    c     0.904442    0.184534    0.638754    0.000000
    28  O3    c     0.576746    0.778169    0.630190    0.000000
    29  O2    c     0.884653    0.839029    0.628873    0.000000
    30  O2    c     0.617405    0.101656    0.665183    0.000000
    31  O2    c     0.109545    0.843583    0.368937    0.000000
    32  O2    c     0.380711    0.155799    0.378430    0.000000
    33  O2    c     0.997338    0.991430    0.500118    0.000000
    34  O2    c     0.505558    0.023180    0.495922    0.000000
    35  O2    c     0.984918    0.967822    0.252465    0.000000
    36  O3    c     0.495096    0.026781    0.247903    0.000000
    37  O2    c     0.010250    0.972882    0.746458    0.000000
    38  O2    c     0.473213    0.996638    0.735862    0.000000
    39  O3    c     0.633275    0.151362    0.134937    0.000000
    40  O2    c     0.864639    0.910336    0.094619    0.000000
    41  O2    c     0.375190    0.147088    0.893409    0.000000
    42  O2    c     0.123675    0.848982    0.887685    0.000000
    43  O2    c     0.408459    0.806615    0.914490    0.000000
    44  O2    c     0.095823    0.191749    0.886820    0.000000
    45  O3    c     0.593484    0.789351    0.119110    0.000000
    46  O3    c     0.925210    0.225922    0.118170    0.000000
    47  O3    c     0.511669    0.055548    0.978572    0.000000
    48  O2    c     0.000613    0.963103    0.000112    0.000000
    49  O2    c     0.134117    0.512587    0.309210    0.000000
    50  O2    c     0.358250    0.485953    0.322147    0.000000
    51  O2    c     0.861754    0.510988    0.695816    0.000000
    52  O3    c     0.629569    0.443116    0.709969    0.000000
    53  O2    c     0.239228    0.260449    0.316609    0.000000
    54  O2    c     0.252799    0.737250    0.326806    0.000000
    55  O2    c     0.756281    0.254424    0.686011    0.000000
    56  O3    c     0.739806    0.713356    0.663297    0.000000
    57  O2    c     0.133337    0.264782    0.128050    0.000000
    58  O2    c     0.359472    0.730929    0.143719    0.000000
    59  O3    c     0.864431    0.267333    0.873029    0.000000
    60  O3    c     0.633758    0.738653    0.878230    0.000000
    61  O2    c     0.830827    0.772347    0.861044    0.000000
    62  O2    c     0.671790    0.214415    0.890937    0.000000
    63  O2    c     0.153393    0.761343    0.132510    0.000000
    64  O2    c     0.346717    0.239244    0.137056    0.000000
    65  O2    c     0.631333    0.473800    0.043276    0.000000
    66  O3    c     0.877437    0.566156    0.045517    0.000000
    67  O2    c     0.366482    0.482967    0.961129    0.000000
    68  O2    c     0.133097    0.516509    0.951958    0.000000
    69  O3    c     0.763694    0.308543    0.087182    0.000000
    70  O2    c     0.740537    0.719427    0.060844    0.000000
    71  O2    c     0.241591    0.274720    0.949976    0.000000
    72  O2    c     0.258498    0.726795    0.949328    0.000000
    73  O2    s     0.092737    0.180623    0.353944    0.000000
    74  O2    s     0.399587    0.818834    0.370334    0.000000
    75  O2    s     0.902935    0.177398    0.646978    0.000000
    76  O3    s     0.578979    0.788686    0.637651    0.000000
    77  O2    s     0.885402    0.841975    0.638000    0.000000
    78  O2    s     0.614981    0.105059    0.669968    0.000000
    79  O2    s     0.108607    0.845625    0.359496    0.000000
    80  O2    s     0.382053    0.154134    0.368160    0.000000
    81  O2    s     0.997404    0.993117    0.499896    0.000000
    82  O2    s     0.502944    0.015252    0.497678    0.000000
    83  O2    s     0.987282    0.977340    0.250250    0.000000
    84  O3    s     0.495502    0.021680    0.250104    0.000000
    85  O2    s     0.008779    0.978480    0.749240    0.000000
    86  O2    s     0.477355    0.994604    0.741201    0.000000
    87  O3    s     0.631391    0.153087    0.124001    0.000000
    88  O2    s     0.869290    0.903711    0.088326    0.000000
    89  O2    s     0.377615    0.147187    0.902725    0.000000
    90  O2    s     0.121297    0.849580    0.897458    0.000000
    91  O2    s     0.405163    0.813543    0.919829    0.000000
    92  O2    s     0.097826    0.184566    0.896356    0.000000
    93  O3    s     0.596150    0.795440    0.109882    0.000000
    94  O3    s     0.921801    0.215021    0.111168    0.000000
    95  O3    s     0.508063    0.045241    0.980135    0.000000
    96  O2    s     0.000877    0.973185    0.999477    0.000000
    97  O2    s     0.138818    0.511817    0.303332    0.000000
    98  O2    s     0.353644    0.486786    0.315469    0.000000
    99  O2    s     0.856707    0.509866    0.700350    0.000000
   100  O3    s     0.634665    0.442530    0.713513    0.000000
   101  O2    s     0.239572    0.268156    0.309600    0.000000
   102  O2    s     0.252688    0.729640    0.318685    0.000000
   103  O2    s     0.756404    0.259768    0.695354    0.000000
   104  O3    s     0.741343    0.709442    0.672453    0.000000
   105  O2    s     0.136944    0.274131    0.128381    0.000000
   106  O2    s     0.356388    0.722040    0.143365    0.000000
   107  O3    s     0.862029    0.277107    0.870759    0.000000
   108  O3    s     0.636217    0.727642    0.879838    0.000000
   109  O2    s     0.830548    0.762539    0.861523    0.000000
   110  O2    s     0.671594    0.225941    0.890184    0.000000
   111  O2    s     0.155702    0.751309    0.132488    0.000000
   112  O2    s     0.343703    0.248842    0.136993    0.000000
   113  O2    s     0.637696    0.476602    0.041037    0.000000
   114  O3    s     0.871199    0.565333    0.041507    0.000000
   115  O2    s     0.360918    0.483944    0.967024    0.000000
   116  O2    s     0.138608    0.515378    0.958031    0.000000
   117  O3    s     0.762496    0.309059    0.077733    0.000000
   118  O2    s     0.740648    0.717743    0.052149    0.000000
   119  O2    s     0.241713    0.280280    0.957317    0.000000
   120  O2    s     0.258226    0.720994    0.957443    0.000000
--------------------------------------------------------------------------------

  Final Cartesian lattice vectors (Angstroms) :

       17.045000   -0.141358   -0.102462
       -0.061172    7.576266   -0.059179
       -0.061220   -0.078462   10.306660


  Final cell parameters and derivatives :

--------------------------------------------------------------------------------
       a           17.045894 Angstrom     dE/de1(xx)     0.000785 eV/strain
       b            7.576744 Angstrom     dE/de2(yy)    -0.001822 eV/strain
       c           10.307140 Angstrom     dE/de3(zz)     0.003636 eV/strain
       alpha       90.880913 Degrees      dE/de4(yz)     0.000260 eV/strain
       beta        90.681082 Degrees      dE/de5(xz)    -0.000576 eV/strain
       gamma       90.935029 Degrees      dE/de6(xy)     0.000350 eV/strain
--------------------------------------------------------------------------------

  Primitive cell volume =          1330.759003 Angs**3

  Density of cell =      1.966236 g/cm**3

  Non-primitive cell volume =          1330.759003 Angs**3


  Final internal derivatives :

--------------------------------------------------------------------------------
   No.  Atomic          a             b             c           Radius
        Label          (eV)          (eV)          (eV)        (eV/Angs)
--------------------------------------------------------------------------------
      1 Ge    c       0.000000      0.000000      0.000000      0.000000
      2 Ge    c       0.001296      0.000094      0.000706      0.000000
      3 Ge    c       0.000898      0.000732      0.000335      0.000000
      4 Si    c       0.007700      0.000737     -0.001438      0.000000
      5 Si    c      -0.000892     -0.000112      0.000414      0.000000
      6 Si    c      -0.009369      0.000905      0.000893      0.000000
      7 Si    c      -0.000011     -0.000046     -0.000181      0.000000
      8 Si    c      -0.004671      0.002101      0.000714      0.000000
      9 Si    c      -0.000600      0.000047     -0.000225      0.000000
     10 Si    c       0.006764      0.001016      0.000980      0.000000
     11 Si    c      -0.000690      0.000175      0.000273      0.000000
     12 Si    c      -0.000122     -0.000011      0.000146      0.000000
     13 Si    c       0.000711      0.000921     -0.000334      0.000000
     14 Si    c      -0.001956     -0.000897      0.001162      0.000000
     15 Si    c      -0.000099      0.000423     -0.000409      0.000000
     16 Si    c      -0.000149     -0.000328      0.000293      0.000000
     17 Si    c       0.000090     -0.000008     -0.000002      0.000000
     18 Si    c       0.001603     -0.000053      0.000070      0.000000
     19 Si    c      -0.001215     -0.001384     -0.000310      0.000000
     20 Si    c       0.000101      0.000072     -0.000050      0.000000
     21 Si    c      -0.000887     -0.000170     -0.000270      0.000000
     22 Si    c      -0.000225     -0.000030     -0.000290      0.000000
     23 Si    c      -0.000952      0.000144     -0.000294      0.000000
     24 Si    c       0.000726     -0.000606     -0.001128      0.000000
     25 O2    c      -0.000372      0.000286      0.000003      0.000000
     26 O2    c       0.000015     -0.000103      0.000036      0.000000
     27 O2    c       0.000277      0.000291     -0.000159      0.000000
     28 O3    c      -0.000510      0.000264     -0.000105      0.000000
     29 O2    c      -0.000274     -0.000606     -0.000713      0.000000
     30 O2    c      -0.000241     -0.000098      0.000142      0.000000
     31 O2    c       0.000574     -0.000710      0.000380      0.000000
     32 O2    c      -0.000044      0.000088      0.000042      0.000000
     33 O2    c       0.004754     -0.000439     -0.001060      0.000000
     34 O2    c       0.001075      0.000092      0.000610      0.000000
     35 O2    c      -0.007190     -0.001640      0.000149      0.000000
     36 O3    c      -0.001327      0.000238      0.000140      0.000000
     37 O2    c       0.000255     -0.001694     -0.001309      0.000000
     38 O2    c      -0.000392      0.000038      0.000088      0.000000
     39 O3    c       0.000143      0.000328      0.000449      0.000000
     40 O2    c      -0.002016     -0.000491     -0.000005      0.000000
     41 O2    c       0.000229     -0.000078     -0.000169      0.000000
     42 O2    c       0.000909     -0.000827     -0.000198      0.000000
     43 O2    c       0.000013     -0.000114      0.000076      0.000000
     44 O2    c       0.000048      0.000892     -0.000102      0.000000
     45 O3    c      -0.000459      0.000144      0.000501      0.000000
     46 O3    c       0.000485      0.000722     -0.000234      0.000000
     47 O3    c       0.000999      0.000232      0.000455      0.000000
     48 O2    c       0.003388     -0.002794      0.000240      0.000000
     49 O2    c      -0.000234     -0.000049      0.000044      0.000000
     50 O2    c       0.000125      0.000043      0.000029      0.000000
     51 O2    c      -0.001281      0.000225      0.001520      0.000000
     52 O3    c       0.001944     -0.001001      0.001000      0.000000
     53 O2    c      -0.000093      0.000008      0.000108      0.000000
     54 O2    c       0.000232     -0.000030      0.000069      0.000000
     55 O2    c      -0.000039      0.000292      0.000542      0.000000
     56 O3    c       0.004157     -0.000823      0.001618      0.000000
     57 O2    c      -0.000213      0.000080     -0.000148      0.000000
     58 O2    c       0.000161      0.000053      0.000087      0.000000
     59 O3    c      -0.001243      0.000355     -0.000495      0.000000
     60 O3    c       0.002404     -0.001099      0.001038      0.000000
     61 O2    c      -0.001354     -0.000765     -0.000403      0.000000
     62 O2    c      -0.000564      0.000212     -0.000179      0.000000
     63 O2    c       0.000073     -0.000096     -0.000188      0.000000
     64 O2    c       0.000174     -0.000044     -0.000031      0.000000
     65 O2    c       0.001515      0.001028     -0.000412      0.000000
     66 O3    c      -0.003176      0.001505     -0.002560      0.000000
     67 O2    c       0.000195      0.000016     -0.000041      0.000000
     68 O2    c      -0.000328      0.000018     -0.000041      0.000000
     69 O3    c      -0.003266      0.000735     -0.000892      0.000000
     70 O2    c       0.003707     -0.000421     -0.001034      0.000000
     71 O2    c      -0.000539      0.000058     -0.000154      0.000000
     72 O2    c       0.000245     -0.000051     -0.000094      0.000000
     73 O2    s       0.003126      0.000671      0.000008      0.000000
     74 O2    s      -0.000446     -0.000119     -0.000014      0.000000
     75 O2    s      -0.004193      0.001259      0.000484      0.000000
     76 O3    s       0.000893     -0.000093      0.000322      0.000000
     77 O2    s      -0.005872     -0.000875      0.000824      0.000000
     78 O2    s       0.000588      0.000352     -0.000024      0.000000
     79 O2    s       0.003626     -0.000249     -0.000451      0.000000
     80 O2    s      -0.000406      0.000049      0.000119      0.000000
     81 O2    s      -0.000539      0.000328      0.000152      0.000000
     82 O2    s       0.000225     -0.000009      0.000145      0.000000
     83 O2    s       0.000254      0.000139      0.000687      0.000000
     84 O3    s       0.000752     -0.000065     -0.000212      0.000000
     85 O2    s      -0.000311      0.000294     -0.000367      0.000000
     86 O2    s       0.000486     -0.000084     -0.000057      0.000000
     87 O3    s       0.000850      0.000147     -0.000355      0.000000
     88 O2    s      -0.004425     -0.000931     -0.000910      0.000000
     89 O2    s      -0.000388     -0.000030      0.000064      0.000000
     90 O2    s       0.004277     -0.000308     -0.000108      0.000000
     91 O2    s      -0.000159      0.000029     -0.000005      0.000000
     92 O2    s       0.003947      0.000788     -0.000103      0.000000
     93 O3    s       0.001554     -0.000549     -0.001056      0.000000
     94 O3    s      -0.003457      0.001025      0.000042      0.000000
     95 O3    s      -0.000235     -0.000157     -0.000298      0.000000
     96 O2    s      -0.000525      0.000174      0.000934      0.000000
     97 O2    s       0.000520      0.000015     -0.000072      0.000000
     98 O2    s      -0.000036      0.000046      0.000001      0.000000
     99 O2    s      -0.003037      0.000486      0.001941      0.000000
    100 O3    s       0.001512      0.000366      0.000394      0.000000
    101 O2    s       0.000072     -0.000087      0.000021      0.000000
    102 O2    s       0.000100      0.000085      0.000022      0.000000
    103 O2    s      -0.000237      0.001130      0.001055      0.000000
    104 O3    s       0.000539     -0.000734      0.001476      0.000000
    105 O2    s       0.000232     -0.000425      0.000217      0.000000
    106 O2    s      -0.000132      0.000026     -0.000012      0.000000
    107 O3    s      -0.001577      0.000081     -0.000239      0.000000
    108 O3    s       0.000826     -0.000548      0.000416      0.000000
    109 O2    s      -0.001989     -0.000870      0.000731      0.000000
    110 O2    s       0.001880      0.001152     -0.000257      0.000000
    111 O2    s      -0.000559      0.000481      0.000344      0.000000
    112 O2    s      -0.000206     -0.000039      0.000022      0.000000
    113 O2    s       0.001993      0.000105     -0.001148      0.000000
    114 O3    s      -0.002676      0.000256     -0.001278      0.000000
    115 O2    s      -0.000111      0.000077      0.000077      0.000000
    116 O2    s       0.000890     -0.000066      0.000173      0.000000
    117 O3    s       0.000856      0.000142     -0.000965      0.000000
    118 O2    s      -0.000195     -0.001181     -0.001612      0.000000
    119 O2    s       0.000192     -0.000063      0.000083      0.000000
    120 O2    s       0.000166      0.000044     -0.000029      0.000000
--------------------------------------------------------------------------------
  Maximum abs         0.009369      0.002794      0.002560      0.000000
--------------------------------------------------------------------------------


  Born effective charge tensors : 

-------------------------------------------------------------------------------
  Atom             x           y             z
-------------------------------------------------------------------------------
    1 Ge    x       4.3084     -0.2554     -0.1527
            y       0.1954      3.8869      0.0403
            z      -0.7509      0.0490      3.7162
-------------------------------------------------------------------------------
    2 Ge    x       3.9852     -0.3000      0.0389
            y      -0.3948      4.2216     -0.3211
            z       0.1508     -0.0533      3.4123
-------------------------------------------------------------------------------
    3 Ge    x       4.0044     -0.3525      0.1040
            y      -0.3656      4.2243     -0.2587
            z       0.2221     -0.0220      3.2910
-------------------------------------------------------------------------------
    4 Si    x       3.4209      0.0934     -0.2368
            y      -0.1232      3.2359     -0.0548
            z      -0.5068     -0.0191      3.7960
-------------------------------------------------------------------------------
    5 Si    x       3.5956      0.1432     -0.0729
            y      -0.1124      3.2764     -0.0659
            z       0.4605     -0.0284      4.0272
-------------------------------------------------------------------------------
    6 Si    x       3.4708     -0.1127     -0.2019
            y       0.1055      3.2001      0.0140
            z      -0.4583     -0.0267      3.8296
-------------------------------------------------------------------------------
    7 Si    x       3.6093     -0.4080      0.3233
            y       0.0148      3.4609      0.0679
            z       0.3366     -0.2079      3.8251
-------------------------------------------------------------------------------
    8 Si    x       3.4876     -0.4113      0.2488
            y       0.1671      3.5086      0.0502
            z       0.4704     -0.1661      3.1564
-------------------------------------------------------------------------------
    9 Si    x       3.7343      0.1964     -0.1891
            y      -0.1170      3.3250      0.0108
            z      -0.2912      0.0718      3.3150
-------------------------------------------------------------------------------
   10 Si    x       3.4359      0.1362      0.2310
            y      -0.1593      3.2466     -0.0098
            z       0.5314      0.0517      3.1229
-------------------------------------------------------------------------------
   11 Si    x       3.1919      0.2147     -0.0640
            y       0.2843      3.4373     -0.1714
            z      -0.0868     -0.0890      2.8212
-------------------------------------------------------------------------------
   12 Si    x       3.1664      0.2150      0.0872
            y       0.2706      3.4191      0.1640
            z       0.1141      0.0780      2.8170
-------------------------------------------------------------------------------
   13 Si    x       3.3029     -0.2677     -0.0015
            y      -0.2976      3.5194      0.1176
            z      -0.0691      0.0105      3.1302
-------------------------------------------------------------------------------
   14 Si    x       3.5890      0.3109     -0.0175
            y       0.1512      3.5148     -0.1893
            z      -0.0806     -0.0557      2.8703
-------------------------------------------------------------------------------
   15 Si    x       3.3445      0.2768      0.0716
            y      -0.0135      3.7654      0.0709
            z       0.1787      0.0244      2.8385
-------------------------------------------------------------------------------
   16 Si    x       3.1874     -0.2828     -0.1159
            y      -0.1981      3.4667      0.1604
            z      -0.1152      0.0616      2.8142
-------------------------------------------------------------------------------
   17 Si    x       3.1790     -0.2770      0.1587
            y      -0.1756      3.4494     -0.1632
            z       0.1031     -0.0729      2.8203
-------------------------------------------------------------------------------
   18 Si    x       3.7451      0.5653     -0.1737
            y       0.2084      3.6255     -0.3877
            z      -0.1874     -0.1696      2.9510
-------------------------------------------------------------------------------
   19 Si    x       3.3230      0.3134      0.1361
            y      -0.1276      3.6881      0.0746
            z       0.1697      0.0338      2.7931
-------------------------------------------------------------------------------
   20 Si    x       3.1934     -0.2988     -0.1902
            y      -0.0975      3.4335      0.1778
            z      -0.1133      0.0798      2.7617
-------------------------------------------------------------------------------
   21 Si    x       3.2141     -0.3077      0.1881
            y      -0.1090      3.4476     -0.1994
            z       0.1198     -0.0885      2.7522
-------------------------------------------------------------------------------
   22 Si    x       3.2561      0.2252     -0.1265
            y       0.2552      3.3955     -0.1494
            z      -0.1922     -0.0777      2.7362
-------------------------------------------------------------------------------
   23 Si    x       3.2298      0.2418      0.1494
            y       0.2502      3.3986      0.1731
            z       0.1277      0.0525      2.7111
-------------------------------------------------------------------------------
   24 Si    x       3.5698     -0.4159     -0.2691
            y      -0.3680      3.5421      0.2636
            z      -0.2910      0.0473      3.1627
-------------------------------------------------------------------------------
   25 O2    x      -1.6437     -0.6922      0.3263
            y      -0.6717     -2.0041      0.3596
            z       0.3677      0.3531     -1.3669
-------------------------------------------------------------------------------
   26 O2    x      -1.6190     -0.6739     -0.3022
            y      -0.6401     -1.9975     -0.3156
            z      -0.3787     -0.3167     -1.3652
-------------------------------------------------------------------------------
   27 O2    x      -1.6744      0.7165      0.3088
            y       0.6704     -2.0061     -0.3245
            z       0.3661     -0.3294     -1.3554
-------------------------------------------------------------------------------
   28 O3    x      -1.9536      0.8997     -0.3964
            y       0.8485     -2.5476      0.3443
            z      -0.4264      0.3454     -1.5333
-------------------------------------------------------------------------------
   29 O2    x      -1.7560     -0.7100      0.3081
            y      -0.7385     -1.9281      0.3182
            z       0.3513      0.3103     -1.3600
-------------------------------------------------------------------------------
   30 O2    x      -1.8935     -0.6624     -0.3899
            y      -0.7320     -1.8567     -0.3728
            z      -0.4059     -0.3091     -1.3476
-------------------------------------------------------------------------------
   31 O2    x      -1.7523      0.7142      0.3250
            y       0.7645     -1.9332     -0.3247
            z       0.3655     -0.3115     -1.3459
-------------------------------------------------------------------------------
   32 O2    x      -1.7256      0.6940     -0.3251
            y       0.7286     -1.9317      0.3643
            z      -0.3652      0.3209     -1.3694
-------------------------------------------------------------------------------
   33 O2    x      -1.6411     -0.0006      0.8536
            y      -0.0022     -1.0790      0.0115
            z       1.0806      0.0105     -2.7902
-------------------------------------------------------------------------------
   34 O2    x      -1.6391      0.0525     -0.7723
            y       0.0149     -1.1085      0.0578
            z      -0.9811      0.1198     -2.6487
-------------------------------------------------------------------------------
   35 O2    x      -1.6301      0.0545     -0.6676
            y       0.0037     -1.1377      0.0602
            z      -0.6377      0.0918     -2.2087
-------------------------------------------------------------------------------
   36 O3    x      -2.1088      0.0124      1.0336
            y      -0.0031     -1.2587      0.0182
            z       1.0069      0.0037     -2.7544
-------------------------------------------------------------------------------
   37 O2    x      -1.7231      0.0036     -0.7322
            y       0.0150     -1.1131      0.0045
            z      -0.7541      0.0050     -2.2395
-------------------------------------------------------------------------------
   38 O2    x      -1.7104      0.0347      0.6732
            y       0.0260     -1.1076     -0.0362
            z       0.6723     -0.0356     -2.2240
-------------------------------------------------------------------------------
   39 O3    x      -2.0947     -0.9155      0.4213
            y      -0.8708     -2.2390      0.5073
            z       0.4685      0.4762     -1.5392
-------------------------------------------------------------------------------
   40 O2    x      -1.8408     -0.6028     -0.3500
            y      -0.6080     -1.8269     -0.3629
            z      -0.3467     -0.2988     -1.2429
-------------------------------------------------------------------------------
   41 O2    x      -1.7307      0.6982      0.4113
            y       0.6532     -1.9183     -0.4045
            z       0.3554     -0.3659     -1.2924
-------------------------------------------------------------------------------
   42 O2    x      -1.7418      0.6983     -0.3602
            y       0.6858     -1.9132      0.3939
            z      -0.3546      0.3431     -1.2783
-------------------------------------------------------------------------------
   43 O2    x      -1.6621     -0.6599      0.3985
            y      -0.5707     -2.0219      0.4453
            z       0.3944      0.4128     -1.2899
-------------------------------------------------------------------------------
   44 O2    x      -1.6179     -0.6665     -0.3375
            y      -0.5803     -2.0058     -0.3580
            z      -0.3503     -0.3376     -1.2615
-------------------------------------------------------------------------------
   45 O3    x      -2.0140      0.9237      0.5145
            y       0.7678     -2.3509     -0.5068
            z       0.5424     -0.4849     -1.4959
-------------------------------------------------------------------------------
   46 O3    x      -1.8769      0.8319     -0.3799
            y       0.6605     -2.6091      0.3579
            z      -0.4226      0.3734     -1.3732
-------------------------------------------------------------------------------
   47 O3    x      -2.2436     -0.0877     -0.8380
            y      -0.0912     -1.3504     -0.0317
            z      -0.4835     -0.0035     -2.0159
-------------------------------------------------------------------------------
   48 O2    x      -1.7621      0.0274      0.5844
            y      -0.0038     -1.1913     -0.0377
            z       0.3285     -0.0269     -1.7176
-------------------------------------------------------------------------------
   49 O2    x      -1.1568     -0.0463      0.0557
            y      -0.0898     -2.5669     -0.0047
            z       0.0683     -0.0104     -1.0636
-------------------------------------------------------------------------------
   50 O2    x      -1.1514     -0.0373     -0.0717
            y      -0.0811     -2.5440     -0.0196
            z      -0.0780     -0.0029     -1.0737
-------------------------------------------------------------------------------
   51 O2    x      -1.1845      0.0563      0.0453
            y       0.1179     -2.5811      0.0348
            z       0.0663      0.0426     -1.0735
-------------------------------------------------------------------------------
   52 O3    x      -1.3957      0.2024     -0.0764
            y       0.2970     -3.1771      0.1661
            z      -0.1111      0.1052     -1.1843
-------------------------------------------------------------------------------
   53 O2    x      -2.3975      0.0788     -0.0346
            y       0.0319     -1.2533      0.0665
            z      -0.0140      0.0475     -1.0564
-------------------------------------------------------------------------------
   54 O2    x      -2.3733      0.0831     -0.0370
            y       0.0440     -1.2472     -0.0653
            z      -0.0389     -0.0430     -1.0726
-------------------------------------------------------------------------------
   55 O2    x      -2.4138     -0.1771      0.1087
            y      -0.0983     -1.2642     -0.0483
            z       0.0786     -0.0212     -1.0984
-------------------------------------------------------------------------------
   56 O3    x      -3.0228     -0.1312     -0.0349
            y      -0.0465     -1.3733      0.0958
            z      -0.0941      0.0390     -1.2595
-------------------------------------------------------------------------------
   57 O2    x      -1.2135     -0.1351     -0.0141
            y      -0.1361     -1.2757      0.0106
            z      -0.0201      0.0200     -2.0523
-------------------------------------------------------------------------------
   58 O2    x      -1.1945     -0.1174      0.0488
            y      -0.1202     -1.2702      0.0026
            z       0.0593     -0.0097     -2.0818
-------------------------------------------------------------------------------
   59 O3    x      -1.3575      0.1527     -0.1547
            y       0.1455     -1.4507      0.0051
            z      -0.1442     -0.0576     -2.6185
-------------------------------------------------------------------------------
   60 O3    x      -1.3776      0.1740     -0.0701
            y       0.1486     -1.4718      0.0912
            z      -0.0187      0.0479     -2.5464
-------------------------------------------------------------------------------
   61 O2    x      -1.1949     -0.1164      0.0134
            y      -0.0463     -1.2964     -0.0565
            z       0.0339     -0.0934     -2.0894
-------------------------------------------------------------------------------
   62 O2    x      -1.2235     -0.1204      0.0224
            y      -0.0456     -1.3243     -0.0902
            z       0.0034     -0.0831     -2.0394
-------------------------------------------------------------------------------
   63 O2    x      -1.1673      0.1236      0.0049
            y       0.0889     -1.2925      0.0000
            z       0.0180      0.0177     -2.0758
-------------------------------------------------------------------------------
   64 O2    x      -1.1738      0.1258      0.0398
            y       0.0918     -1.2875      0.0244
            z       0.0306      0.0114     -2.0817
-------------------------------------------------------------------------------
   65 O2    x      -1.3045      0.0779      0.0688
            y       0.1530     -2.3936      0.0429
            z       0.1018      0.0216     -1.0319
-------------------------------------------------------------------------------
   66 O3    x      -1.5077      0.2331     -0.1198
            y       0.3528     -3.0254      0.1335
            z      -0.1701      0.1245     -1.1430
-------------------------------------------------------------------------------
   67 O2    x      -1.2245     -0.0524      0.0881
            y      -0.1068     -2.5075     -0.0145
            z       0.1021      0.0034     -1.0258
-------------------------------------------------------------------------------
   68 O2    x      -1.2147     -0.0505     -0.0888
            y      -0.1168     -2.5080      0.0055
            z      -0.0938     -0.0003     -1.0209
-------------------------------------------------------------------------------
   69 O3    x      -3.0101     -0.2049     -0.0500
            y      -0.1177     -1.3784      0.0680
            z      -0.0540      0.0095     -1.2262
-------------------------------------------------------------------------------
   70 O2    x      -2.4056     -0.2325      0.0773
            y      -0.1391     -1.2806     -0.0393
            z       0.0646     -0.0098     -1.0696
-------------------------------------------------------------------------------
   71 O2    x      -2.4128      0.0920     -0.0234
            y       0.0486     -1.2397     -0.0597
            z      -0.0147     -0.0321     -1.0288
-------------------------------------------------------------------------------
   72 O2    x      -2.4112      0.0888     -0.0305
            y       0.0544     -1.2430      0.0690
            z      -0.0102      0.0435     -1.0422
-------------------------------------------------------------------------------




  Elastic Constant Matrix: (Units=GPa)

-------------------------------------------------------------------------------
  Indices      1         2         3         4         5         6    
-------------------------------------------------------------------------------
       1     52.4258   25.7048   27.6153   -1.2138   -4.8247   -3.1030
       2     25.7048   70.9185   21.8306   -1.1867   -5.9525   -2.9487
       3     27.6153   21.8306   40.4656   -0.9939   -2.0727   -4.3789
       4     -1.2138   -1.1867   -0.9939   12.4184   -1.5323    0.3420
       5     -4.8247   -5.9525   -2.0727   -1.5323   23.5473   -2.6645
       6     -3.1030   -2.9487   -4.3789    0.3420   -2.6645   27.3028
-------------------------------------------------------------------------------


  Elastic Compliance Matrix: (Units=1/GPa)

-------------------------------------------------------------------------------
  Indices      1         2         3         4         5         6    
-------------------------------------------------------------------------------
       1    0.031954 -0.005518 -0.018561  0.001551  0.003664  0.000397
       2   -0.005518  0.018190 -0.005786  0.001100  0.003109  0.000699
       3   -0.018561 -0.005786  0.040854  0.000652 -0.001209  0.003692
       4    0.001551  0.001100  0.000652  0.081571  0.005957 -0.000041
       5    0.003664  0.003109 -0.001209  0.005957  0.044835  0.004859
       6    0.000397  0.000699  0.003692 -0.000041  0.004859  0.037814
-------------------------------------------------------------------------------

  Mechanical properties :

-------------------------------------------------------------------------------
  Convention :                    Reuss         Voigt         Hill
-------------------------------------------------------------------------------
  Bulk  Modulus (GPa)     =      31.98098      34.90126      33.44112
  Shear Modulus (GPa)     =      15.36716      18.56431      16.96574
-------------------------------------------------------------------------------
  Velocity S-wave (km/s)  =       2.79563       3.07271       2.93744
  Velocity P-wave (km/s)  =       5.16583       5.50809       5.33970
-------------------------------------------------------------------------------
  Compressibility (1/GPa) =    0.03126859
-------------------------------------------------------------------------------
  Stress axis :                     x             y             z
-------------------------------------------------------------------------------
  Youngs Moduli (GPa)     =      31.29529      54.97469      24.47761
-------------------------------------------------------------------------------
  Poissons Ratio (x)      =                     0.30337       0.45432
  Poissons Ratio (y)      =       0.17270                     0.14162
  Poissons Ratio (z)      =       0.58086       0.31806
-------------------------------------------------------------------------------


  Piezoelectric Strain Matrix: (Units=C/m**2)

-------------------------------------------------------------------------------
  Indices      1         2         3         4         5         6    
-------------------------------------------------------------------------------
       x    -0.08683  -0.08796  -0.56754  -0.05939   0.10156   0.20568
       y     0.26490   0.22902  -0.44294  -0.17459  -0.43656   0.11264
       z     0.10141   0.25709  -0.79159   0.25044   0.36112   0.16357
-------------------------------------------------------------------------------


  Piezoelectric Stress Matrix: (Units=10**-11 C/N)

-------------------------------------------------------------------------------
  Indices      1         2         3         4         5         6    
-------------------------------------------------------------------------------
       x     0.86065   0.25569  -2.04679  -0.48491   0.52939   0.60824
       y     1.35961   0.37961  -2.35075  -1.64725  -1.78478   0.07751
       z     1.82908   1.02093  -3.53784   2.24972   2.06058   0.52273
-------------------------------------------------------------------------------


  Static dielectric constant tensor : 

-------------------------------------------------------------------------------
              x         y         z
-------------------------------------------------------------------------------
       x     4.02018  -0.04550  -0.00559
       y    -0.04550   4.15870  -0.02041
       z    -0.00559  -0.02041   3.29743
--------------------------------------------------------------------------------

  High frequency dielectric constant tensor : 

-------------------------------------------------------------------------------
              x         y         z
-------------------------------------------------------------------------------
       x     1.68221  -0.00052  -0.00080
       y    -0.00052   1.68937  -0.00150
       z    -0.00080  -0.00150   1.62366
-------------------------------------------------------------------------------

  Static refractive indices : 

-------------------------------------------------------------------------------
    1 =    1.81573      2 =    2.00169      3 =    2.04271
-------------------------------------------------------------------------------

  High frequency refractive indices : 

-------------------------------------------------------------------------------
    1 =    1.27421      2 =    1.29699      3 =    1.29978
-------------------------------------------------------------------------------


  Time to end of optimisation =      10.3318 seconds


  Peak dynamic memory used =       5.01 MB 


  Timing analysis for GULP :

--------------------------------------------------------------------------------
  Task / Subroutine                                          Time (Seconds)
--------------------------------------------------------------------------------
  Calculation of reciprocal space energy and derivatives          0.6139
  Calculation of real space energy and derivatives                6.4072
  Calculation of three-body energy and derivatives                0.6001
  Calculation and manipulation of Hessian matrix                  3.0328
  Calculation of matrix inversion                                 0.0333
  Global summation overhead                                       0.0002
--------------------------------------------------------------------------------
  Total CPU time                                                 10.3318
--------------------------------------------------------------------------------


  Dump file written as c00182.vasp.grs
  CIF file written as c00182.vasp.cif


  Job Finished at 11:58.46  7th October    2025                               

