********************************************************************************
*                       GENERAL UTILITY LATTICE PROGRAM                        *
*                                 Julian Gale                                  *
*                       Curtin Institute for Computation                       *
*                    School of Molecular and Life Sciences                     *
*                    Curtin University, Western Australia                      *
********************************************************************************
* Version = 6.1.2 * Last modified =   3rd November 2022                        *
********************************************************************************
*  optimise     - perform optimisation run                                     *
*  conp         - constant pressure calculation                                *
*  property     - calculate properties for final geometry                      *
********************************************************************************

  Job Started  at 11:53.31  7th October    2025                               

  Number of CPUs =     1


  Total number of configurations input =      1

********************************************************************************
*  Input for Configuration =   1 : c00155.vasp                                 *
********************************************************************************

  Formula = Ge3Si21O48                                                  

  Number of irreducible atoms/shells =     120


  Total number atoms/shells =     120

  Dimensionality = 3               :  Bulk   



  Cartesian lattice vectors (Angstroms) :

       17.182800    0.000000    0.000000
        0.000000    7.513760    0.000000
        0.000000    0.000000   10.447700

  Cell parameters (Angstroms/Degrees):

  a =      17.1828    alpha =  90.0000
  b =       7.5138    beta  =  90.0000
  c =      10.4477    gamma =  90.0000

  Initial cell volume =        1348.875752 Angs**3

  Temperature of configuration =   0.00     K 

  Pressure of configuration =         0.000 GPa 

  Fractional coordinates of asymmetric unit :

--------------------------------------------------------------------------------
   No.  Atomic       x           y          z         Charge      Occupancy
        Label      (Frac)      (Frac)     (Frac)        (e)         (Frac)  
--------------------------------------------------------------------------------
      1 Ge    c    0.556730    0.000000    0.122130     4.00000    1.000000    
      2 Ge    c    0.339810 *  0.706090 *  0.273440 *   4.00000    1.000000    
      3 Ge    c    0.660660 *  0.294090 *  0.017440 *   4.00000    1.000000    
      4 Si    c    0.052090 *  0.000000 *  0.372270 *   4.00000    1.000000    
      5 Si    c    0.447910 *  0.000000 *  0.372270 *   4.00000    1.000000    
      6 Si    c    0.947910 *  0.000000 *  0.627730 *   4.00000    1.000000    
      7 Si    c    0.552090 *  0.000000 *  0.627730 *   4.00000    1.000000    
      8 Si    c    0.943270 *  0.000000 *  0.122130 *   4.00000    1.000000    
      9 Si    c    0.443270 *  0.000000 *  0.877870 *   4.00000    1.000000    
     10 Si    c    0.056730 *  0.000000 *  0.877870 *   4.00000    1.000000    
     11 Si    c    0.160190 *  0.293910 *  0.273440 *   4.00000    1.000000    
     12 Si    c    0.839810 *  0.293910 *  0.726560 *   4.00000    1.000000    
     13 Si    c    0.660190 *  0.706090 *  0.726560 *   4.00000    1.000000    
     14 Si    c    0.839810 *  0.706090 *  0.726560 *   4.00000    1.000000    
     15 Si    c    0.660190 *  0.293910 *  0.726560 *   4.00000    1.000000    
     16 Si    c    0.160190 *  0.706090 *  0.273440 *   4.00000    1.000000    
     17 Si    c    0.339810 *  0.293910 *  0.273440 *   4.00000    1.000000    
     18 Si    c    0.839340 *  0.705910 *  0.017440 *   4.00000    1.000000    
     19 Si    c    0.339340 *  0.294090 *  0.982560 *   4.00000    1.000000    
     20 Si    c    0.160660 *  0.705910 *  0.982560 *   4.00000    1.000000    
     21 Si    c    0.339340 *  0.705910 *  0.982560 *   4.00000    1.000000    
     22 Si    c    0.160660 *  0.294090 *  0.982560 *   4.00000    1.000000    
     23 Si    c    0.660660 *  0.705910 *  0.017440 *   4.00000    1.000000    
     24 Si    c    0.839340 *  0.294090 *  0.017440 *   4.00000    1.000000    
     25 O2    c    0.106570 *  0.174340 *  0.366200 *   0.87073    1.000000    
     26 O3    c    0.393430 *  0.825660 *  0.366200 *   1.33043    1.000000    
     27 O2    c    0.893430 *  0.174340 *  0.633800 *   0.87073    1.000000    
     28 O2    c    0.606570 *  0.825660 *  0.633800 *   0.87073    1.000000    
     29 O2    c    0.893430 *  0.825660 *  0.633800 *   0.87073    1.000000    
     30 O2    c    0.606570 *  0.174340 *  0.633800 *   0.87073    1.000000    
     31 O2    c    0.106570 *  0.825660 *  0.366200 *   0.87073    1.000000    
     32 O2    c    0.393430 *  0.174340 *  0.366200 *   0.87073    1.000000    
     33 O2    c    0.000000 *  0.000000 *  0.500000 *   0.87073    1.000000    
     34 O2    c    0.500000 *  0.000000 *  0.500000 *   0.87073    1.000000    
     35 O2    c    0.994520 *  0.000000 *  0.250840 *   0.87073    1.000000    
     36 O3    c    0.505480 *  0.000000 *  0.250840 *   1.33043    1.000000    
     37 O2    c    0.005480 *  0.000000 *  0.749160 *   0.87073    1.000000    
     38 O2    c    0.494520 *  0.000000 *  0.749160 *   0.87073    1.000000    
     39 O1    c    0.610230 *  0.175520 *  0.115390 *   1.73396    1.000000    
     40 O2    c    0.889770 *  0.824480 *  0.115390 *   0.87073    1.000000    
     41 O2    c    0.389770 *  0.175520 *  0.884610 *   0.87073    1.000000    
     42 O2    c    0.110230 *  0.824480 *  0.884610 *   0.87073    1.000000    
     43 O2    c    0.389770 *  0.824480 *  0.884610 *   0.87073    1.000000    
     44 O2    c    0.110230 *  0.175520 *  0.884610 *   0.87073    1.000000    
     45 O3    c    0.610230 *  0.824480 *  0.115390 *   1.33043    1.000000    
     46 O2    c    0.889770 *  0.175520 *  0.115390 *   0.87073    1.000000    
     47 O3    c    0.500000 *  0.000000 *  0.000000 *   1.33043    1.000000    
     48 O2    c    0.000000 *  0.000000 *  0.000000 *   0.87073    1.000000    
     49 O2    c    0.151750 *  0.500000 *  0.313330 *   0.87073    1.000000    
     50 O3    c    0.348250 *  0.500000 *  0.313330 *   1.33043    1.000000    
     51 O2    c    0.848250 *  0.500000 *  0.686670 *   0.87073    1.000000    
     52 O2    c    0.651750 *  0.500000 *  0.686670 *   0.87073    1.000000    
     53 O2    c    0.250000 *  0.234950 *  0.285720 *   0.87073    1.000000    
     54 O3    c    0.250000 *  0.765050 *  0.285720 *   1.33043    1.000000    
     55 O2    c    0.750000 *  0.234950 *  0.714280 *   0.87073    1.000000    
     56 O2    c    0.750000 *  0.765050 *  0.714280 *   0.87073    1.000000    
     57 O2    c    0.131410 *  0.268650 *  0.127790 *   0.87073    1.000000    
     58 O3    c    0.368590 *  0.731350 *  0.127790 *   1.33043    1.000000    
     59 O2    c    0.868590 *  0.268650 *  0.872210 *   0.87073    1.000000    
     60 O2    c    0.631410 *  0.731350 *  0.872210 *   0.87073    1.000000    
     61 O2    c    0.868590 *  0.731350 *  0.872210 *   0.87073    1.000000    
     62 O3    c    0.631410 *  0.268650 *  0.872210 *   1.33043    1.000000    
     63 O2    c    0.131410 *  0.731350 *  0.127790 *   0.87073    1.000000    
     64 O2    c    0.368590 *  0.268650 *  0.127790 *   0.87073    1.000000    
     65 O3    c    0.653920 *  0.500000 *  0.058200 *   1.33043    1.000000    
     66 O2    c    0.846080 *  0.500000 *  0.058200 *   0.87073    1.000000    
     67 O2    c    0.346080 *  0.500000 *  0.941800 *   0.87073    1.000000    
     68 O2    c    0.153920 *  0.500000 *  0.941800 *   0.87073    1.000000    
     69 O3    c    0.750000 *  0.231060 *  0.027050 *   1.33043    1.000000    
     70 O2    c    0.750000 *  0.768940 *  0.027050 *   0.87073    1.000000    
     71 O2    c    0.250000 *  0.231060 *  0.972950 *   0.87073    1.000000    
     72 O2    c    0.250000 *  0.768940 *  0.972950 *   0.87073    1.000000    
     73 O2    s    0.106570 *  0.174340 *  0.366200 *  -2.87073    1.000000    
     74 O3    s    0.393430 *  0.825660 *  0.366200 *  -3.33043    1.000000    
     75 O2    s    0.893430 *  0.174340 *  0.633800 *  -2.87073    1.000000    
     76 O2    s    0.606570 *  0.825660 *  0.633800 *  -2.87073    1.000000    
     77 O2    s    0.893430 *  0.825660 *  0.633800 *  -2.87073    1.000000    
     78 O2    s    0.606570 *  0.174340 *  0.633800 *  -2.87073    1.000000    
     79 O2    s    0.106570 *  0.825660 *  0.366200 *  -2.87073    1.000000    
     80 O2    s    0.393430 *  0.174340 *  0.366200 *  -2.87073    1.000000    
     81 O2    s    0.000000 *  0.000000 *  0.500000 *  -2.87073    1.000000    
     82 O2    s    0.500000 *  0.000000 *  0.500000 *  -2.87073    1.000000    
     83 O2    s    0.994520 *  0.000000 *  0.250840 *  -2.87073    1.000000    
     84 O3    s    0.505480 *  0.000000 *  0.250840 *  -3.33043    1.000000    
     85 O2    s    0.005480 *  0.000000 *  0.749160 *  -2.87073    1.000000    
     86 O2    s    0.494520 *  0.000000 *  0.749160 *  -2.87073    1.000000    
     87 O1    s    0.610230 *  0.175520 *  0.115390 *  -3.73396    1.000000    
     88 O2    s    0.889770 *  0.824480 *  0.115390 *  -2.87073    1.000000    
     89 O2    s    0.389770 *  0.175520 *  0.884610 *  -2.87073    1.000000    
     90 O2    s    0.110230 *  0.824480 *  0.884610 *  -2.87073    1.000000    
     91 O2    s    0.389770 *  0.824480 *  0.884610 *  -2.87073    1.000000    
     92 O2    s    0.110230 *  0.175520 *  0.884610 *  -2.87073    1.000000    
     93 O3    s    0.610230 *  0.824480 *  0.115390 *  -3.33043    1.000000    
     94 O2    s    0.889770 *  0.175520 *  0.115390 *  -2.87073    1.000000    
     95 O3    s    0.500000 *  0.000000 *  0.000000 *  -3.33043    1.000000    
     96 O2    s    0.000000 *  0.000000 *  0.000000 *  -2.87073    1.000000    
     97 O2    s    0.151750 *  0.500000 *  0.313330 *  -2.87073    1.000000    
     98 O3    s    0.348250 *  0.500000 *  0.313330 *  -3.33043    1.000000    
     99 O2    s    0.848250 *  0.500000 *  0.686670 *  -2.87073    1.000000    
    100 O2    s    0.651750 *  0.500000 *  0.686670 *  -2.87073    1.000000    
    101 O2    s    0.250000 *  0.234950 *  0.285720 *  -2.87073    1.000000    
    102 O3    s    0.250000 *  0.765050 *  0.285720 *  -3.33043    1.000000    
    103 O2    s    0.750000 *  0.234950 *  0.714280 *  -2.87073    1.000000    
    104 O2    s    0.750000 *  0.765050 *  0.714280 *  -2.87073    1.000000    
    105 O2    s    0.131410 *  0.268650 *  0.127790 *  -2.87073    1.000000    
    106 O3    s    0.368590 *  0.731350 *  0.127790 *  -3.33043    1.000000    
    107 O2    s    0.868590 *  0.268650 *  0.872210 *  -2.87073    1.000000    
    108 O2    s    0.631410 *  0.731350 *  0.872210 *  -2.87073    1.000000    
    109 O2    s    0.868590 *  0.731350 *  0.872210 *  -2.87073    1.000000    
    110 O3    s    0.631410 *  0.268650 *  0.872210 *  -3.33043    1.000000    
    111 O2    s    0.131410 *  0.731350 *  0.127790 *  -2.87073    1.000000    
    112 O2    s    0.368590 *  0.268650 *  0.127790 *  -2.87073    1.000000    
    113 O3    s    0.653920 *  0.500000 *  0.058200 *  -3.33043    1.000000    
    114 O2    s    0.846080 *  0.500000 *  0.058200 *  -2.87073    1.000000    
    115 O2    s    0.346080 *  0.500000 *  0.941800 *  -2.87073    1.000000    
    116 O2    s    0.153920 *  0.500000 *  0.941800 *  -2.87073    1.000000    
    117 O3    s    0.750000 *  0.231060 *  0.027050 *  -3.33043    1.000000    
    118 O2    s    0.750000 *  0.768940 *  0.027050 *  -2.87073    1.000000    
    119 O2    s    0.250000 *  0.231060 *  0.972950 *  -2.87073    1.000000    
    120 O2    s    0.250000 *  0.768940 *  0.972950 *  -2.87073    1.000000    
--------------------------------------------------------------------------------



********************************************************************************
*  General input information                                                   *
********************************************************************************

  Species output for all configurations : 

--------------------------------------------------------------------------------
  Species    Type    Atomic    Atomic    Charge       Radii (Angs)     Library
                     Number     Mass       (e)     Cova   Ionic  VDW   Symbol
--------------------------------------------------------------------------------
    Ge       Core       32      72.61   4.000000   1.170  0.000  1.750 Ge       
    Si       Core       14      28.09   4.000000   1.200  0.000  2.100 Si       
    O1       Core        8      16.00   1.733957   0.730  0.000  1.360 O1       
    O2       Core        8      16.00   0.870733   0.730  0.000  1.360 O2       
    O3       Core        8      16.00   1.330431   0.730  0.000  1.360 O3       
    O1       Shell       8       0.00  -3.733957   0.730  0.000  0.000 O1       
    O2       Shell       8       0.00  -2.870733   0.730  0.000  0.000 O2       
    O3       Shell       8       0.00  -3.330431   0.730  0.000  0.000 O3       
--------------------------------------------------------------------------------


  Lattice summation method               =    Ewald          (3-D)
                                         =    Parry          (2-D)
                                         =    Saunders et al (1-D)
  Accuracy factor for lattice sums       =   12.000


  Analytic derivatives to be used

  Time limit = Infinity

  Maximum range for interatomic potentials =    100000.000000 Angstroms

  General interatomic potentials :

--------------------------------------------------------------------------------
Atom  Types   Potential      Parameter       Value         Units   Cutoffs(Ang)
  1     2                                                            Min /  Max 
--------------------------------------------------------------------------------
Si   c O1   s Buckingham    Buckingham A     1315.2478    eV        0.000 16.000
                            Buckingham rho  0.31775900    Ang       
                            Buckingham C     10.141118    eV*Ang^6  
--------------------------------------------------------------------------------
Si   c O2   s Buckingham    Buckingham A     1315.2478    eV        0.000 16.000
                            Buckingham rho  0.31775900    Ang       
                            Buckingham C     10.141118    eV*Ang^6  
--------------------------------------------------------------------------------
Si   c O3   s Buckingham    Buckingham A     1315.2478    eV        0.000 16.000
                            Buckingham rho  0.31775900    Ang       
                            Buckingham C     10.141118    eV*Ang^6  
--------------------------------------------------------------------------------
Ge   c O1   s Buckingham    Buckingham A     1497.3996    eV        0.000 16.000
                            Buckingham rho  0.32564600    Ang       
                            Buckingham C     16.808599    eV*Ang^6  
--------------------------------------------------------------------------------
Ge   c O2   s Buckingham    Buckingham A     1497.3996    eV        0.000 16.000
                            Buckingham rho  0.32564600    Ang       
                            Buckingham C     16.808599    eV*Ang^6  
--------------------------------------------------------------------------------
Ge   c O3   s Buckingham    Buckingham A     1497.3996    eV        0.000 16.000
                            Buckingham rho  0.32564600    Ang       
                            Buckingham C     16.808599    eV*Ang^6  
--------------------------------------------------------------------------------
O1   s O1   s Buckingham    Buckingham A     22764.000    eV        0.000 16.000
                            Buckingham rho  0.14900000    Ang       
                            Buckingham C     10.937044    eV*Ang^6  
--------------------------------------------------------------------------------
O1   s O2   s Buckingham    Buckingham A     22764.000    eV        0.000 16.000
                            Buckingham rho  0.14900000    Ang       
                            Buckingham C     10.937044    eV*Ang^6  
--------------------------------------------------------------------------------
O1   s O3   s Buckingham    Buckingham A     22764.000    eV        0.000 16.000
                            Buckingham rho  0.14900000    Ang       
                            Buckingham C     10.937044    eV*Ang^6  
--------------------------------------------------------------------------------
O2   s O2   s Buckingham    Buckingham A     22764.000    eV        0.000 16.000
                            Buckingham rho  0.14900000    Ang       
                            Buckingham C     10.937044    eV*Ang^6  
--------------------------------------------------------------------------------
O2   s O3   s Buckingham    Buckingham A     22764.000    eV        0.000 16.000
                            Buckingham rho  0.14900000    Ang       
                            Buckingham C     10.937044    eV*Ang^6  
--------------------------------------------------------------------------------
O3   s O3   s Buckingham    Buckingham A     22764.000    eV        0.000 16.000
                            Buckingham rho  0.14900000    Ang       
                            Buckingham C     10.937044    eV*Ang^6  
--------------------------------------------------------------------------------
O1   c O1   s Spring (c-s)  Spring k 2       180.31577    eV*Ang^-2 0.000  0.800
                            Spring k 4       0.0000000    eV*Ang^-4 
--------------------------------------------------------------------------------
O2   c O2   s Spring (c-s)  Spring k 2       75.969800    eV*Ang^-2 0.000  0.800
                            Spring k 4       0.0000000    eV*Ang^-4 
--------------------------------------------------------------------------------
O3   c O3   s Spring (c-s)  Spring k 2       128.14270    eV*Ang^-2 0.000  0.800
                            Spring k 4       0.0000000    eV*Ang^-4 
--------------------------------------------------------------------------------

  General Three-body potentials :

--------------------------------------------------------------------------------
  Atoms       Potential      Parameter       Value         Units   Cutoffs(Ang)
  1 / 2 / 3                                                          Min /  Max 
--------------------------------------------------------------------------------
Si    core    Harmonic      Three-body cnst  1.2614000    eV*rad^-2 0.000  1.900
O1    shel                  Three-body angl  109.47000    degrees   0.000  1.900
O1    shel                  Three-body k4    0.0000000    eV*rad^-4 0.000  3.500
                            Three-body k3    0.0000000    eV*rad^-3 
--------------------------------------------------------------------------------
Si    core    Harmonic      Three-body cnst  1.2614000    eV*rad^-2 0.000  1.900
O1    shel                  Three-body angl  109.47000    degrees   0.000  1.900
õ(1   shel                  Three-body k4    0.0000000    eV*rad^-4 0.000  3.500
                            Three-body k3    0.0000000    eV*rad^-3 
--------------------------------------------------------------------------------
Si    core    Harmonic      Three-body cnst  1.2614000    eV*rad^-2 0.000  1.900
õ(1   shel                  Three-body angl  109.47000    degrees   0.000  1.900
õ(1   shel                  Three-body k4    0.0000000    eV*rad^-4 0.000  3.500
                            Three-body k3    0.0000000    eV*rad^-3 
--------------------------------------------------------------------------------
Si    core    Harmonic      Three-body cnst  1.2614000    eV*rad^-2 0.000  1.900
O1    shel                  Three-body angl  109.47000    degrees   0.000  1.900
O2    shel                  Three-body k4    0.0000000    eV*rad^-4 0.000  3.500
                            Three-body k3    0.0000000    eV*rad^-3 
--------------------------------------------------------------------------------
Si    core    Harmonic      Three-body cnst  1.2614000    eV*rad^-2 0.000  1.900
O1    shel                  Three-body angl  109.47000    degrees   0.000  1.900
õ(2   shel                  Three-body k4    0.0000000    eV*rad^-4 0.000  3.500
                            Three-body k3    0.0000000    eV*rad^-3 
--------------------------------------------------------------------------------
Si    core    Harmonic      Three-body cnst  1.2614000    eV*rad^-2 0.000  1.900
O2    shel                  Three-body angl  109.47000    degrees   0.000  1.900
õ(1   shel                  Three-body k4    0.0000000    eV*rad^-4 0.000  3.500
                            Three-body k3    0.0000000    eV*rad^-3 
--------------------------------------------------------------------------------
Si    core    Harmonic      Three-body cnst  1.2614000    eV*rad^-2 0.000  1.900
õ(1   shel                  Three-body angl  109.47000    degrees   0.000  1.900
õ(2   shel                  Three-body k4    0.0000000    eV*rad^-4 0.000  3.500
                            Three-body k3    0.0000000    eV*rad^-3 
--------------------------------------------------------------------------------
Si    core    Harmonic      Three-body cnst  1.2614000    eV*rad^-2 0.000  1.900
O2    shel                  Three-body angl  109.47000    degrees   0.000  1.900
O2    shel                  Three-body k4    0.0000000    eV*rad^-4 0.000  3.500
                            Three-body k3    0.0000000    eV*rad^-3 
--------------------------------------------------------------------------------
Si    core    Harmonic      Three-body cnst  1.2614000    eV*rad^-2 0.000  1.900
O2    shel                  Three-body angl  109.47000    degrees   0.000  1.900
õ(2   shel                  Three-body k4    0.0000000    eV*rad^-4 0.000  3.500
                            Three-body k3    0.0000000    eV*rad^-3 
--------------------------------------------------------------------------------
Si    core    Harmonic      Three-body cnst  1.2614000    eV*rad^-2 0.000  1.900
õ(2   shel                  Three-body angl  109.47000    degrees   0.000  1.900
õ(2   shel                  Three-body k4    0.0000000    eV*rad^-4 0.000  3.500
                            Three-body k3    0.0000000    eV*rad^-3 
--------------------------------------------------------------------------------

********************************************************************************
*  Output for configuration   1 : c00155.vasp                                  *
********************************************************************************


  Components of energy : 

--------------------------------------------------------------------------------
  Interatomic potentials     =         760.34908818 eV    
  Three-body potentials      =           0.01428685 eV    
  Monopole - monopole (real) =       -2676.00317478 eV    
  Monopole - monopole (recip)=       -1115.35404472 eV    
  Monopole - monopole (total)=       -3791.35721950 eV    
--------------------------------------------------------------------------------
  Total lattice energy       =       -3030.99384448 eV    
--------------------------------------------------------------------------------
  Total lattice energy       =         -292444.5730 kJ/(mole unit cells)
--------------------------------------------------------------------------------


  Number of variables =      363

  Maximum number of calculations  =          1000
  Maximum Hessian update interval =            10
  Maximum step size               =   0.100000000
  Maximum parameter tolerance     =   0.000010000
  Maximum function  tolerance     =   0.000010000
  Maximum gradient  tolerance     =   0.001000000
  Maximum gradient  component     =   0.010000000

  Symmetry not applied to optimisation

  Cell parameters to be optimised using strains

  Newton-Raphson optimiser to be used

  BFGS hessian update to be used

  Lower half triangular hessian to be used

  Minimiser to switch to RFO
  When gradient norm is less than     0.050000

  Dumpfile to be written after every cycle

  Start of bulk optimisation :

  Cycle:      0 Energy:     -3030.993844  Gnorm:      4.409558  CPU:    0.128
  ** Hessian calculated **
  Cycle:      1 Energy:     -3061.752912  Gnorm:      0.965801  CPU:    0.281
  ** Hessian calculated **
  Cycle:      2 Energy:     -3066.386385  Gnorm:      0.387455  CPU:    0.557
  ** Hessian calculated **
  Cycle:      3 Energy:     -3066.800417  Gnorm:      0.218455  CPU:    0.788
  Cycle:      4 Energy:     -3066.935057  Gnorm:      0.141889  CPU:    0.911
  Cycle:      5 Energy:     -3067.044696  Gnorm:      0.110666  CPU:    1.055
  Cycle:      6 Energy:     -3067.148994  Gnorm:      0.089425  CPU:    1.200
  Cycle:      7 Energy:     -3067.234272  Gnorm:      0.076845  CPU:    1.347
  Cycle:      8 Energy:     -3067.273225  Gnorm:      0.056917  CPU:    1.473
  Cycle:      9 Energy:     -3067.296396  Gnorm:      0.046481  CPU:    1.593
  ** Hessian has required structure
  Cycle:     10 Energy:     -3067.305329  Gnorm:      0.063360  CPU:    1.770
  ** Hessian has required structure
  Cycle:     11 Energy:     -3067.313964  Gnorm:      0.057326  CPU:    1.945
  ** Hessian has required structure
  Cycle:     12 Energy:     -3067.325112  Gnorm:      0.062934  CPU:    2.122
  ** Hessian has wrong structure
  ** Imaginary eigenvectors =   4
  Cycle:     13 Energy:     -3067.371115  Gnorm:      0.063659  CPU:    2.675
  ** Hessian has wrong structure
  ** Imaginary eigenvectors =   4
  Cycle:     14 Energy:     -3067.457415  Gnorm:      0.067990  CPU:    3.202
  ** Hessian has wrong structure
  ** Imaginary eigenvectors =   2
  ** Hessian has wrong structure
  ** Imaginary eigenvectors =   1
  Cycle:     15 Energy:     -3067.496068  Gnorm:      0.070873  CPU:    3.854
  ** Hessian has wrong structure
  ** Imaginary eigenvectors =   1
  ** Hessian has wrong structure
  ** Imaginary eigenvectors =   1
  Cycle:     16 Energy:     -3067.522737  Gnorm:      0.074962  CPU:    4.323
  ** Hessian has required structure
  Cycle:     17 Energy:     -3067.688160  Gnorm:      0.076223  CPU:    4.547
  ** Hessian has required structure
  Cycle:     18 Energy:     -3067.815831  Gnorm:      0.044354  CPU:    4.740
  ** Hessian has required structure
  Cycle:     19 Energy:     -3067.852974  Gnorm:      0.034522  CPU:    4.931
  ** Hessian has required structure
  Cycle:     20 Energy:     -3067.889802  Gnorm:      0.026118  CPU:    5.142
  ** Hessian has required structure
  Cycle:     21 Energy:     -3067.913343  Gnorm:      0.032881  CPU:    5.330
  ** Hessian has required structure
  Cycle:     22 Energy:     -3067.932279  Gnorm:      0.041911  CPU:    5.518
  ** Hessian has required structure
  Cycle:     23 Energy:     -3067.957247  Gnorm:      0.040486  CPU:    5.707
  ** Hessian has required structure
  Cycle:     24 Energy:     -3067.990490  Gnorm:      0.035492  CPU:    5.919
  ** Hessian has required structure
  Cycle:     25 Energy:     -3068.016932  Gnorm:      0.039652  CPU:    6.111
  ** Hessian has required structure
  Cycle:     26 Energy:     -3068.056545  Gnorm:      0.028823  CPU:    6.407
  ** Hessian has required structure
  Cycle:     27 Energy:     -3068.070378  Gnorm:      0.019056  CPU:    6.602
  ** Hessian has required structure
  Cycle:     28 Energy:     -3068.077741  Gnorm:      0.012533  CPU:    6.816
  ** Hessian has required structure
  Cycle:     29 Energy:     -3068.080781  Gnorm:      0.004907  CPU:    7.011
  ** Hessian has required structure
  Cycle:     30 Energy:     -3068.082700  Gnorm:      0.006690  CPU:    7.226
  ** Hessian has required structure
  Cycle:     31 Energy:     -3068.083416  Gnorm:      0.005330  CPU:    7.419
  ** Hessian has required structure
  Cycle:     32 Energy:     -3068.084121  Gnorm:      0.004144  CPU:    7.634
  ** Hessian has required structure
  Cycle:     33 Energy:     -3068.084748  Gnorm:      0.003454  CPU:    7.848
  ** Hessian has required structure
  Cycle:     34 Energy:     -3068.085228  Gnorm:      0.002188  CPU:    8.065
  ** Hessian has required structure
  Cycle:     35 Energy:     -3068.085483  Gnorm:      0.001800  CPU:    8.281
  ** Hessian has required structure
  Cycle:     36 Energy:     -3068.085600  Gnorm:      0.001090  CPU:    8.575
  ** Hessian has required structure
  Cycle:     37 Energy:     -3068.085654  Gnorm:      0.000561  CPU:    8.791
  ** Hessian has required structure
  Cycle:     38 Energy:     -3068.085672  Gnorm:      0.000287  CPU:    9.007
  ** Hessian has required structure
  Cycle:     39 Energy:     -3068.085676  Gnorm:      0.000174  CPU:    9.200
  ** Hessian has required structure
  Cycle:     40 Energy:     -3068.085677  Gnorm:      0.000122  CPU:    9.372
  ** Hessian has required structure


  **** Optimisation achieved ****


  Final energy =   -3068.08567784 eV      
  Final Gnorm  =       0.00008556

  Components of energy : 

--------------------------------------------------------------------------------
  Interatomic potentials     =         816.60432174 eV    
  Three-body potentials      =           0.24047938 eV    
  Monopole - monopole (real) =       -2203.33355519 eV    
  Monopole - monopole (recip)=       -1681.59692376 eV    
  Monopole - monopole (total)=       -3884.93047896 eV    
--------------------------------------------------------------------------------
  Total lattice energy       =       -3068.08567784 eV    
--------------------------------------------------------------------------------
  Total lattice energy       =         -296023.3679 kJ/(mole unit cells)
--------------------------------------------------------------------------------

  Final fractional coordinates of atoms :

--------------------------------------------------------------------------------
   No.  Atomic        x           y          z          Radius
        Label       (Frac)      (Frac)     (Frac)       (Angs) 
--------------------------------------------------------------------------------
     1  Ge    c     0.556730    0.000000    0.122130    0.000000
     2  Ge    c     0.338072    0.696937    0.292940    0.000000
     3  Ge    c     0.652009    0.327738    0.038393    0.000000
     4  Si    c     0.051192    0.970835    0.371776    0.000000
     5  Si    c     0.455249    0.976430    0.380718    0.000000
     6  Si    c     0.957620    0.970992    0.637065    0.000000
     7  Si    c     0.557775    0.994167    0.631117    0.000000
     8  Si    c     0.949224    0.982163    0.120232    0.000000
     9  Si    c     0.450118    0.977650    0.875708    0.000000
    10  Si    c     0.064573    0.976021    0.884057    0.000000
    11  Si    c     0.169620    0.253934    0.282143    0.000000
    12  Si    c     0.838427    0.261890    0.729956    0.000000
    13  Si    c     0.674816    0.706275    0.725094    0.000000
    14  Si    c     0.854794    0.665348    0.721727    0.000000
    15  Si    c     0.658880    0.298729    0.731115    0.000000
    16  Si    c     0.154009    0.659509    0.288111    0.000000
    17  Si    c     0.351801    0.282930    0.286880    0.000000
    18  Si    c     0.858158    0.664881    0.023094    0.000000
    19  Si    c     0.355967    0.292930    0.986098    0.000000
    20  Si    c     0.158550    0.659680    0.984371    0.000000
    21  Si    c     0.339833    0.697580    0.985105    0.000000
    22  Si    c     0.174449    0.260310    0.979932    0.000000
    23  Si    c     0.677601    0.728647    0.027035    0.000000
    24  Si    c     0.835729    0.271784    0.034202    0.000000
    25  O2    c     0.119992    0.115995    0.365647    0.000000
    26  O3    c     0.390893    0.825827    0.397239    0.000000
    27  O2    c     0.891391    0.122488    0.651495    0.000000
    28  O2    c     0.622007    0.837101    0.639802    0.000000
    29  O2    c     0.915483    0.780834    0.638049    0.000000
    30  O2    c     0.599387    0.182899    0.646288    0.000000
    31  O2    c     0.089771    0.775590    0.366458    0.000000
    32  O2    c     0.409259    0.163095    0.371778    0.000000
    33  O2    c     0.002686    0.995760    0.502871    0.000000
    34  O2    c     0.520118    0.986816    0.490368    0.000000
    35  O2    c     0.992049    0.001063    0.255145    0.000000
    36  O3    c     0.501104    0.929906    0.248660    0.000000
    37  O2    c     0.021812    0.987121    0.748383    0.000000
    38  O2    c     0.486593    0.969455    0.732444    0.000000
    39  O1    c     0.583378    0.216126    0.127406    0.000000
    40  O2    c     0.915352    0.785044    0.107393    0.000000
    41  O2    c     0.415203    0.175233    0.900076    0.000000
    42  O2    c     0.101028    0.780319    0.899953    0.000000
    43  O2    c     0.382161    0.830735    0.886973    0.000000
    44  O2    c     0.133438    0.120935    0.886353    0.000000
    45  O3    c     0.645895    0.885748    0.113234    0.000000
    46  O2    c     0.879398    0.125424    0.119080    0.000000
    47  O3    c     0.514516    0.932392    0.979700    0.000000
    48  O2    c     0.006485    0.025767    0.001134    0.000000
    49  O2    c     0.139831    0.452135    0.313582    0.000000
    50  O3    c     0.369422    0.483068    0.316146    0.000000
    51  O2    c     0.870508    0.457631    0.699084    0.000000
    52  O2    c     0.643458    0.507169    0.708048    0.000000
    53  O2    c     0.261201    0.235926    0.318826    0.000000
    54  O3    c     0.239954    0.711786    0.333022    0.000000
    55  O2    c     0.747894    0.249274    0.686613    0.000000
    56  O2    c     0.765943    0.714411    0.680287    0.000000
    57  O2    c     0.160513    0.210047    0.130085    0.000000
    58  O3    c     0.350749    0.758044    0.132669    0.000000
    59  O2    c     0.840069    0.219398    0.882422    0.000000
    60  O2    c     0.669394    0.767992    0.873644    0.000000
    61  O2    c     0.869600    0.712986    0.871894    0.000000
    62  O3    c     0.643180    0.254322    0.879838    0.000000
    63  O2    c     0.144906    0.701822    0.135738    0.000000
    64  O2    c     0.370456    0.239293    0.135428    0.000000
    65  O3    c     0.631672    0.548297    0.056175    0.000000
    66  O2    c     0.878771    0.460768    0.050783    0.000000
    67  O2    c     0.374979    0.499136    0.967083    0.000000
    68  O2    c     0.139983    0.455837    0.953391    0.000000
    69  O3    c     0.747373    0.282881    0.084152    0.000000
    70  O2    c     0.768273    0.697726    0.063042    0.000000
    71  O2    c     0.266836    0.254462    0.947056    0.000000
    72  O2    c     0.248429    0.699630    0.948338    0.000000
    73  O2    s     0.118257    0.115994    0.356885    0.000000
    74  O3    s     0.392969    0.830207    0.387034    0.000000
    75  O2    s     0.892612    0.121717    0.658860    0.000000
    76  O2    s     0.620968    0.839494    0.648308    0.000000
    77  O2    s     0.913308    0.788330    0.647078    0.000000
    78  O2    s     0.601335    0.175079    0.653800    0.000000
    79  O2    s     0.092670    0.783697    0.358520    0.000000
    80  O2    s     0.407749    0.156668    0.363280    0.000000
    81  O2    s     0.003113    0.989907    0.503194    0.000000
    82  O2    s     0.516933    0.986440    0.493854    0.000000
    83  O2    s     0.993827    0.995351    0.252605    0.000000
    84  O3    s     0.501455    0.940762    0.250570    0.000000
    85  O2    s     0.019572    0.983992    0.751780    0.000000
    86  O2    s     0.490298    0.973092    0.737427    0.000000
    87  O1    s     0.586525    0.207892    0.120267    0.000000
    88  O2    s     0.912657    0.792790    0.099374    0.000000
    89  O2    s     0.412234    0.168037    0.907170    0.000000
    90  O2    s     0.103525    0.787814    0.907691    0.000000
    91  O2    s     0.384652    0.831597    0.896625    0.000000
    92  O2    s     0.130687    0.121041    0.896595    0.000000
    93  O3    s     0.642457    0.877768    0.104668    0.000000
    94  O2    s     0.882201    0.125959    0.109660    0.000000
    95  O3    s     0.511130    0.942676    0.980350    0.000000
    96  O2    s     0.006627    0.015331    0.001257    0.000000
    97  O2    s     0.144529    0.453009    0.307500    0.000000
    98  O3    s     0.364931    0.479406    0.311092    0.000000
    99  O2    s     0.865422    0.459366    0.704771    0.000000
   100  O2    s     0.648414    0.506362    0.712247    0.000000
   101  O2    s     0.260976    0.242781    0.311530    0.000000
   102  O3    s     0.239330    0.705258    0.325145    0.000000
   103  O2    s     0.748258    0.255812    0.695830    0.000000
   104  O2    s     0.765664    0.708336    0.689348    0.000000
   105  O2    s     0.162976    0.220003    0.130273    0.000000
   106  O3    s     0.348688    0.747360    0.130932    0.000000
   107  O2    s     0.839430    0.229494    0.881931    0.000000
   108  O2    s     0.670864    0.757254    0.873345    0.000000
   109  O2    s     0.866844    0.702988    0.871988    0.000000
   110  O3    s     0.645422    0.264459    0.877257    0.000000
   111  O2    s     0.147321    0.692873    0.135479    0.000000
   112  O2    s     0.367120    0.249122    0.135229    0.000000
   113  O3    s     0.637711    0.547300    0.051966    0.000000
   114  O2    s     0.872192    0.463271    0.046108    0.000000
   115  O2    s     0.369331    0.497480    0.970978    0.000000
   116  O2    s     0.145622    0.456917    0.959529    0.000000
   117  O3    s     0.748784    0.285368    0.075301    0.000000
   118  O2    s     0.768486    0.697301    0.054609    0.000000
   119  O2    s     0.266568    0.259432    0.954982    0.000000
   120  O2    s     0.248501    0.694897    0.956349    0.000000
--------------------------------------------------------------------------------

  Final Cartesian lattice vectors (Angstroms) :

       17.029374    0.076391    0.091114
        0.033376    7.582621   -0.011075
        0.052703   -0.014566   10.317322


  Final cell parameters and derivatives :

--------------------------------------------------------------------------------
       a           17.029789 Angstrom     dE/de1(xx)    -0.004392 eV/strain
       b            7.582702 Angstrom     dE/de2(yy)    -0.005059 eV/strain
       c           10.317467 Angstrom     dE/de3(zz)     0.001135 eV/strain
       alpha       90.163285 Degrees      dE/de4(yz)     0.000029 eV/strain
       beta        89.401145 Degrees      dE/de5(xz)     0.000226 eV/strain
       gamma       89.491242 Degrees      dE/de6(xy)    -0.000023 eV/strain
--------------------------------------------------------------------------------

  Primitive cell volume =          1332.182213 Angs**3

  Density of cell =      1.964135 g/cm**3

  Non-primitive cell volume =          1332.182213 Angs**3


  Final internal derivatives :

--------------------------------------------------------------------------------
   No.  Atomic          a             b             c           Radius
        Label          (eV)          (eV)          (eV)        (eV/Angs)
--------------------------------------------------------------------------------
      1 Ge    c       0.000000      0.000000      0.000000      0.000000
      2 Ge    c      -0.004449     -0.000498     -0.000682      0.000000
      3 Ge    c       0.001079      0.001082     -0.000386      0.000000
      4 Si    c       0.009785     -0.000967     -0.002504      0.000000
      5 Si    c       0.002289     -0.000085     -0.000473      0.000000
      6 Si    c      -0.008286     -0.000876     -0.000679      0.000000
      7 Si    c      -0.000405      0.000114      0.000273      0.000000
      8 Si    c      -0.005507     -0.001041     -0.001609      0.000000
      9 Si    c       0.001538     -0.000008      0.000756      0.000000
     10 Si    c       0.004245     -0.001554     -0.000434      0.000000
     11 Si    c       0.000599      0.000889      0.001088      0.000000
     12 Si    c      -0.000359      0.000551      0.000176      0.000000
     13 Si    c       0.000324     -0.000364     -0.000055      0.000000
     14 Si    c       0.000872     -0.000485     -0.000113      0.000000
     15 Si    c       0.000175     -0.000047      0.000115      0.000000
     16 Si    c       0.000719     -0.000019     -0.000304      0.000000
     17 Si    c      -0.000106      0.000541      0.000160      0.000000
     18 Si    c      -0.000288     -0.000144      0.000682      0.000000
     19 Si    c       0.000738      0.000205      0.000050      0.000000
     20 Si    c      -0.000301     -0.000022      0.000610      0.000000
     21 Si    c      -0.001910     -0.000350      0.000866      0.000000
     22 Si    c      -0.000000      0.000495     -0.000572      0.000000
     23 Si    c       0.005184     -0.000092      0.001431      0.000000
     24 Si    c      -0.003001      0.000916      0.000939      0.000000
     25 O2    c      -0.000997      0.000281      0.000263      0.000000
     26 O3    c       0.001788      0.001019     -0.000024      0.000000
     27 O2    c       0.000010      0.000344     -0.000362      0.000000
     28 O2    c      -0.000595      0.000380     -0.000022      0.000000
     29 O2    c       0.000545      0.000019     -0.000018      0.000000
     30 O2    c      -0.000189     -0.000202     -0.000078      0.000000
     31 O2    c      -0.000814      0.000158      0.000231      0.000000
     32 O2    c       0.000702     -0.000787      0.000050      0.000000
     33 O2    c      -0.000770      0.001391      0.002770      0.000000
     34 O2    c      -0.003726     -0.000275     -0.000934      0.000000
     35 O2    c      -0.006867      0.000638      0.002256      0.000000
     36 O3    c       0.004031      0.001593     -0.001864      0.000000
     37 O2    c       0.006791      0.000908      0.002063      0.000000
     38 O2    c       0.002158      0.000028     -0.000278      0.000000
     39 O1    c      -0.002424     -0.002064      0.000078      0.000000
     40 O2    c      -0.000387     -0.000941     -0.000260      0.000000
     41 O2    c       0.000125     -0.000507     -0.000175      0.000000
     42 O2    c      -0.001642      0.001061      0.000134      0.000000
     43 O2    c       0.000846      0.000447     -0.000206      0.000000
     44 O2    c      -0.000231      0.000283     -0.000119      0.000000
     45 O3    c      -0.002485      0.000198     -0.000781      0.000000
     46 O2    c      -0.000297      0.000547     -0.000189      0.000000
     47 O3    c      -0.002749      0.000883     -0.000178      0.000000
     48 O2    c       0.002499      0.001746      0.001084      0.000000
     49 O2    c       0.000469     -0.000990     -0.000597      0.000000
     50 O3    c      -0.001966      0.000619     -0.000888      0.000000
     51 O2    c      -0.000216      0.000271      0.000331      0.000000
     52 O2    c       0.000452      0.000866      0.000211      0.000000
     53 O2    c      -0.002124      0.000143     -0.000251      0.000000
     54 O3    c       0.006284     -0.001076     -0.001194      0.000000
     55 O2    c       0.001677      0.000083      0.000155      0.000000
     56 O2    c      -0.000444     -0.000145      0.000162      0.000000
     57 O2    c       0.000100      0.000268     -0.000591      0.000000
     58 O3    c      -0.001314     -0.000558      0.000417      0.000000
     59 O2    c       0.000063      0.000293     -0.000168      0.000000
     60 O2    c       0.000060     -0.000210     -0.000595      0.000000
     61 O2    c      -0.000226     -0.000485     -0.000259      0.000000
     62 O3    c       0.000083      0.000234      0.001102      0.000000
     63 O2    c       0.001180     -0.000627     -0.000596      0.000000
     64 O2    c      -0.000420      0.000191      0.000314      0.000000
     65 O3    c       0.002171     -0.000552     -0.001035      0.000000
     66 O2    c      -0.001678     -0.001689     -0.000484      0.000000
     67 O2    c      -0.000858      0.000952      0.000148      0.000000
     68 O2    c       0.000397     -0.000143      0.000295      0.000000
     69 O3    c       0.007755      0.000813     -0.001418      0.000000
     70 O2    c      -0.007829     -0.000459     -0.001313      0.000000
     71 O2    c      -0.003176      0.000002     -0.000074      0.000000
     72 O2    c       0.001256     -0.000305      0.000692      0.000000
     73 O2    s       0.004870      0.000604     -0.000861      0.000000
     74 O3    s      -0.000331     -0.000185     -0.000623      0.000000
     75 O2    s      -0.004427      0.000199      0.000186      0.000000
     76 O2    s      -0.000246     -0.000326      0.000298      0.000000
     77 O2    s      -0.003102     -0.000765      0.000174      0.000000
     78 O2    s      -0.000601     -0.000200      0.000016      0.000000
     79 O2    s       0.003529     -0.000576     -0.000675      0.000000
     80 O2    s       0.001308     -0.000186     -0.000036      0.000000
     81 O2    s       0.000927     -0.000329     -0.000788      0.000000
     82 O2    s      -0.000707      0.000018     -0.000169      0.000000
     83 O2    s       0.000496      0.000014      0.000054      0.000000
     84 O3    s      -0.001192      0.000212      0.001062      0.000000
     85 O2    s      -0.000719     -0.000793     -0.000749      0.000000
     86 O2    s      -0.000263     -0.000238      0.000128      0.000000
     87 O1    s       0.000762      0.000395      0.000044      0.000000
     88 O2    s      -0.003295     -0.000409     -0.000444      0.000000
     89 O2    s       0.000763     -0.000261      0.000217      0.000000
     90 O2    s       0.002889     -0.000509      0.000423      0.000000
     91 O2    s       0.000128     -0.000225      0.000266      0.000000
     92 O2    s       0.002915     -0.000066      0.000741      0.000000
     93 O3    s       0.000384     -0.000660     -0.000372      0.000000
     94 O2    s      -0.004072      0.000851     -0.000371      0.000000
     95 O3    s       0.001574     -0.000030      0.000696      0.000000
     96 O2    s       0.002255      0.000253     -0.000841      0.000000
     97 O2    s       0.001624     -0.000032     -0.000356      0.000000
     98 O3    s      -0.000096      0.000200     -0.000367      0.000000
     99 O2    s      -0.001416     -0.000007      0.000346      0.000000
    100 O2    s       0.000381      0.000305      0.000141      0.000000
    101 O2    s      -0.000012      0.000499     -0.000776      0.000000
    102 O3    s      -0.002133     -0.000127     -0.000794      0.000000
    103 O2    s       0.000185      0.000115      0.000431      0.000000
    104 O2    s      -0.000430     -0.000342      0.000835      0.000000
    105 O2    s       0.000544     -0.000241      0.000507      0.000000
    106 O3    s      -0.001322     -0.001028     -0.000278      0.000000
    107 O2    s      -0.000852     -0.000036      0.000719      0.000000
    108 O2    s       0.001587     -0.000300      0.000866      0.000000
    109 O2    s      -0.000699      0.000569     -0.000152      0.000000
    110 O3    s       0.000329      0.000001     -0.000452      0.000000
    111 O2    s       0.002037      0.000407      0.000025      0.000000
    112 O2    s      -0.000192      0.000171      0.000388      0.000000
    113 O3    s       0.001189      0.001555      0.000219      0.000000
    114 O2    s      -0.001392     -0.000094     -0.000167      0.000000
    115 O2    s      -0.001108      0.000283      0.000396      0.000000
    116 O2    s       0.002166     -0.000036      0.000612      0.000000
    117 O3    s      -0.002617     -0.000518     -0.000154      0.000000
    118 O2    s       0.000044     -0.000128     -0.000730      0.000000
    119 O2    s      -0.000227      0.000245      0.000817      0.000000
    120 O2    s      -0.000241     -0.000396      0.001084      0.000000
--------------------------------------------------------------------------------
  Maximum abs         0.009785      0.002064      0.002770      0.000000
--------------------------------------------------------------------------------


  Born effective charge tensors : 

-------------------------------------------------------------------------------
  Atom             x           y             z
-------------------------------------------------------------------------------
    1 Ge    x       4.2441      0.4191     -0.1648
            y      -0.2327      3.9264      0.0354
            z      -0.7050     -0.1642      3.7606
-------------------------------------------------------------------------------
    2 Ge    x       3.9336      0.3375      0.2053
            y       0.1989      4.1748      0.2653
            z       0.1722      0.0655      3.4700
-------------------------------------------------------------------------------
    3 Ge    x       4.1525      0.3536     -0.2077
            y       0.3581      4.1662     -0.2618
            z      -0.3217     -0.0417      3.3483
-------------------------------------------------------------------------------
    4 Si    x       3.4072     -0.1472     -0.2028
            y       0.1577      3.2127     -0.0073
            z      -0.4773      0.0518      3.8377
-------------------------------------------------------------------------------
    5 Si    x       3.7707      0.0279     -0.0159
            y       0.2575      3.4106     -0.0504
            z       0.5774      0.1421      4.0210
-------------------------------------------------------------------------------
    6 Si    x       3.4671      0.1468     -0.2156
            y      -0.1285      3.2307      0.0232
            z      -0.4114     -0.1019      3.8418
-------------------------------------------------------------------------------
    7 Si    x       3.4958      0.1049      0.3063
            y      -0.1083      3.2236      0.0165
            z       0.3178     -0.0106      3.7241
-------------------------------------------------------------------------------
    8 Si    x       3.4237      0.1830      0.2100
            y      -0.1850      3.2296      0.0310
            z       0.4921      0.0616      3.1177
-------------------------------------------------------------------------------
    9 Si    x       3.7158     -0.2090     -0.1754
            y       0.1162      3.3165     -0.0404
            z      -0.3044     -0.0238      3.3150
-------------------------------------------------------------------------------
   10 Si    x       3.4596     -0.1475      0.2554
            y       0.1731      3.2579     -0.0216
            z       0.5075     -0.0028      3.1295
-------------------------------------------------------------------------------
   11 Si    x       3.2046      0.2971     -0.1258
            y       0.1508      3.4468     -0.1516
            z      -0.0945     -0.0762      2.8310
-------------------------------------------------------------------------------
   12 Si    x       3.1970     -0.3218     -0.0771
            y      -0.1682      3.4913      0.1472
            z      -0.1480      0.0797      2.7908
-------------------------------------------------------------------------------
   13 Si    x       3.2584     -0.3238      0.1313
            y      -0.1773      3.4507     -0.1758
            z       0.1550     -0.0462      2.7467
-------------------------------------------------------------------------------
   14 Si    x       3.2101      0.2323     -0.0321
            y       0.2958      3.4463     -0.1941
            z      -0.0941     -0.0692      2.8066
-------------------------------------------------------------------------------
   15 Si    x       3.3098      0.2689      0.0012
            y       0.3220      3.5512      0.1498
            z       0.0742      0.0080      3.0820
-------------------------------------------------------------------------------
   16 Si    x       3.4911     -0.1301      0.0505
            y      -0.2430      3.5423      0.2027
            z      -0.0312      0.1058      2.8982
-------------------------------------------------------------------------------
   17 Si    x       3.2903     -0.1388      0.1070
            y      -0.1494      3.7331     -0.0842
            z       0.1455     -0.0085      2.9187
-------------------------------------------------------------------------------
   18 Si    x       3.2152      0.2848      0.1551
            y       0.2469      3.3605      0.1797
            z       0.1883      0.0458      2.7269
-------------------------------------------------------------------------------
   19 Si    x       3.2842     -0.2362     -0.1184
            y      -0.2480      3.3911      0.1750
            z      -0.1615      0.0340      2.7137
-------------------------------------------------------------------------------
   20 Si    x       3.2560     -0.2543      0.1218
            y      -0.2567      3.4210     -0.1744
            z       0.1521     -0.0793      2.7212
-------------------------------------------------------------------------------
   21 Si    x       3.2937      0.3362     -0.1505
            y       0.1081      3.5559     -0.1214
            z      -0.0953      0.0201      3.0376
-------------------------------------------------------------------------------
   22 Si    x       3.2460      0.3366      0.1805
            y       0.0997      3.4413      0.1757
            z       0.1024      0.0668      2.7365
-------------------------------------------------------------------------------
   23 Si    x       3.4442     -0.4621     -0.2476
            y       0.0022      3.9033      0.2751
            z      -0.2018      0.1743      2.9384
-------------------------------------------------------------------------------
   24 Si    x       3.5465     -0.3914      0.0182
            y      -0.0938      3.5178     -0.1989
            z       0.0555     -0.0837      2.8128
-------------------------------------------------------------------------------
   25 O2    x      -1.7784     -0.7195      0.3279
            y      -0.7552     -1.9217      0.3445
            z       0.3596      0.3270     -1.3538
-------------------------------------------------------------------------------
   26 O3    x      -2.1146     -0.9124     -0.3565
            y      -0.9892     -2.2854     -0.3626
            z      -0.4132     -0.3171     -1.5728
-------------------------------------------------------------------------------
   27 O2    x      -1.7741      0.7266      0.3329
            y       0.7793     -1.9700     -0.3611
            z       0.3780     -0.3341     -1.3321
-------------------------------------------------------------------------------
   28 O2    x      -1.7893      0.7346     -0.3676
            y       0.7517     -1.9319      0.3565
            z      -0.3768      0.3409     -1.3498
-------------------------------------------------------------------------------
   29 O2    x      -1.6510     -0.6992      0.3117
            y      -0.6620     -2.0015      0.3073
            z       0.3602      0.3200     -1.3583
-------------------------------------------------------------------------------
   30 O2    x      -1.6818     -0.7152     -0.3426
            y      -0.6647     -2.0199     -0.3571
            z      -0.3557     -0.3391     -1.3426
-------------------------------------------------------------------------------
   31 O2    x      -1.6109      0.6794      0.3012
            y       0.6268     -2.0258     -0.3162
            z       0.3382     -0.3133     -1.3543
-------------------------------------------------------------------------------
   32 O2    x      -1.6720      0.6337     -0.3426
            y       0.6353     -1.9001      0.3742
            z      -0.4187      0.3425     -1.4165
-------------------------------------------------------------------------------
   33 O2    x      -1.5809     -0.0004      0.8240
            y      -0.0034     -1.0921      0.0001
            z       1.0208      0.0118     -2.8233
-------------------------------------------------------------------------------
   34 O2    x      -1.7065     -0.0264     -0.8019
            y      -0.0041     -1.0824     -0.0052
            z      -1.0263     -0.0382     -2.6208
-------------------------------------------------------------------------------
   35 O2    x      -1.6728      0.0068     -0.7272
            y       0.0230     -1.1200      0.0170
            z      -0.7095      0.0052     -2.2529
-------------------------------------------------------------------------------
   36 O3    x      -1.9151     -0.0506      0.8601
            y       0.0100     -1.2996     -0.0114
            z       0.8403      0.0315     -2.7430
-------------------------------------------------------------------------------
   37 O2    x      -1.7359     -0.0075     -0.7465
            y      -0.0133     -1.1092      0.0038
            z      -0.7512      0.0048     -2.2402
-------------------------------------------------------------------------------
   38 O2    x      -1.7783     -0.0253      0.7029
            y      -0.0392     -1.1123      0.0275
            z       0.6973      0.0296     -2.1566
-------------------------------------------------------------------------------
   39 O1    x      -2.1210     -0.9048      0.4495
            y      -0.7604     -2.6248      0.3949
            z       0.5268      0.4003     -1.5166
-------------------------------------------------------------------------------
   40 O2    x      -1.6268     -0.6823     -0.3458
            y      -0.5641     -2.0166     -0.3732
            z      -0.3640     -0.3541     -1.2412
-------------------------------------------------------------------------------
   41 O2    x      -1.6589      0.6702      0.3941
            y       0.5534     -2.0142     -0.4249
            z       0.3759     -0.3877     -1.2923
-------------------------------------------------------------------------------
   42 O2    x      -1.6437      0.6841     -0.3548
            y       0.5912     -2.0324      0.3914
            z      -0.3695      0.3655     -1.2471
-------------------------------------------------------------------------------
   43 O2    x      -1.7490     -0.6980      0.4045
            y      -0.6458     -1.9162      0.4028
            z       0.3505      0.3503     -1.2921
-------------------------------------------------------------------------------
   44 O2    x      -1.7564     -0.7015     -0.3405
            y      -0.6779     -1.9034     -0.3648
            z      -0.3330     -0.3365     -1.2707
-------------------------------------------------------------------------------
   45 O3    x      -2.1391      0.8346      0.4233
            y       0.8184     -2.2109     -0.5483
            z       0.4455     -0.4860     -1.4988
-------------------------------------------------------------------------------
   46 O2    x      -1.7360      0.6923     -0.3034
            y       0.6645     -1.9206      0.3404
            z      -0.3226      0.3216     -1.2476
-------------------------------------------------------------------------------
   47 O3    x      -2.1599      0.0540     -0.8392
            y       0.0821     -1.3420      0.0099
            z      -0.4861     -0.0242     -2.0881
-------------------------------------------------------------------------------
   48 O2    x      -1.7942     -0.0001      0.6011
            y      -0.0004     -1.1956     -0.0054
            z       0.3354     -0.0166     -1.6866
-------------------------------------------------------------------------------
   49 O2    x      -1.1594      0.0863      0.0581
            y       0.1546     -2.5608     -0.0196
            z       0.0682     -0.0132     -1.0834
-------------------------------------------------------------------------------
   50 O3    x      -1.3151      0.0043     -0.0852
            y       0.0614     -3.2132     -0.0899
            z      -0.0970     -0.0953     -1.2014
-------------------------------------------------------------------------------
   51 O2    x      -1.1698     -0.0630      0.0495
            y      -0.1367     -2.5606      0.0448
            z       0.0756      0.0044     -1.0632
-------------------------------------------------------------------------------
   52 O2    x      -1.2018     -0.0743     -0.0455
            y      -0.1339     -2.5898     -0.0031
            z      -0.0668      0.0094     -1.0427
-------------------------------------------------------------------------------
   53 O2    x      -2.4452     -0.0727     -0.0225
            y      -0.0229     -1.2382      0.0598
            z      -0.0480      0.0363     -1.0849
-------------------------------------------------------------------------------
   54 O3    x      -2.9815     -0.1987     -0.1105
            y      -0.1387     -1.4128     -0.1095
            z      -0.1156     -0.0760     -1.2293
-------------------------------------------------------------------------------
   55 O2    x      -2.3953      0.1123     -0.0337
            y       0.0480     -1.2674     -0.0692
            z      -0.0506     -0.0395     -1.0729
-------------------------------------------------------------------------------
   56 O2    x      -2.4056      0.1241     -0.0007
            y       0.0688     -1.2440      0.0707
            z       0.0086      0.0369     -1.0787
-------------------------------------------------------------------------------
   57 O2    x      -1.1811     -0.1305     -0.0018
            y      -0.0844     -1.2828      0.0246
            z       0.0029      0.0105     -2.0793
-------------------------------------------------------------------------------
   58 O3    x      -1.3162     -0.1525     -0.0088
            y      -0.1056     -1.4882     -0.1125
            z      -0.0109     -0.0695     -2.6011
-------------------------------------------------------------------------------
   59 O2    x      -1.1651      0.1129     -0.0730
            y       0.0556     -1.3077     -0.0311
            z      -0.0265     -0.0137     -2.0777
-------------------------------------------------------------------------------
   60 O2    x      -1.2172      0.1362     -0.0116
            y       0.0707     -1.2924     -0.0432
            z      -0.0340     -0.0588     -2.0279
-------------------------------------------------------------------------------
   61 O2    x      -1.1965     -0.1307     -0.0529
            y      -0.1219     -1.2734     -0.0074
            z      -0.0631      0.0072     -2.0693
-------------------------------------------------------------------------------
   62 O3    x      -1.3605     -0.1572      0.0972
            y      -0.1439     -1.4597      0.0084
            z       0.1118     -0.0318     -2.5825
-------------------------------------------------------------------------------
   63 O2    x      -1.1881      0.1156      0.0291
            y       0.1157     -1.2867      0.0036
            z       0.0182      0.0085     -2.0881
-------------------------------------------------------------------------------
   64 O2    x      -1.2481      0.1287      0.0375
            y       0.1277     -1.2718      0.0454
            z       0.0504      0.0570     -2.0829
-------------------------------------------------------------------------------
   65 O3    x      -1.5195     -0.2300      0.1231
            y      -0.3162     -2.9432      0.1004
            z       0.1664      0.1090     -1.1579
-------------------------------------------------------------------------------
   66 O2    x      -1.2422     -0.0631     -0.0785
            y      -0.1477     -2.4610      0.0495
            z      -0.1034      0.0293     -1.0244
-------------------------------------------------------------------------------
   67 O2    x      -1.2576      0.0616      0.0683
            y       0.1295     -2.5492      0.0356
            z       0.0879      0.0317     -1.0070
-------------------------------------------------------------------------------
   68 O2    x      -1.2261      0.0629     -0.0839
            y       0.1253     -2.5057     -0.0182
            z      -0.0945      0.0004     -1.0220
-------------------------------------------------------------------------------
   69 O3    x      -3.0309      0.2189      0.1080
            y       0.1469     -1.3905      0.0709
            z       0.0997      0.0228     -1.2197
-------------------------------------------------------------------------------
   70 O2    x      -2.3650      0.1894     -0.0236
            y       0.1192     -1.2586     -0.0462
            z       0.0029     -0.0225     -1.0655
-------------------------------------------------------------------------------
   71 O2    x      -2.4471     -0.1063     -0.0297
            y      -0.0526     -1.2367     -0.0636
            z       0.0004     -0.0298     -1.0350
-------------------------------------------------------------------------------
   72 O2    x      -2.4357     -0.1135      0.0176
            y      -0.0710     -1.2584      0.0649
            z       0.0219      0.0353     -1.0316
-------------------------------------------------------------------------------




  Elastic Constant Matrix: (Units=GPa)

-------------------------------------------------------------------------------
  Indices      1         2         3         4         5         6    
-------------------------------------------------------------------------------
       1     53.3329   26.8772   26.6726   -1.3036    5.5895   -1.0823
       2     26.8772   73.7274   19.3457   -1.4097    4.9468    0.5862
       3     26.6726   19.3457   45.6277   -0.6122    3.3991   -0.9913
       4     -1.3036   -1.4097   -0.6122   12.5167    0.9889    0.2200
       5      5.5895    4.9468    3.3991    0.9889   25.6849   -0.4226
       6     -1.0823    0.5862   -0.9913    0.2200   -0.4226   28.1114
-------------------------------------------------------------------------------


  Elastic Compliance Matrix: (Units=1/GPa)

-------------------------------------------------------------------------------
  Indices      1         2         3         4         5         6    
-------------------------------------------------------------------------------
       1    0.029699 -0.006856 -0.014165  0.001878 -0.003328  0.000722
       2   -0.006856  0.016999 -0.003094  0.001175 -0.001430 -0.000758
       3   -0.014165 -0.003094  0.031555 -0.000254 -0.000477  0.000627
       4    0.001878  0.001175 -0.000254  0.080514 -0.003712 -0.000647
       5   -0.003328 -0.001430 -0.000477 -0.003712  0.040148  0.000517
       6    0.000722 -0.000758  0.000627 -0.000647  0.000517  0.035651
-------------------------------------------------------------------------------

  Mechanical properties :

-------------------------------------------------------------------------------
  Convention :                    Reuss         Voigt         Hill
-------------------------------------------------------------------------------
  Bulk  Modulus (GPa)     =      33.30865      35.38655      34.34760
  Shear Modulus (GPa)     =      17.07628      19.91542      18.49585
-------------------------------------------------------------------------------
  Velocity S-wave (km/s)  =       2.94857       3.18426       3.06868
  Velocity P-wave (km/s)  =       5.34327       5.61567       5.48116
-------------------------------------------------------------------------------
  Compressibility (1/GPa) =    0.03002223
-------------------------------------------------------------------------------
  Stress axis :                     x             y             z
-------------------------------------------------------------------------------
  Youngs Moduli (GPa)     =      33.67103      58.82646      31.69112
-------------------------------------------------------------------------------
  Poissons Ratio (x)      =                     0.40334       0.44892
  Poissons Ratio (y)      =       0.23086                     0.09804
  Poissons Ratio (z)      =       0.47696       0.18199
-------------------------------------------------------------------------------


  Piezoelectric Strain Matrix: (Units=C/m**2)

-------------------------------------------------------------------------------
  Indices      1         2         3         4         5         6    
-------------------------------------------------------------------------------
       x     0.18850   0.69903  -0.28285   0.24781   0.14161  -0.01812
       y    -0.50904   0.08013   0.22678  -0.29543   0.53834   0.37705
       z    -0.31432  -0.18637  -1.30414   0.08942   0.23198   0.02448
-------------------------------------------------------------------------------


  Piezoelectric Stress Matrix: (Units=10**-11 C/N)

-------------------------------------------------------------------------------
  Indices      1         2         3         4         5         6    
-------------------------------------------------------------------------------
       x     0.47933   1.15679  -1.38998   2.06857   0.32639  -0.13041
       y    -2.09544   0.27476   1.41732  -2.69479   2.43762   1.36257
       z     0.98301   0.27761  -3.62407   0.58439   1.09295   0.00318
-------------------------------------------------------------------------------


  Static dielectric constant tensor : 

-------------------------------------------------------------------------------
              x         y         z
-------------------------------------------------------------------------------
       x     3.99692   0.06157  -0.03021
       y     0.06157   4.15127  -0.05029
       z    -0.03021  -0.05029   3.22437
--------------------------------------------------------------------------------

  High frequency dielectric constant tensor : 

-------------------------------------------------------------------------------
              x         y         z
-------------------------------------------------------------------------------
       x     1.68215  -0.00038   0.00224
       y    -0.00038   1.68944   0.00003
       z     0.00224   0.00003   1.62315
-------------------------------------------------------------------------------

  Static refractive indices : 

-------------------------------------------------------------------------------
    1 =    1.79463      2 =    1.99388      3 =    2.04360
-------------------------------------------------------------------------------

  High frequency refractive indices : 

-------------------------------------------------------------------------------
    1 =    1.27400      2 =    1.29700      3 =    1.29979
-------------------------------------------------------------------------------


  Time to end of optimisation =       9.7673 seconds


  Peak dynamic memory used =       5.01 MB 


  Timing analysis for GULP :

--------------------------------------------------------------------------------
  Task / Subroutine                                          Time (Seconds)
--------------------------------------------------------------------------------
  Calculation of reciprocal space energy and derivatives          0.5852
  Calculation of real space energy and derivatives                6.0712
  Calculation of three-body energy and derivatives                0.6107
  Calculation and manipulation of Hessian matrix                  2.9656
  Calculation of matrix inversion                                 0.0259
  Global summation overhead                                       0.0001
--------------------------------------------------------------------------------
  Total CPU time                                                  9.7673
--------------------------------------------------------------------------------


  Dump file written as c00155.vasp.grs
  CIF file written as c00155.vasp.cif


  Job Finished at 11:53.41  7th October    2025                               

