********************************************************************************
*                       GENERAL UTILITY LATTICE PROGRAM                        *
*                                 Julian Gale                                  *
*                       Curtin Institute for Computation                       *
*                    School of Molecular and Life Sciences                     *
*                    Curtin University, Western Australia                      *
********************************************************************************
* Version = 6.1.2 * Last modified =   3rd November 2022                        *
********************************************************************************
*  optimise     - perform optimisation run                                     *
*  conp         - constant pressure calculation                                *
*  property     - calculate properties for final geometry                      *
********************************************************************************

  Job Started  at 11:52.28  7th October    2025                               

  Number of CPUs =     1


  Total number of configurations input =      1

********************************************************************************
*  Input for Configuration =   1 : c00149.vasp                                 *
********************************************************************************

  Formula = Ge3Si21O48                                                  

  Number of irreducible atoms/shells =     120


  Total number atoms/shells =     120

  Dimensionality = 3               :  Bulk   



  Cartesian lattice vectors (Angstroms) :

       17.182800    0.000000    0.000000
        0.000000    7.513760    0.000000
        0.000000    0.000000   10.447700

  Cell parameters (Angstroms/Degrees):

  a =      17.1828    alpha =  90.0000
  b =       7.5138    beta  =  90.0000
  c =      10.4477    gamma =  90.0000

  Initial cell volume =        1348.875752 Angs**3

  Temperature of configuration =   0.00     K 

  Pressure of configuration =         0.000 GPa 

  Fractional coordinates of asymmetric unit :

--------------------------------------------------------------------------------
   No.  Atomic       x           y          z         Charge      Occupancy
        Label      (Frac)      (Frac)     (Frac)        (e)         (Frac)  
--------------------------------------------------------------------------------
      1 Ge    c    0.556730    0.000000    0.122130     4.00000    1.000000    
      2 Ge    c    0.160190 *  0.293910 *  0.273440 *   4.00000    1.000000    
      3 Ge    c    0.839340 *  0.294090 *  0.017440 *   4.00000    1.000000    
      4 Si    c    0.052090 *  0.000000 *  0.372270 *   4.00000    1.000000    
      5 Si    c    0.447910 *  0.000000 *  0.372270 *   4.00000    1.000000    
      6 Si    c    0.947910 *  0.000000 *  0.627730 *   4.00000    1.000000    
      7 Si    c    0.552090 *  0.000000 *  0.627730 *   4.00000    1.000000    
      8 Si    c    0.943270 *  0.000000 *  0.122130 *   4.00000    1.000000    
      9 Si    c    0.443270 *  0.000000 *  0.877870 *   4.00000    1.000000    
     10 Si    c    0.056730 *  0.000000 *  0.877870 *   4.00000    1.000000    
     11 Si    c    0.339810 *  0.706090 *  0.273440 *   4.00000    1.000000    
     12 Si    c    0.839810 *  0.293910 *  0.726560 *   4.00000    1.000000    
     13 Si    c    0.660190 *  0.706090 *  0.726560 *   4.00000    1.000000    
     14 Si    c    0.839810 *  0.706090 *  0.726560 *   4.00000    1.000000    
     15 Si    c    0.660190 *  0.293910 *  0.726560 *   4.00000    1.000000    
     16 Si    c    0.160190 *  0.706090 *  0.273440 *   4.00000    1.000000    
     17 Si    c    0.339810 *  0.293910 *  0.273440 *   4.00000    1.000000    
     18 Si    c    0.660660 *  0.294090 *  0.017440 *   4.00000    1.000000    
     19 Si    c    0.839340 *  0.705910 *  0.017440 *   4.00000    1.000000    
     20 Si    c    0.339340 *  0.294090 *  0.982560 *   4.00000    1.000000    
     21 Si    c    0.160660 *  0.705910 *  0.982560 *   4.00000    1.000000    
     22 Si    c    0.339340 *  0.705910 *  0.982560 *   4.00000    1.000000    
     23 Si    c    0.160660 *  0.294090 *  0.982560 *   4.00000    1.000000    
     24 Si    c    0.660660 *  0.705910 *  0.017440 *   4.00000    1.000000    
     25 O3    c    0.106570 *  0.174340 *  0.366200 *   1.33043    1.000000    
     26 O2    c    0.393430 *  0.825660 *  0.366200 *   0.87073    1.000000    
     27 O2    c    0.893430 *  0.174340 *  0.633800 *   0.87073    1.000000    
     28 O2    c    0.606570 *  0.825660 *  0.633800 *   0.87073    1.000000    
     29 O2    c    0.893430 *  0.825660 *  0.633800 *   0.87073    1.000000    
     30 O2    c    0.606570 *  0.174340 *  0.633800 *   0.87073    1.000000    
     31 O2    c    0.106570 *  0.825660 *  0.366200 *   0.87073    1.000000    
     32 O2    c    0.393430 *  0.174340 *  0.366200 *   0.87073    1.000000    
     33 O2    c    0.000000 *  0.000000 *  0.500000 *   0.87073    1.000000    
     34 O2    c    0.500000 *  0.000000 *  0.500000 *   0.87073    1.000000    
     35 O2    c    0.994520 *  0.000000 *  0.250840 *   0.87073    1.000000    
     36 O3    c    0.505480 *  0.000000 *  0.250840 *   1.33043    1.000000    
     37 O2    c    0.005480 *  0.000000 *  0.749160 *   0.87073    1.000000    
     38 O2    c    0.494520 *  0.000000 *  0.749160 *   0.87073    1.000000    
     39 O3    c    0.610230 *  0.175520 *  0.115390 *   1.33043    1.000000    
     40 O2    c    0.889770 *  0.824480 *  0.115390 *   0.87073    1.000000    
     41 O2    c    0.389770 *  0.175520 *  0.884610 *   0.87073    1.000000    
     42 O2    c    0.110230 *  0.824480 *  0.884610 *   0.87073    1.000000    
     43 O2    c    0.389770 *  0.824480 *  0.884610 *   0.87073    1.000000    
     44 O2    c    0.110230 *  0.175520 *  0.884610 *   0.87073    1.000000    
     45 O3    c    0.610230 *  0.824480 *  0.115390 *   1.33043    1.000000    
     46 O3    c    0.889770 *  0.175520 *  0.115390 *   1.33043    1.000000    
     47 O3    c    0.500000 *  0.000000 *  0.000000 *   1.33043    1.000000    
     48 O2    c    0.000000 *  0.000000 *  0.000000 *   0.87073    1.000000    
     49 O3    c    0.151750 *  0.500000 *  0.313330 *   1.33043    1.000000    
     50 O2    c    0.348250 *  0.500000 *  0.313330 *   0.87073    1.000000    
     51 O2    c    0.848250 *  0.500000 *  0.686670 *   0.87073    1.000000    
     52 O2    c    0.651750 *  0.500000 *  0.686670 *   0.87073    1.000000    
     53 O3    c    0.250000 *  0.234950 *  0.285720 *   1.33043    1.000000    
     54 O2    c    0.250000 *  0.765050 *  0.285720 *   0.87073    1.000000    
     55 O2    c    0.750000 *  0.234950 *  0.714280 *   0.87073    1.000000    
     56 O2    c    0.750000 *  0.765050 *  0.714280 *   0.87073    1.000000    
     57 O3    c    0.131410 *  0.268650 *  0.127790 *   1.33043    1.000000    
     58 O2    c    0.368590 *  0.731350 *  0.127790 *   0.87073    1.000000    
     59 O3    c    0.868590 *  0.268650 *  0.872210 *   1.33043    1.000000    
     60 O2    c    0.631410 *  0.731350 *  0.872210 *   0.87073    1.000000    
     61 O2    c    0.868590 *  0.731350 *  0.872210 *   0.87073    1.000000    
     62 O2    c    0.631410 *  0.268650 *  0.872210 *   0.87073    1.000000    
     63 O2    c    0.131410 *  0.731350 *  0.127790 *   0.87073    1.000000    
     64 O2    c    0.368590 *  0.268650 *  0.127790 *   0.87073    1.000000    
     65 O2    c    0.653920 *  0.500000 *  0.058200 *   0.87073    1.000000    
     66 O3    c    0.846080 *  0.500000 *  0.058200 *   1.33043    1.000000    
     67 O2    c    0.346080 *  0.500000 *  0.941800 *   0.87073    1.000000    
     68 O2    c    0.153920 *  0.500000 *  0.941800 *   0.87073    1.000000    
     69 O3    c    0.750000 *  0.231060 *  0.027050 *   1.33043    1.000000    
     70 O2    c    0.750000 *  0.768940 *  0.027050 *   0.87073    1.000000    
     71 O2    c    0.250000 *  0.231060 *  0.972950 *   0.87073    1.000000    
     72 O2    c    0.250000 *  0.768940 *  0.972950 *   0.87073    1.000000    
     73 O3    s    0.106570 *  0.174340 *  0.366200 *  -3.33043    1.000000    
     74 O2    s    0.393430 *  0.825660 *  0.366200 *  -2.87073    1.000000    
     75 O2    s    0.893430 *  0.174340 *  0.633800 *  -2.87073    1.000000    
     76 O2    s    0.606570 *  0.825660 *  0.633800 *  -2.87073    1.000000    
     77 O2    s    0.893430 *  0.825660 *  0.633800 *  -2.87073    1.000000    
     78 O2    s    0.606570 *  0.174340 *  0.633800 *  -2.87073    1.000000    
     79 O2    s    0.106570 *  0.825660 *  0.366200 *  -2.87073    1.000000    
     80 O2    s    0.393430 *  0.174340 *  0.366200 *  -2.87073    1.000000    
     81 O2    s    0.000000 *  0.000000 *  0.500000 *  -2.87073    1.000000    
     82 O2    s    0.500000 *  0.000000 *  0.500000 *  -2.87073    1.000000    
     83 O2    s    0.994520 *  0.000000 *  0.250840 *  -2.87073    1.000000    
     84 O3    s    0.505480 *  0.000000 *  0.250840 *  -3.33043    1.000000    
     85 O2    s    0.005480 *  0.000000 *  0.749160 *  -2.87073    1.000000    
     86 O2    s    0.494520 *  0.000000 *  0.749160 *  -2.87073    1.000000    
     87 O3    s    0.610230 *  0.175520 *  0.115390 *  -3.33043    1.000000    
     88 O2    s    0.889770 *  0.824480 *  0.115390 *  -2.87073    1.000000    
     89 O2    s    0.389770 *  0.175520 *  0.884610 *  -2.87073    1.000000    
     90 O2    s    0.110230 *  0.824480 *  0.884610 *  -2.87073    1.000000    
     91 O2    s    0.389770 *  0.824480 *  0.884610 *  -2.87073    1.000000    
     92 O2    s    0.110230 *  0.175520 *  0.884610 *  -2.87073    1.000000    
     93 O3    s    0.610230 *  0.824480 *  0.115390 *  -3.33043    1.000000    
     94 O3    s    0.889770 *  0.175520 *  0.115390 *  -3.33043    1.000000    
     95 O3    s    0.500000 *  0.000000 *  0.000000 *  -3.33043    1.000000    
     96 O2    s    0.000000 *  0.000000 *  0.000000 *  -2.87073    1.000000    
     97 O3    s    0.151750 *  0.500000 *  0.313330 *  -3.33043    1.000000    
     98 O2    s    0.348250 *  0.500000 *  0.313330 *  -2.87073    1.000000    
     99 O2    s    0.848250 *  0.500000 *  0.686670 *  -2.87073    1.000000    
    100 O2    s    0.651750 *  0.500000 *  0.686670 *  -2.87073    1.000000    
    101 O3    s    0.250000 *  0.234950 *  0.285720 *  -3.33043    1.000000    
    102 O2    s    0.250000 *  0.765050 *  0.285720 *  -2.87073    1.000000    
    103 O2    s    0.750000 *  0.234950 *  0.714280 *  -2.87073    1.000000    
    104 O2    s    0.750000 *  0.765050 *  0.714280 *  -2.87073    1.000000    
    105 O3    s    0.131410 *  0.268650 *  0.127790 *  -3.33043    1.000000    
    106 O2    s    0.368590 *  0.731350 *  0.127790 *  -2.87073    1.000000    
    107 O3    s    0.868590 *  0.268650 *  0.872210 *  -3.33043    1.000000    
    108 O2    s    0.631410 *  0.731350 *  0.872210 *  -2.87073    1.000000    
    109 O2    s    0.868590 *  0.731350 *  0.872210 *  -2.87073    1.000000    
    110 O2    s    0.631410 *  0.268650 *  0.872210 *  -2.87073    1.000000    
    111 O2    s    0.131410 *  0.731350 *  0.127790 *  -2.87073    1.000000    
    112 O2    s    0.368590 *  0.268650 *  0.127790 *  -2.87073    1.000000    
    113 O2    s    0.653920 *  0.500000 *  0.058200 *  -2.87073    1.000000    
    114 O3    s    0.846080 *  0.500000 *  0.058200 *  -3.33043    1.000000    
    115 O2    s    0.346080 *  0.500000 *  0.941800 *  -2.87073    1.000000    
    116 O2    s    0.153920 *  0.500000 *  0.941800 *  -2.87073    1.000000    
    117 O3    s    0.750000 *  0.231060 *  0.027050 *  -3.33043    1.000000    
    118 O2    s    0.750000 *  0.768940 *  0.027050 *  -2.87073    1.000000    
    119 O2    s    0.250000 *  0.231060 *  0.972950 *  -2.87073    1.000000    
    120 O2    s    0.250000 *  0.768940 *  0.972950 *  -2.87073    1.000000    
--------------------------------------------------------------------------------



********************************************************************************
*  General input information                                                   *
********************************************************************************

  Species output for all configurations : 

--------------------------------------------------------------------------------
  Species    Type    Atomic    Atomic    Charge       Radii (Angs)     Library
                     Number     Mass       (e)     Cova   Ionic  VDW   Symbol
--------------------------------------------------------------------------------
    Ge       Core       32      72.61   4.000000   1.170  0.000  1.750 Ge       
    Si       Core       14      28.09   4.000000   1.200  0.000  2.100 Si       
    O1       Core        8      16.00   1.733957   0.730  0.000  0.000 O1       
    O2       Core        8      16.00   0.870733   0.730  0.000  1.360 O2       
    O3       Core        8      16.00   1.330431   0.730  0.000  1.360 O3       
    O1       Shell       8       0.00  -3.733957   0.730  0.000  0.000 O1       
    O2       Shell       8       0.00  -2.870733   0.730  0.000  0.000 O2       
    O3       Shell       8       0.00  -3.330431   0.730  0.000  0.000 O3       
--------------------------------------------------------------------------------


  Lattice summation method               =    Ewald          (3-D)
                                         =    Parry          (2-D)
                                         =    Saunders et al (1-D)
  Accuracy factor for lattice sums       =   12.000


  Analytic derivatives to be used

  Time limit = Infinity

  Maximum range for interatomic potentials =    100000.000000 Angstroms

  General interatomic potentials :

--------------------------------------------------------------------------------
Atom  Types   Potential      Parameter       Value         Units   Cutoffs(Ang)
  1     2                                                            Min /  Max 
--------------------------------------------------------------------------------
Si   c O1   s Buckingham    Buckingham A     1315.2478    eV        0.000 16.000
                            Buckingham rho  0.31775900    Ang       
                            Buckingham C     10.141118    eV*Ang^6  
--------------------------------------------------------------------------------
Si   c O2   s Buckingham    Buckingham A     1315.2478    eV        0.000 16.000
                            Buckingham rho  0.31775900    Ang       
                            Buckingham C     10.141118    eV*Ang^6  
--------------------------------------------------------------------------------
Si   c O3   s Buckingham    Buckingham A     1315.2478    eV        0.000 16.000
                            Buckingham rho  0.31775900    Ang       
                            Buckingham C     10.141118    eV*Ang^6  
--------------------------------------------------------------------------------
Ge   c O1   s Buckingham    Buckingham A     1497.3996    eV        0.000 16.000
                            Buckingham rho  0.32564600    Ang       
                            Buckingham C     16.808599    eV*Ang^6  
--------------------------------------------------------------------------------
Ge   c O2   s Buckingham    Buckingham A     1497.3996    eV        0.000 16.000
                            Buckingham rho  0.32564600    Ang       
                            Buckingham C     16.808599    eV*Ang^6  
--------------------------------------------------------------------------------
Ge   c O3   s Buckingham    Buckingham A     1497.3996    eV        0.000 16.000
                            Buckingham rho  0.32564600    Ang       
                            Buckingham C     16.808599    eV*Ang^6  
--------------------------------------------------------------------------------
O1   s O1   s Buckingham    Buckingham A     22764.000    eV        0.000 16.000
                            Buckingham rho  0.14900000    Ang       
                            Buckingham C     10.937044    eV*Ang^6  
--------------------------------------------------------------------------------
O1   s O2   s Buckingham    Buckingham A     22764.000    eV        0.000 16.000
                            Buckingham rho  0.14900000    Ang       
                            Buckingham C     10.937044    eV*Ang^6  
--------------------------------------------------------------------------------
O1   s O3   s Buckingham    Buckingham A     22764.000    eV        0.000 16.000
                            Buckingham rho  0.14900000    Ang       
                            Buckingham C     10.937044    eV*Ang^6  
--------------------------------------------------------------------------------
O2   s O2   s Buckingham    Buckingham A     22764.000    eV        0.000 16.000
                            Buckingham rho  0.14900000    Ang       
                            Buckingham C     10.937044    eV*Ang^6  
--------------------------------------------------------------------------------
O2   s O3   s Buckingham    Buckingham A     22764.000    eV        0.000 16.000
                            Buckingham rho  0.14900000    Ang       
                            Buckingham C     10.937044    eV*Ang^6  
--------------------------------------------------------------------------------
O3   s O3   s Buckingham    Buckingham A     22764.000    eV        0.000 16.000
                            Buckingham rho  0.14900000    Ang       
                            Buckingham C     10.937044    eV*Ang^6  
--------------------------------------------------------------------------------
O1   c O1   s Spring (c-s)  Spring k 2       180.31577    eV*Ang^-2 0.000  0.800
                            Spring k 4       0.0000000    eV*Ang^-4 
--------------------------------------------------------------------------------
O2   c O2   s Spring (c-s)  Spring k 2       75.969800    eV*Ang^-2 0.000  0.800
                            Spring k 4       0.0000000    eV*Ang^-4 
--------------------------------------------------------------------------------
O3   c O3   s Spring (c-s)  Spring k 2       128.14270    eV*Ang^-2 0.000  0.800
                            Spring k 4       0.0000000    eV*Ang^-4 
--------------------------------------------------------------------------------

  General Three-body potentials :

--------------------------------------------------------------------------------
  Atoms       Potential      Parameter       Value         Units   Cutoffs(Ang)
  1 / 2 / 3                                                          Min /  Max 
--------------------------------------------------------------------------------
Si    core    Harmonic      Three-body cnst  1.2614000    eV*rad^-2 0.000  1.900
O1    shel                  Three-body angl  109.47000    degrees   0.000  1.900
O1    shel                  Three-body k4    0.0000000    eV*rad^-4 0.000  3.500
                            Three-body k3    0.0000000    eV*rad^-3 
--------------------------------------------------------------------------------
Si    core    Harmonic      Three-body cnst  1.2614000    eV*rad^-2 0.000  1.900
O1    shel                  Three-body angl  109.47000    degrees   0.000  1.900
õ(1   shel                  Three-body k4    0.0000000    eV*rad^-4 0.000  3.500
                            Three-body k3    0.0000000    eV*rad^-3 
--------------------------------------------------------------------------------
Si    core    Harmonic      Three-body cnst  1.2614000    eV*rad^-2 0.000  1.900
õ(1   shel                  Three-body angl  109.47000    degrees   0.000  1.900
õ(1   shel                  Three-body k4    0.0000000    eV*rad^-4 0.000  3.500
                            Three-body k3    0.0000000    eV*rad^-3 
--------------------------------------------------------------------------------
Si    core    Harmonic      Three-body cnst  1.2614000    eV*rad^-2 0.000  1.900
O1    shel                  Three-body angl  109.47000    degrees   0.000  1.900
O2    shel                  Three-body k4    0.0000000    eV*rad^-4 0.000  3.500
                            Three-body k3    0.0000000    eV*rad^-3 
--------------------------------------------------------------------------------
Si    core    Harmonic      Three-body cnst  1.2614000    eV*rad^-2 0.000  1.900
O1    shel                  Three-body angl  109.47000    degrees   0.000  1.900
õ(2   shel                  Three-body k4    0.0000000    eV*rad^-4 0.000  3.500
                            Three-body k3    0.0000000    eV*rad^-3 
--------------------------------------------------------------------------------
Si    core    Harmonic      Three-body cnst  1.2614000    eV*rad^-2 0.000  1.900
O2    shel                  Three-body angl  109.47000    degrees   0.000  1.900
õ(1   shel                  Three-body k4    0.0000000    eV*rad^-4 0.000  3.500
                            Three-body k3    0.0000000    eV*rad^-3 
--------------------------------------------------------------------------------
Si    core    Harmonic      Three-body cnst  1.2614000    eV*rad^-2 0.000  1.900
õ(1   shel                  Three-body angl  109.47000    degrees   0.000  1.900
õ(2   shel                  Three-body k4    0.0000000    eV*rad^-4 0.000  3.500
                            Three-body k3    0.0000000    eV*rad^-3 
--------------------------------------------------------------------------------
Si    core    Harmonic      Three-body cnst  1.2614000    eV*rad^-2 0.000  1.900
O2    shel                  Three-body angl  109.47000    degrees   0.000  1.900
O2    shel                  Three-body k4    0.0000000    eV*rad^-4 0.000  3.500
                            Three-body k3    0.0000000    eV*rad^-3 
--------------------------------------------------------------------------------
Si    core    Harmonic      Three-body cnst  1.2614000    eV*rad^-2 0.000  1.900
O2    shel                  Three-body angl  109.47000    degrees   0.000  1.900
õ(2   shel                  Three-body k4    0.0000000    eV*rad^-4 0.000  3.500
                            Three-body k3    0.0000000    eV*rad^-3 
--------------------------------------------------------------------------------
Si    core    Harmonic      Three-body cnst  1.2614000    eV*rad^-2 0.000  1.900
õ(2   shel                  Three-body angl  109.47000    degrees   0.000  1.900
õ(2   shel                  Three-body k4    0.0000000    eV*rad^-4 0.000  3.500
                            Three-body k3    0.0000000    eV*rad^-3 
--------------------------------------------------------------------------------

********************************************************************************
*  Output for configuration   1 : c00149.vasp                                  *
********************************************************************************


  Components of energy : 

--------------------------------------------------------------------------------
  Interatomic potentials     =         760.34908818 eV    
  Three-body potentials      =           0.01283736 eV    
  Monopole - monopole (real) =       -2676.00317478 eV    
  Monopole - monopole (recip)=       -1115.35404472 eV    
  Monopole - monopole (total)=       -3791.35721950 eV    
--------------------------------------------------------------------------------
  Total lattice energy       =       -3030.99529397 eV    
--------------------------------------------------------------------------------
  Total lattice energy       =         -292444.7129 kJ/(mole unit cells)
--------------------------------------------------------------------------------


  Number of variables =      363

  Maximum number of calculations  =          1000
  Maximum Hessian update interval =            10
  Maximum step size               =   0.100000000
  Maximum parameter tolerance     =   0.000010000
  Maximum function  tolerance     =   0.000010000
  Maximum gradient  tolerance     =   0.001000000
  Maximum gradient  component     =   0.010000000

  Symmetry not applied to optimisation

  Cell parameters to be optimised using strains

  Newton-Raphson optimiser to be used

  BFGS hessian update to be used

  Lower half triangular hessian to be used

  Minimiser to switch to RFO
  When gradient norm is less than     0.050000

  Dumpfile to be written after every cycle

  Start of bulk optimisation :

  Cycle:      0 Energy:     -3030.995294  Gnorm:      4.414057  CPU:    0.113
  ** Hessian calculated **
  Cycle:      1 Energy:     -3061.884885  Gnorm:      0.978674  CPU:    0.248
  ** Hessian calculated **
  Cycle:      2 Energy:     -3064.463533  Gnorm:      0.559735  CPU:    0.459
  Cycle:      3 Energy:     -3065.328499  Gnorm:      0.362429  CPU:    0.569
  Cycle:      4 Energy:     -3066.023987  Gnorm:      0.272838  CPU:    0.699
  Cycle:      5 Energy:     -3066.624259  Gnorm:      0.204923  CPU:    0.828
  Cycle:      6 Energy:     -3066.987535  Gnorm:      0.158553  CPU:    0.937
  Cycle:      7 Energy:     -3067.197180  Gnorm:      0.112133  CPU:    1.045
  Cycle:      8 Energy:     -3067.302204  Gnorm:      0.083780  CPU:    1.155
  Cycle:      9 Energy:     -3067.344763  Gnorm:      0.057671  CPU:    1.265
  Cycle:     10 Energy:     -3067.375709  Gnorm:      0.052488  CPU:    1.397
  Cycle:     11 Energy:     -3067.404035  Gnorm:      0.053129  CPU:    1.525
  ** Hessian calculated **
  Cycle:     12 Energy:     -3067.412964  Gnorm:      0.047259  CPU:    1.752
  ** Hessian has required structure
  Cycle:     13 Energy:     -3067.426778  Gnorm:      0.050966  CPU:    1.949
  ** Hessian has required structure
  Cycle:     14 Energy:     -3067.442085  Gnorm:      0.062040  CPU:    2.142
  ** Hessian has required structure
  Cycle:     15 Energy:     -3067.453725  Gnorm:      0.079613  CPU:    2.314
  ** Hessian has required structure
  Cycle:     16 Energy:     -3067.471034  Gnorm:      0.081129  CPU:    2.489
  ** Hessian has required structure
  Cycle:     17 Energy:     -3067.477166  Gnorm:      0.079702  CPU:    2.643
  ** Hessian has required structure
  Cycle:     18 Energy:     -3067.488289  Gnorm:      0.102346  CPU:    2.797
  ** Hessian has required structure
  Cycle:     19 Energy:     -3067.502579  Gnorm:      0.086993  CPU:    2.960
  ** Hessian has required structure
  Cycle:     20 Energy:     -3067.506490  Gnorm:      0.102406  CPU:    3.119
  ** Hessian has required structure
  Cycle:     21 Energy:     -3067.513474  Gnorm:      0.084359  CPU:    3.276
  ** Hessian has wrong structure
  ** Imaginary eigenvectors =   4
  Cycle:     22 Energy:     -3067.537133  Gnorm:      0.084237  CPU:    3.767
  ** Hessian has wrong structure
  ** Imaginary eigenvectors =   2
  Cycle:     23 Energy:     -3067.591571  Gnorm:      0.093322  CPU:    4.179
  ** Hessian has wrong structure
  ** Imaginary eigenvectors =   1
  ** Hessian has required structure
  Cycle:     24 Energy:     -3067.937803  Gnorm:      0.055468  CPU:    4.778
  ** Hessian has required structure
  Cycle:     25 Energy:     -3068.049825  Gnorm:      0.035256  CPU:    4.992
  ** Hessian has required structure
  Cycle:     26 Energy:     -3068.104323  Gnorm:      0.021250  CPU:    5.207
  ** Hessian has required structure
  Cycle:     27 Energy:     -3068.130047  Gnorm:      0.022742  CPU:    5.399
  ** Hessian has required structure
  Cycle:     28 Energy:     -3068.154288  Gnorm:      0.014514  CPU:    5.590
  ** Hessian has required structure
  Cycle:     29 Energy:     -3068.169343  Gnorm:      0.019134  CPU:    5.806
  ** Hessian has required structure
  Cycle:     30 Energy:     -3068.184559  Gnorm:      0.020920  CPU:    5.999
  ** Hessian has required structure
  Cycle:     31 Energy:     -3068.200548  Gnorm:      0.018684  CPU:    6.214
  ** Hessian has required structure
  Cycle:     32 Energy:     -3068.213965  Gnorm:      0.022065  CPU:    6.405
  ** Hessian has required structure
  Cycle:     33 Energy:     -3068.231147  Gnorm:      0.016928  CPU:    6.597
  ** Hessian has required structure
  Cycle:     34 Energy:     -3068.251905  Gnorm:      0.010332  CPU:    6.911
  ** Hessian has required structure
  Cycle:     35 Energy:     -3068.257637  Gnorm:      0.006892  CPU:    7.105
  ** Hessian has required structure
  Cycle:     36 Energy:     -3068.259854  Gnorm:      0.003385  CPU:    7.323
  ** Hessian has required structure
  Cycle:     37 Energy:     -3068.260447  Gnorm:      0.002237  CPU:    7.539
  ** Hessian has required structure
  Cycle:     38 Energy:     -3068.260601  Gnorm:      0.001126  CPU:    7.731
  ** Hessian has required structure
  Cycle:     39 Energy:     -3068.260671  Gnorm:      0.000802  CPU:    7.940
  ** Hessian has required structure
  Cycle:     40 Energy:     -3068.260687  Gnorm:      0.000336  CPU:    8.148
  ** Hessian has required structure
  Cycle:     41 Energy:     -3068.260689  Gnorm:      0.000267  CPU:    8.311
  ** Hessian has required structure
  Cycle:     42 Energy:     -3068.260691  Gnorm:      0.000194  CPU:    8.476
  ** Hessian has required structure
  Cycle:     43 Energy:     -3068.260692  Gnorm:      0.000175  CPU:    8.641
  ** Hessian has required structure
  Cycle:     44 Energy:     -3068.260692  Gnorm:      0.000175  CPU:    8.971
  ** Hessian calculated **
  Cycle:     45 Energy:     -3068.260692  Gnorm:      0.000110  CPU:    9.176
  ** Hessian has required structure
  Cycle:     46 Energy:     -3068.260692  Gnorm:      0.000198  CPU:    9.345
  ** Hessian has required structure
  Cycle:     47 Energy:     -3068.260692  Gnorm:      0.000204  CPU:    9.515
  ** Hessian has required structure
  Cycle:     48 Energy:     -3068.260692  Gnorm:      0.000177  CPU:    9.664
  ** Hessian has required structure
  Cycle:     49 Energy:     -3068.260692  Gnorm:      0.000146  CPU:    9.813
  ** Hessian has required structure
  Cycle:     50 Energy:     -3068.260692  Gnorm:      0.000133  CPU:    9.965
  ** Hessian has required structure
  Cycle:     51 Energy:     -3068.260692  Gnorm:      0.000119  CPU:   10.122
  ** Hessian has required structure
  Cycle:     52 Energy:     -3068.260692  Gnorm:      0.000128  CPU:   10.278
  ** Hessian has required structure
  Cycle:     53 Energy:     -3068.260692  Gnorm:      0.000126  CPU:   10.435
  ** Hessian has required structure
  Cycle:     54 Energy:     -3068.260692  Gnorm:      0.000114  CPU:   10.592
  ** Hessian has required structure
  Cycle:     55 Energy:     -3068.260692  Gnorm:      0.000113  CPU:   10.858
  ** Hessian has required structure
  Cycle:     56 Energy:     -3068.260692  Gnorm:      0.000112  CPU:   11.012
  ** Hessian has required structure
  Cycle:     57 Energy:     -3068.260692  Gnorm:      0.000112  CPU:   11.166
  ** Hessian has required structure
  Cycle:     58 Energy:     -3068.260692  Gnorm:      0.000112  CPU:   11.319
  ** Hessian has required structure
  Cycle:     59 Energy:     -3068.260692  Gnorm:      0.000110  CPU:   11.474
  ** Hessian has required structure
  Cycle:     60 Energy:     -3068.260692  Gnorm:      0.000109  CPU:   11.649
  ** Hessian has required structure
  Cycle:     61 Energy:     -3068.260692  Gnorm:      0.000109  CPU:   11.823
  ** Hessian has required structure
  Cycle:     62 Energy:     -3068.260692  Gnorm:      0.000108  CPU:   11.997
  ** Hessian has required structure
  Cycle:     63 Energy:     -3068.260692  Gnorm:      0.000108  CPU:   12.170
  ** Hessian has required structure
  Cycle:     64 Energy:     -3068.260692  Gnorm:      0.000108  CPU:   12.342
  ** Hessian has required structure
  Cycle:     65 Energy:     -3068.260692  Gnorm:      0.000108  CPU:   12.768
  ** Hessian calculated **
  Cycle:     66 Energy:     -3068.260692  Gnorm:      0.000107  CPU:   13.098
  ** Hessian has required structure


  **** Optimisation achieved ****


  Final energy =   -3068.26069232 eV      
  Final Gnorm  =       0.00008108

  Components of energy : 

--------------------------------------------------------------------------------
  Interatomic potentials     =         816.82828769 eV    
  Three-body potentials      =           0.22240440 eV    
  Monopole - monopole (real) =       -2204.73030499 eV    
  Monopole - monopole (recip)=       -1680.58107942 eV    
  Monopole - monopole (total)=       -3885.31138441 eV    
--------------------------------------------------------------------------------
  Total lattice energy       =       -3068.26069232 eV    
--------------------------------------------------------------------------------
  Total lattice energy       =         -296040.2541 kJ/(mole unit cells)
--------------------------------------------------------------------------------

  Final fractional coordinates of atoms :

--------------------------------------------------------------------------------
   No.  Atomic        x           y          z          Radius
        Label       (Frac)      (Frac)     (Frac)       (Angs) 
--------------------------------------------------------------------------------
     1  Ge    c     0.556730    0.000000    0.122130    0.000000
     2  Ge    c     0.161217    0.271691    0.280480    0.000000
     3  Ge    c     0.826952    0.258255    0.018678    0.000000
     4  Si    c     0.046699    0.983765    0.365917    0.000000
     5  Si    c     0.452596    0.989899    0.370552    0.000000
     6  Si    c     0.942970    0.965726    0.616359    0.000000
     7  Si    c     0.544601    0.992411    0.635970    0.000000
     8  Si    c     0.941959    0.974755    0.109784    0.000000
     9  Si    c     0.438361    0.974501    0.884299    0.000000
    10  Si    c     0.048271    0.984758    0.868910    0.000000
    11  Si    c     0.336510    0.699617    0.269270    0.000000
    12  Si    c     0.827275    0.256979    0.708894    0.000000
    13  Si    c     0.662999    0.704408    0.711702    0.000000
    14  Si    c     0.844036    0.661065    0.709873    0.000000
    15  Si    c     0.648246    0.303036    0.713575    0.000000
    16  Si    c     0.155148    0.684268    0.278292    0.000000
    17  Si    c     0.345646    0.294823    0.274588    0.000000
    18  Si    c     0.645002    0.321725    0.019282    0.000000
    19  Si    c     0.853531    0.655985    0.010947    0.000000
    20  Si    c     0.339919    0.292115    0.969591    0.000000
    21  Si    c     0.147019    0.673000    0.975191    0.000000
    22  Si    c     0.328259    0.690226    0.965406    0.000000
    23  Si    c     0.158384    0.269632    0.971407    0.000000
    24  Si    c     0.671099    0.714044    0.013669    0.000000
    25  O3    c     0.102879    0.149658    0.378314    0.000000
    26  O2    c     0.390768    0.833652    0.348717    0.000000
    27  O2    c     0.878130    0.121447    0.622821    0.000000
    28  O2    c     0.611729    0.840553    0.626513    0.000000
    29  O2    c     0.901169    0.776878    0.623672    0.000000
    30  O2    c     0.585575    0.182597    0.636975    0.000000
    31  O2    c     0.102187    0.811010    0.366855    0.000000
    32  O2    c     0.410442    0.178379    0.349416    0.000000
    33  O2    c     0.984429    0.975489    0.479087    0.000000
    34  O2    c     0.484383    0.979309    0.516836    0.000000
    35  O2    c     0.999928    0.996881    0.230308    0.000000
    36  O3    c     0.526273    0.971620    0.277855    0.000000
    37  O2    c     0.009331    0.987950    0.727217    0.000000
    38  O2    c     0.495424    0.963019    0.764320    0.000000
    39  O3    c     0.580401    0.216188    0.094592    0.000000
    40  O2    c     0.910778    0.775729    0.099152    0.000000
    41  O2    c     0.397022    0.166772    0.886878    0.000000
    42  O2    c     0.087903    0.793471    0.891500    0.000000
    43  O2    c     0.372194    0.823862    0.872999    0.000000
    44  O2    c     0.112593    0.138161    0.874796    0.000000
    45  O3    c     0.639103    0.868007    0.102612    0.000000
    46  O3    c     0.869260    0.107167    0.120871    0.000000
    47  O3    c     0.485068    0.932394    0.015457    0.000000
    48  O2    c     0.984284    0.030289    0.977287    0.000000
    49  O3    c     0.134591    0.487145    0.308064    0.000000
    50  O2    c     0.363340    0.500391    0.300151    0.000000
    51  O2    c     0.859570    0.453674    0.687348    0.000000
    52  O2    c     0.630376    0.508166    0.686382    0.000000
    53  O3    c     0.259626    0.247470    0.320768    0.000000
    54  O2    c     0.246331    0.725333    0.311376    0.000000
    55  O2    c     0.735544    0.252470    0.665018    0.000000
    56  O2    c     0.754126    0.710097    0.671500    0.000000
    57  O3    c     0.148279    0.212758    0.119215    0.000000
    58  O2    c     0.343015    0.739148    0.116607    0.000000
    59  O3    c     0.832804    0.198808    0.857080    0.000000
    60  O2    c     0.657301    0.762366    0.862386    0.000000
    61  O2    c     0.862968    0.708302    0.860076    0.000000
    62  O2    c     0.642268    0.266881    0.866665    0.000000
    63  O2    c     0.138031    0.724585    0.126316    0.000000
    64  O2    c     0.353624    0.251525    0.121377    0.000000
    65  O2    c     0.627878    0.529540    0.038773    0.000000
    66  O3    c     0.875058    0.456534    0.036117    0.000000
    67  O2    c     0.360304    0.492973    0.938063    0.000000
    68  O2    c     0.125742    0.468785    0.953367    0.000000
    69  O3    c     0.731680    0.273875    0.070579    0.000000
    70  O2    c     0.762857    0.688240    0.047181    0.000000
    71  O2    c     0.249506    0.257382    0.932647    0.000000
    72  O2    c     0.235917    0.704582    0.931311    0.000000
    73  O3    s     0.102121    0.143197    0.368905    0.000000
    74  O2    s     0.391286    0.835387    0.341971    0.000000
    75  O2    s     0.879523    0.119548    0.631581    0.000000
    76  O2    s     0.610298    0.841624    0.636821    0.000000
    77  O2    s     0.899326    0.784171    0.632361    0.000000
    78  O2    s     0.588090    0.175603    0.645223    0.000000
    79  O2    s     0.102098    0.815463    0.356902    0.000000
    80  O2    s     0.407709    0.171153    0.343302    0.000000
    81  O2    s     0.986905    0.975367    0.481787    0.000000
    82  O2    s     0.487764    0.982073    0.513950    0.000000
    83  O2    s     0.998294    0.992802    0.231187    0.000000
    84  O3    s     0.521313    0.975967    0.274015    0.000000
    85  O2    s     0.006392    0.985095    0.731143    0.000000
    86  O2    s     0.494324    0.967757    0.763860    0.000000
    87  O3    s     0.585144    0.209685    0.089048    0.000000
    88  O2    s     0.907895    0.783751    0.090684    0.000000
    89  O2    s     0.395057    0.160425    0.895795    0.000000
    90  O2    s     0.090256    0.800356    0.898453    0.000000
    91  O2    s     0.374240    0.824853    0.884387    0.000000
    92  O2    s     0.110726    0.136158    0.884867    0.000000
    93  O3    s     0.635846    0.862252    0.094626    0.000000
    94  O3    s     0.873143    0.106354    0.111166    0.000000
    95  O3    s     0.486420    0.942513    0.011091    0.000000
    96  O2    s     0.986781    0.019676    0.979322    0.000000
    97  O3    s     0.139003    0.490096    0.302601    0.000000
    98  O2    s     0.358600    0.499895    0.294140    0.000000
    99  O2    s     0.854535    0.455374    0.691990    0.000000
   100  O2    s     0.635713    0.507018    0.691921    0.000000
   101  O3    s     0.260386    0.254187    0.312854    0.000000
   102  O2    s     0.246437    0.718243    0.303336    0.000000
   103  O2    s     0.735933    0.258343    0.674667    0.000000
   104  O2    s     0.753920    0.704211    0.679867    0.000000
   105  O3    s     0.150320    0.223101    0.117584    0.000000
   106  O2    s     0.340726    0.729725    0.116915    0.000000
   107  O3    s     0.831763    0.209501    0.855346    0.000000
   108  O2    s     0.659335    0.751250    0.862159    0.000000
   109  O2    s     0.859990    0.697992    0.859796    0.000000
   110  O2    s     0.643181    0.276381    0.865951    0.000000
   111  O2    s     0.140771    0.714977    0.125895    0.000000
   112  O2    s     0.351346    0.260378    0.121225    0.000000
   113  O2    s     0.634078    0.526949    0.034172    0.000000
   114  O3    s     0.869028    0.461705    0.032149    0.000000
   115  O2    s     0.354723    0.492291    0.944351    0.000000
   116  O2    s     0.131399    0.469808    0.957563    0.000000
   117  O3    s     0.730901    0.277349    0.061175    0.000000
   118  O2    s     0.762603    0.687491    0.039530    0.000000
   119  O2    s     0.249602    0.262635    0.940925    0.000000
   120  O2    s     0.236287    0.699504    0.939819    0.000000
--------------------------------------------------------------------------------

  Final Cartesian lattice vectors (Angstroms) :

       17.016266    0.105869   -0.135461
        0.046445    7.617732   -0.045508
       -0.081220   -0.062697   10.289440


  Final cell parameters and derivatives :

--------------------------------------------------------------------------------
       a           17.017134 Angstrom     dE/de1(xx)     0.009051 eV/strain
       b            7.618010 Angstrom     dE/de2(yy)     0.008316 eV/strain
       c           10.289952 Angstrom     dE/de3(zz)     0.006671 eV/strain
       alpha       90.694122 Degrees      dE/de4(yz)     0.000081 eV/strain
       beta        90.910497 Degrees      dE/de5(xz)    -0.000358 eV/strain
       gamma       89.291518 Degrees      dE/de6(xy)     0.000052 eV/strain
--------------------------------------------------------------------------------

  Primitive cell volume =          1333.590141 Angs**3

  Density of cell =      1.962062 g/cm**3

  Non-primitive cell volume =          1333.590141 Angs**3


  Final internal derivatives :

--------------------------------------------------------------------------------
   No.  Atomic          a             b             c           Radius
        Label          (eV)          (eV)          (eV)        (eV/Angs)
--------------------------------------------------------------------------------
      1 Ge    c       0.000000      0.000000      0.000000      0.000000
      2 Ge    c       0.000792     -0.001139      0.000455      0.000000
      3 Ge    c      -0.001364     -0.000540     -0.000255      0.000000
      4 Si    c       0.001465      0.000731      0.000635      0.000000
      5 Si    c       0.001528      0.000061      0.000690      0.000000
      6 Si    c       0.001021      0.000170     -0.000780      0.000000
      7 Si    c       0.000014      0.000199      0.000484      0.000000
      8 Si    c      -0.002229     -0.000023     -0.000079      0.000000
      9 Si    c      -0.000966     -0.000147      0.000959      0.000000
     10 Si    c       0.000162     -0.000450      0.000021      0.000000
     11 Si    c      -0.000170     -0.000259     -0.000788      0.000000
     12 Si    c       0.000347      0.000043     -0.000183      0.000000
     13 Si    c      -0.000778      0.000639     -0.000100      0.000000
     14 Si    c       0.000596     -0.000117      0.000827      0.000000
     15 Si    c      -0.001091     -0.000692     -0.000909      0.000000
     16 Si    c       0.000853      0.000471      0.000455      0.000000
     17 Si    c       0.000553     -0.000052      0.000318      0.000000
     18 Si    c      -0.000805      0.000426     -0.000543      0.000000
     19 Si    c      -0.000721      0.000324     -0.000235      0.000000
     20 Si    c       0.000311     -0.001219     -0.001826      0.000000
     21 Si    c       0.000531     -0.000028     -0.000640      0.000000
     22 Si    c       0.000316      0.001917     -0.000993      0.000000
     23 Si    c       0.000379      0.000413     -0.000119      0.000000
     24 Si    c      -0.000935     -0.000551     -0.000558      0.000000
     25 O3    c      -0.002314     -0.000149      0.001180      0.000000
     26 O2    c       0.000625     -0.000484     -0.000080      0.000000
     27 O2    c       0.000880     -0.000023     -0.000091      0.000000
     28 O2    c      -0.000941      0.000077     -0.002453      0.000000
     29 O2    c       0.001024     -0.000005     -0.000513      0.000000
     30 O2    c      -0.000912      0.000033     -0.001729      0.000000
     31 O2    c      -0.000151     -0.000840      0.000931      0.000000
     32 O2    c       0.000944      0.000052     -0.000177      0.000000
     33 O2    c       0.000864     -0.000434      0.000890      0.000000
     34 O2    c       0.001008     -0.000056     -0.000269      0.000000
     35 O2    c      -0.001239      0.000103     -0.000290      0.000000
     36 O3    c      -0.002999      0.000053      0.000788      0.000000
     37 O2    c      -0.000458     -0.000009     -0.000569      0.000000
     38 O2    c      -0.000177     -0.000512      0.001285      0.000000
     39 O3    c      -0.004730     -0.000607     -0.000297      0.000000
     40 O2    c       0.000153      0.000564      0.000275      0.000000
     41 O2    c       0.001211      0.001479     -0.002442      0.000000
     42 O2    c      -0.000491     -0.000417     -0.000354      0.000000
     43 O2    c      -0.000597     -0.001290     -0.001095      0.000000
     44 O2    c      -0.000781      0.000318     -0.000478      0.000000
     45 O3    c      -0.002011      0.000625     -0.000102      0.000000
     46 O3    c       0.004488     -0.001111      0.001084      0.000000
     47 O3    c       0.005386     -0.001313      0.003615      0.000000
     48 O2    c      -0.000305      0.000458      0.000041      0.000000
     49 O3    c       0.001831      0.000932      0.000373      0.000000
     50 O2    c       0.000233     -0.000162      0.000163      0.000000
     51 O2    c       0.001316     -0.000199     -0.000737      0.000000
     52 O2    c      -0.001164      0.000056      0.000175      0.000000
     53 O3    c      -0.004539     -0.001155      0.000056      0.000000
     54 O2    c      -0.000611      0.000284      0.000668      0.000000
     55 O2    c      -0.000523     -0.000244     -0.000516      0.000000
     56 O2    c      -0.000334      0.000283      0.000151      0.000000
     57 O3    c       0.000604     -0.000716      0.000494      0.000000
     58 O2    c      -0.001324     -0.000238     -0.000506      0.000000
     59 O3    c      -0.000496     -0.000855      0.000738      0.000000
     60 O2    c      -0.000547     -0.000044      0.001027      0.000000
     61 O2    c      -0.000119      0.000193      0.000809      0.000000
     62 O2    c       0.000208     -0.000124     -0.000012      0.000000
     63 O2    c       0.000390      0.000215      0.000555      0.000000
     64 O2    c      -0.000146      0.000300     -0.000094      0.000000
     65 O2    c       0.000551      0.000002     -0.000189      0.000000
     66 O3    c      -0.005811      0.001098      0.000562      0.000000
     67 O2    c      -0.000099      0.000600      0.000973      0.000000
     68 O2    c      -0.001271     -0.000078     -0.000133      0.000000
     69 O3    c       0.004758     -0.000491      0.000001      0.000000
     70 O2    c       0.000380      0.000992      0.001022      0.000000
     71 O2    c       0.001006      0.000317      0.000038      0.000000
     72 O2    c       0.001055     -0.000031     -0.000299      0.000000
     73 O3    s       0.001629      0.000384      0.000259      0.000000
     74 O2    s      -0.000485      0.000446     -0.000319      0.000000
     75 O2    s       0.000192     -0.000788     -0.000385      0.000000
     76 O2    s       0.000590      0.000678     -0.000523      0.000000
     77 O2    s       0.000302      0.000476     -0.000498      0.000000
     78 O2    s      -0.000207     -0.000276     -0.000181      0.000000
     79 O2    s       0.000697      0.000617     -0.000219      0.000000
     80 O2    s      -0.000897      0.000502     -0.000488      0.000000
     81 O2    s      -0.003604      0.000135     -0.001007      0.000000
     82 O2    s      -0.001784      0.000302      0.001273      0.000000
     83 O2    s       0.002855      0.000176     -0.000950      0.000000
     84 O3    s       0.005753      0.000766      0.001104      0.000000
     85 O2    s       0.000665     -0.000215     -0.000355      0.000000
     86 O2    s       0.003993     -0.000955      0.001099      0.000000
     87 O3    s       0.003341     -0.000269      0.000520      0.000000
     88 O2    s       0.002138     -0.000506     -0.000297      0.000000
     89 O2    s      -0.001602     -0.001103     -0.000559      0.000000
     90 O2    s      -0.001051      0.000325      0.000270      0.000000
     91 O2    s      -0.001075      0.000743     -0.001354      0.000000
     92 O2    s       0.000514     -0.000364     -0.000140      0.000000
     93 O3    s       0.002098      0.000970      0.000150      0.000000
     94 O3    s      -0.003766     -0.000196     -0.000005      0.000000
     95 O3    s      -0.005451      0.002238      0.002835      0.000000
     96 O2    s      -0.000865      0.000466     -0.000149      0.000000
     97 O3    s      -0.004651     -0.000655      0.000408      0.000000
     98 O2    s       0.001841     -0.000275      0.000276      0.000000
     99 O2    s       0.000745      0.000091      0.000102      0.000000
    100 O2    s      -0.000075     -0.000057     -0.000497      0.000000
    101 O3    s       0.003721      0.000009      0.000377      0.000000
    102 O2    s      -0.001195      0.000290      0.000468      0.000000
    103 O2    s      -0.000520     -0.000086      0.000060      0.000000
    104 O2    s      -0.000517     -0.000026     -0.000130      0.000000
    105 O3    s      -0.003227      0.000141      0.000423      0.000000
    106 O2    s       0.002236      0.000424      0.000459      0.000000
    107 O3    s       0.001764      0.000449     -0.000186      0.000000
    108 O2    s       0.000363      0.000116     -0.000252      0.000000
    109 O2    s       0.000689     -0.000393      0.000041      0.000000
    110 O2    s      -0.000184     -0.000271      0.000180      0.000000
    111 O2    s      -0.002621      0.000217      0.000296      0.000000
    112 O2    s       0.001047     -0.000799     -0.000017      0.000000
    113 O2    s      -0.001146     -0.000178      0.000421      0.000000
    114 O3    s       0.009453     -0.001239     -0.000371      0.000000
    115 O2    s       0.002280     -0.000502     -0.000874      0.000000
    116 O2    s      -0.002982      0.000149      0.000054      0.000000
    117 O3    s      -0.003724      0.000543      0.000569      0.000000
    118 O2    s       0.000049      0.001236      0.000035      0.000000
    119 O2    s       0.001164     -0.000404      0.000202      0.000000
    120 O2    s       0.000320      0.000286     -0.000836      0.000000
--------------------------------------------------------------------------------
  Maximum abs         0.009453      0.002238      0.003615      0.000000
--------------------------------------------------------------------------------


  Born effective charge tensors : 

-------------------------------------------------------------------------------
  Atom             x           y             z
-------------------------------------------------------------------------------
    1 Ge    x       4.2017      0.3117     -0.4295
            y      -0.2925      3.8964     -0.0260
            z      -0.4689     -0.0825      3.9010
-------------------------------------------------------------------------------
    2 Ge    x       3.9660      0.3360     -0.1806
            y       0.2832      4.1826     -0.2507
            z      -0.1739     -0.0580      3.4643
-------------------------------------------------------------------------------
    3 Ge    x       3.9440     -0.4620      0.1593
            y      -0.0711      4.1799     -0.2886
            z       0.1625     -0.0961      3.3412
-------------------------------------------------------------------------------
    4 Si    x       3.6114      0.1682     -0.0835
            y       0.2304      3.4308      0.0472
            z      -0.6869     -0.0641      3.7948
-------------------------------------------------------------------------------
    5 Si    x       3.6649     -0.0725      0.2272
            y       0.1060      3.2956     -0.0012
            z       0.0844     -0.0215      4.0320
-------------------------------------------------------------------------------
    6 Si    x       3.4416      0.1370     -0.2517
            y      -0.0983      3.2398     -0.0214
            z      -0.3649     -0.0514      3.8047
-------------------------------------------------------------------------------
    7 Si    x       3.4620      0.1554      0.0490
            y      -0.1152      3.2516      0.0056
            z       0.5845     -0.0132      3.6903
-------------------------------------------------------------------------------
    8 Si    x       3.6805      0.0188      0.0827
            y      -0.3758      3.3642      0.0698
            z       0.5860      0.0556      3.1025
-------------------------------------------------------------------------------
    9 Si    x       3.6495     -0.1695     -0.0002
            y       0.1078      3.3254     -0.0322
            z      -0.5156     -0.0685      3.2790
-------------------------------------------------------------------------------
   10 Si    x       3.4708     -0.1082      0.2980
            y       0.1542      3.2704     -0.0396
            z       0.4290     -0.0080      3.1369
-------------------------------------------------------------------------------
   11 Si    x       3.1980      0.2679      0.1039
            y       0.1912      3.4455      0.1414
            z       0.1453      0.0923      2.8548
-------------------------------------------------------------------------------
   12 Si    x       3.2756     -0.3614     -0.0796
            y      -0.1835      3.5778      0.0805
            z      -0.1391     -0.0357      3.0856
-------------------------------------------------------------------------------
   13 Si    x       3.2333     -0.3382      0.1260
            y      -0.1602      3.4577     -0.1667
            z       0.1096     -0.0408      2.7542
-------------------------------------------------------------------------------
   14 Si    x       3.2147      0.2418     -0.0493
            y       0.2877      3.4454     -0.2093
            z      -0.0893     -0.0689      2.7994
-------------------------------------------------------------------------------
   15 Si    x       3.1937      0.2548      0.0233
            y       0.2986      3.4646      0.1870
            z       0.1237      0.0757      2.7621
-------------------------------------------------------------------------------
   16 Si    x       3.2831     -0.1678     -0.1267
            y      -0.1166      3.7349      0.0828
            z      -0.1289     -0.0011      2.9157
-------------------------------------------------------------------------------
   17 Si    x       3.5165     -0.1300     -0.0585
            y      -0.2156      3.5157     -0.1899
            z       0.0607     -0.1166      2.9131
-------------------------------------------------------------------------------
   18 Si    x       3.8398      0.3308     -0.1636
            y       0.3738      3.5928     -0.3202
            z      -0.3035     -0.1562      2.9374
-------------------------------------------------------------------------------
   19 Si    x       3.3304      0.2014      0.1758
            y       0.1568      3.7250      0.1101
            z       0.2047     -0.0245      2.7800
-------------------------------------------------------------------------------
   20 Si    x       3.2626     -0.2673     -0.1021
            y      -0.2407      3.3994      0.1480
            z      -0.1486      0.0671      2.7145
-------------------------------------------------------------------------------
   21 Si    x       3.3143     -0.2690      0.1204
            y      -0.2618      3.4123     -0.1795
            z       0.1784     -0.0483      2.7202
-------------------------------------------------------------------------------
   22 Si    x       3.2539      0.3076     -0.1676
            y       0.1188      3.4244     -0.1737
            z      -0.1173     -0.0667      2.7360
-------------------------------------------------------------------------------
   23 Si    x       3.3194      0.3362      0.1336
            y       0.1524      3.5649      0.1155
            z       0.0948     -0.0298      3.0142
-------------------------------------------------------------------------------
   24 Si    x       3.2824     -0.5369     -0.2614
            y      -0.1258      3.6450      0.3592
            z      -0.1618      0.2509      2.9194
-------------------------------------------------------------------------------
   25 O3    x      -2.0808     -0.9563      0.3448
            y      -1.0192     -2.3984      0.3650
            z       0.4303      0.3233     -1.5623
-------------------------------------------------------------------------------
   26 O2    x      -1.7438     -0.7355     -0.4000
            y      -0.7443     -1.9740     -0.3898
            z      -0.4006     -0.3856     -1.3752
-------------------------------------------------------------------------------
   27 O2    x      -1.7532      0.7262      0.3153
            y       0.7461     -1.9650     -0.3267
            z       0.3520     -0.3227     -1.3422
-------------------------------------------------------------------------------
   28 O2    x      -1.7751      0.7261     -0.2618
            y       0.7521     -1.9369      0.2973
            z      -0.3352      0.2908     -1.3295
-------------------------------------------------------------------------------
   29 O2    x      -1.6340     -0.7134      0.3407
            y      -0.6517     -2.0132      0.3609
            z       0.3561      0.3499     -1.3742
-------------------------------------------------------------------------------
   30 O2    x      -1.6723     -0.7375     -0.2669
            y      -0.6836     -2.0453     -0.2937
            z      -0.3541     -0.2914     -1.3006
-------------------------------------------------------------------------------
   31 O2    x      -1.7070      0.6620      0.3074
            y       0.6735     -1.8685     -0.3250
            z       0.3791     -0.2920     -1.3931
-------------------------------------------------------------------------------
   32 O2    x      -1.6376      0.6709     -0.3561
            y       0.6305     -2.0136      0.3828
            z      -0.3541      0.3773     -1.3858
-------------------------------------------------------------------------------
   33 O2    x      -1.6821     -0.0501      0.8195
            y      -0.0094     -1.0819      0.0263
            z       1.0713      0.0721     -2.6792
-------------------------------------------------------------------------------
   34 O2    x      -1.6107     -0.0182     -0.8004
            y      -0.0075     -1.0967     -0.0077
            z      -0.9721     -0.0012     -2.7212
-------------------------------------------------------------------------------
   35 O2    x      -1.6617     -0.0512     -0.6795
            y       0.0027     -1.1357     -0.0282
            z      -0.6475     -0.0386     -2.2380
-------------------------------------------------------------------------------
   36 O3    x      -2.1226     -0.0269      0.9250
            y       0.0452     -1.2374      0.0158
            z       0.9141      0.0712     -2.6830
-------------------------------------------------------------------------------
   37 O2    x      -1.7139     -0.0385     -0.7323
            y      -0.0360     -1.1136     -0.0189
            z      -0.6987     -0.0367     -2.2455
-------------------------------------------------------------------------------
   38 O2    x      -1.7838     -0.0265      0.7558
            y      -0.0110     -1.1375      0.0351
            z       0.7480      0.0540     -2.1649
-------------------------------------------------------------------------------
   39 O3    x      -2.0153     -0.9179      0.5605
            y      -0.7392     -2.4120      0.5561
            z       0.5410      0.5293     -1.4856
-------------------------------------------------------------------------------
   40 O2    x      -1.6374     -0.6290     -0.3239
            y      -0.5537     -1.9580     -0.3614
            z      -0.3615     -0.3196     -1.2579
-------------------------------------------------------------------------------
   41 O2    x      -1.6583      0.6862      0.3114
            y       0.6063     -2.0288     -0.3483
            z       0.3703     -0.3367     -1.2295
-------------------------------------------------------------------------------
   42 O2    x      -1.6952      0.7084     -0.3804
            y       0.6192     -2.0218      0.4078
            z      -0.3822      0.3821     -1.2590
-------------------------------------------------------------------------------
   43 O2    x      -1.7420     -0.7022      0.3043
            y      -0.6746     -1.9180      0.3362
            z       0.3339      0.3141     -1.2620
-------------------------------------------------------------------------------
   44 O2    x      -1.7605     -0.7203     -0.3516
            y      -0.6896     -1.9322     -0.3477
            z      -0.3316     -0.3222     -1.2549
-------------------------------------------------------------------------------
   45 O3    x      -2.0471      0.9011      0.5330
            y       0.8441     -2.3305     -0.6259
            z       0.4808     -0.5884     -1.5520
-------------------------------------------------------------------------------
   46 O3    x      -2.1976      0.9418     -0.3016
            y       0.9262     -2.2442      0.3773
            z      -0.3574      0.3425     -1.4239
-------------------------------------------------------------------------------
   47 O3    x      -2.1490     -0.0610     -0.8189
            y      -0.0291     -1.3512      0.0009
            z      -0.4992      0.0145     -2.0937
-------------------------------------------------------------------------------
   48 O2    x      -1.7520     -0.0020      0.5685
            y       0.0148     -1.2341      0.0496
            z       0.2927      0.0504     -1.7306
-------------------------------------------------------------------------------
   49 O3    x      -1.3086     -0.0394      0.0887
            y      -0.0206     -3.2145      0.0840
            z       0.0990      0.1029     -1.2064
-------------------------------------------------------------------------------
   50 O2    x      -1.1638      0.0714     -0.0554
            y       0.0963     -2.5702      0.0284
            z      -0.0762      0.0163     -1.0887
-------------------------------------------------------------------------------
   51 O2    x      -1.1904     -0.0710      0.0418
            y      -0.1412     -2.5805     -0.0167
            z       0.0646     -0.0384     -1.0551
-------------------------------------------------------------------------------
   52 O2    x      -1.1831     -0.0716     -0.0530
            y      -0.1308     -2.5519      0.0132
            z      -0.0752      0.0192     -1.0519
-------------------------------------------------------------------------------
   53 O3    x      -2.9946     -0.1517      0.1237
            y      -0.1132     -1.4034      0.1094
            z       0.1113      0.0792     -1.2375
-------------------------------------------------------------------------------
   54 O2    x      -2.4228     -0.0335      0.0435
            y       0.0039     -1.2326     -0.0612
            z       0.0397     -0.0395     -1.0939
-------------------------------------------------------------------------------
   55 O2    x      -2.3774      0.1289      0.0591
            y       0.0731     -1.2632     -0.0742
            z       0.0277     -0.0440     -1.0825
-------------------------------------------------------------------------------
   56 O2    x      -2.4155      0.1307      0.0115
            y       0.0586     -1.2453      0.0698
            z       0.0329      0.0344     -1.0658
-------------------------------------------------------------------------------
   57 O3    x      -1.3259     -0.1583     -0.0000
            y      -0.1191     -1.4768      0.1212
            z      -0.0031      0.0700     -2.5948
-------------------------------------------------------------------------------
   58 O2    x      -1.1794     -0.1210     -0.0132
            y      -0.0856     -1.2778     -0.0248
            z      -0.0192     -0.0048     -2.0986
-------------------------------------------------------------------------------
   59 O3    x      -1.3139      0.1544     -0.0682
            y       0.0830     -1.4759      0.0745
            z      -0.0134      0.0810     -2.5974
-------------------------------------------------------------------------------
   60 O2    x      -1.1926      0.1423     -0.0165
            y       0.0756     -1.3008      0.0115
            z      -0.0412     -0.0039     -2.0302
-------------------------------------------------------------------------------
   61 O2    x      -1.2209     -0.1350     -0.0684
            y      -0.1242     -1.2691     -0.0147
            z      -0.0828     -0.0023     -2.0584
-------------------------------------------------------------------------------
   62 O2    x      -1.1989     -0.1091      0.0522
            y      -0.1046     -1.3023     -0.0368
            z       0.0645     -0.0638     -2.0679
-------------------------------------------------------------------------------
   63 O2    x      -1.2252      0.1223     -0.0518
            y       0.1116     -1.2638     -0.0381
            z      -0.0691     -0.0514     -2.0848
-------------------------------------------------------------------------------
   64 O2    x      -1.2001      0.1159     -0.0367
            y       0.1096     -1.2833     -0.0070
            z      -0.0222     -0.0095     -2.0978
-------------------------------------------------------------------------------
   65 O2    x      -1.2955     -0.1304      0.0972
            y      -0.2081     -2.3822      0.0140
            z       0.1229      0.0288     -1.0552
-------------------------------------------------------------------------------
   66 O3    x      -1.4261     -0.0182     -0.0988
            y      -0.1608     -3.1040      0.1124
            z      -0.1272      0.0871     -1.1270
-------------------------------------------------------------------------------
   67 O2    x      -1.2265      0.0460      0.0825
            y       0.0948     -2.4967      0.0276
            z       0.0983      0.0035     -1.0270
-------------------------------------------------------------------------------
   68 O2    x      -1.2526      0.0347     -0.0654
            y       0.0941     -2.5580     -0.0375
            z      -0.0897     -0.0276     -1.0035
-------------------------------------------------------------------------------
   69 O3    x      -2.9550      0.2729     -0.0655
            y       0.2149     -1.4177      0.1045
            z      -0.0931      0.0597     -1.2409
-------------------------------------------------------------------------------
   70 O2    x      -2.4186      0.1214     -0.0032
            y       0.0597     -1.2430     -0.0498
            z       0.0096     -0.0233     -1.0649
-------------------------------------------------------------------------------
   71 O2    x      -2.4433     -0.0679     -0.0117
            y      -0.0588     -1.2508     -0.0615
            z      -0.0142     -0.0331     -1.0343
-------------------------------------------------------------------------------
   72 O2    x      -2.4466     -0.0547      0.0497
            y      -0.0238     -1.2298      0.0654
            z       0.0158      0.0335     -1.0452
-------------------------------------------------------------------------------




  Elastic Constant Matrix: (Units=GPa)

-------------------------------------------------------------------------------
  Indices      1         2         3         4         5         6    
-------------------------------------------------------------------------------
       1     52.5924   29.4063   25.3603   -0.2993   -3.1793    0.9644
       2     29.4063   79.9328   23.7346    0.0813   -2.9088    1.0802
       3     25.3603   23.7346   30.0347   -0.0573   -2.1135    1.1343
       4     -0.2993    0.0813   -0.0573   12.2172    1.1339   -0.2546
       5     -3.1793   -2.9088   -2.1135    1.1339   25.2567   -2.5520
       6      0.9644    1.0802    1.1343   -0.2546   -2.5520   25.0430
-------------------------------------------------------------------------------


  Elastic Compliance Matrix: (Units=1/GPa)

-------------------------------------------------------------------------------
  Indices      1         2         3         4         5         6    
-------------------------------------------------------------------------------
       1    0.033690 -0.005127 -0.024288  0.000600  0.001611  0.000194
       2   -0.005127  0.017143 -0.009176 -0.000337  0.000569 -0.000072
       3   -0.024288 -0.009176  0.061167 -0.000357  0.000884 -0.001353
       4    0.000600 -0.000337 -0.000357  0.082214 -0.003637  0.000473
       5    0.001611  0.000569  0.000884 -0.003637  0.040499  0.003964
       6    0.000194 -0.000072 -0.001353  0.000473  0.003964  0.040397
-------------------------------------------------------------------------------

  Mechanical properties :

-------------------------------------------------------------------------------
  Convention :                    Reuss         Voigt         Hill
-------------------------------------------------------------------------------
  Bulk  Modulus (GPa)     =      28.72097      35.50694      32.11396
  Shear Modulus (GPa)     =      13.74008      18.10730      15.92369
-------------------------------------------------------------------------------
  Velocity S-wave (km/s)  =       2.64630       3.03788       2.84882
  Velocity P-wave (km/s)  =       4.89646       5.51377       5.21426
-------------------------------------------------------------------------------
  Compressibility (1/GPa) =    0.03481776
-------------------------------------------------------------------------------
  Stress axis :                     x             y             z
-------------------------------------------------------------------------------
  Youngs Moduli (GPa)     =      29.68258      58.33164      16.34869
-------------------------------------------------------------------------------
  Poissons Ratio (x)      =                     0.29905       0.39708
  Poissons Ratio (y)      =       0.15218                     0.15002
  Poissons Ratio (z)      =       0.72093       0.53527
-------------------------------------------------------------------------------


  Piezoelectric Strain Matrix: (Units=C/m**2)

-------------------------------------------------------------------------------
  Indices      1         2         3         4         5         6    
-------------------------------------------------------------------------------
       x    -0.10852   0.53635   0.04140   0.49971  -0.15212   0.07859
       y    -0.01064   1.01925   0.40947  -0.32358   0.61823   0.28625
       z    -0.54886  -0.45176  -0.31675  -0.19370  -0.21434   0.14308
-------------------------------------------------------------------------------


  Piezoelectric Stress Matrix: (Units=10**-11 C/N)

-------------------------------------------------------------------------------
  Indices      1         2         3         4         5         6    
-------------------------------------------------------------------------------
       x    -0.73412   0.91106  -0.01728   4.14130  -0.74993   0.26925
       y    -1.46720   1.42108   1.62261  -2.92119   2.82738   1.32316
       z    -0.89155  -0.20912  -0.22121  -1.51420  -0.88301   0.51934
-------------------------------------------------------------------------------


  Static dielectric constant tensor : 

-------------------------------------------------------------------------------
              x         y         z
-------------------------------------------------------------------------------
       x     4.06788   0.00328  -0.08370
       y     0.00328   4.17283  -0.01040
       z    -0.08370  -0.01040   3.17209
--------------------------------------------------------------------------------

  High frequency dielectric constant tensor : 

-------------------------------------------------------------------------------
              x         y         z
-------------------------------------------------------------------------------
       x     1.68123   0.00123  -0.00046
       y     0.00123   1.68903  -0.00087
       z    -0.00046  -0.00087   1.62207
-------------------------------------------------------------------------------

  Static refractive indices : 

-------------------------------------------------------------------------------
    1 =    1.77883      2 =    2.01877      3 =    2.04282
-------------------------------------------------------------------------------

  High frequency refractive indices : 

-------------------------------------------------------------------------------
    1 =    1.27360      2 =    1.29655      3 =    1.29971
-------------------------------------------------------------------------------


  Time to end of optimisation =      13.4943 seconds


  Peak dynamic memory used =       5.01 MB 


  Timing analysis for GULP :

--------------------------------------------------------------------------------
  Task / Subroutine                                          Time (Seconds)
--------------------------------------------------------------------------------
  Calculation of reciprocal space energy and derivatives          0.7602
  Calculation of real space energy and derivatives                8.2099
  Calculation of three-body energy and derivatives                0.7709
  Calculation and manipulation of Hessian matrix                  4.0752
  Calculation of matrix inversion                                 0.0401
  Global summation overhead                                       0.0002
--------------------------------------------------------------------------------
  Total CPU time                                                 13.4943
--------------------------------------------------------------------------------


  Dump file written as c00149.vasp.grs
  CIF file written as c00149.vasp.cif


  Job Finished at 11:52.42  7th October    2025                               

