********************************************************************************
*                       GENERAL UTILITY LATTICE PROGRAM                        *
*                                 Julian Gale                                  *
*                       Curtin Institute for Computation                       *
*                    School of Molecular and Life Sciences                     *
*                    Curtin University, Western Australia                      *
********************************************************************************
* Version = 6.1.2 * Last modified =   3rd November 2022                        *
********************************************************************************
*  optimise     - perform optimisation run                                     *
*  conp         - constant pressure calculation                                *
*  property     - calculate properties for final geometry                      *
********************************************************************************

  Job Started  at 11:52.03  7th October    2025                               

  Number of CPUs =     1


  Total number of configurations input =      1

********************************************************************************
*  Input for Configuration =   1 : c00147.vasp                                 *
********************************************************************************

  Formula = Ge3Si21O48                                                  

  Number of irreducible atoms/shells =     120


  Total number atoms/shells =     120

  Dimensionality = 3               :  Bulk   



  Cartesian lattice vectors (Angstroms) :

       17.182800    0.000000    0.000000
        0.000000    7.513760    0.000000
        0.000000    0.000000   10.447700

  Cell parameters (Angstroms/Degrees):

  a =      17.1828    alpha =  90.0000
  b =       7.5138    beta  =  90.0000
  c =      10.4477    gamma =  90.0000

  Initial cell volume =        1348.875752 Angs**3

  Temperature of configuration =   0.00     K 

  Pressure of configuration =         0.000 GPa 

  Fractional coordinates of asymmetric unit :

--------------------------------------------------------------------------------
   No.  Atomic       x           y          z         Charge      Occupancy
        Label      (Frac)      (Frac)     (Frac)        (e)         (Frac)  
--------------------------------------------------------------------------------
      1 Ge    c    0.556730    0.000000    0.122130     4.00000    1.000000    
      2 Ge    c    0.160190 *  0.293910 *  0.273440 *   4.00000    1.000000    
      3 Ge    c    0.160660 *  0.294090 *  0.982560 *   4.00000    1.000000    
      4 Si    c    0.052090 *  0.000000 *  0.372270 *   4.00000    1.000000    
      5 Si    c    0.447910 *  0.000000 *  0.372270 *   4.00000    1.000000    
      6 Si    c    0.947910 *  0.000000 *  0.627730 *   4.00000    1.000000    
      7 Si    c    0.552090 *  0.000000 *  0.627730 *   4.00000    1.000000    
      8 Si    c    0.943270 *  0.000000 *  0.122130 *   4.00000    1.000000    
      9 Si    c    0.443270 *  0.000000 *  0.877870 *   4.00000    1.000000    
     10 Si    c    0.056730 *  0.000000 *  0.877870 *   4.00000    1.000000    
     11 Si    c    0.339810 *  0.706090 *  0.273440 *   4.00000    1.000000    
     12 Si    c    0.839810 *  0.293910 *  0.726560 *   4.00000    1.000000    
     13 Si    c    0.660190 *  0.706090 *  0.726560 *   4.00000    1.000000    
     14 Si    c    0.839810 *  0.706090 *  0.726560 *   4.00000    1.000000    
     15 Si    c    0.660190 *  0.293910 *  0.726560 *   4.00000    1.000000    
     16 Si    c    0.160190 *  0.706090 *  0.273440 *   4.00000    1.000000    
     17 Si    c    0.339810 *  0.293910 *  0.273440 *   4.00000    1.000000    
     18 Si    c    0.660660 *  0.294090 *  0.017440 *   4.00000    1.000000    
     19 Si    c    0.839340 *  0.705910 *  0.017440 *   4.00000    1.000000    
     20 Si    c    0.339340 *  0.294090 *  0.982560 *   4.00000    1.000000    
     21 Si    c    0.160660 *  0.705910 *  0.982560 *   4.00000    1.000000    
     22 Si    c    0.339340 *  0.705910 *  0.982560 *   4.00000    1.000000    
     23 Si    c    0.660660 *  0.705910 *  0.017440 *   4.00000    1.000000    
     24 Si    c    0.839340 *  0.294090 *  0.017440 *   4.00000    1.000000    
     25 O3    c    0.106570 *  0.174340 *  0.366200 *   1.33043    1.000000    
     26 O2    c    0.393430 *  0.825660 *  0.366200 *   0.87073    1.000000    
     27 O2    c    0.893430 *  0.174340 *  0.633800 *   0.87073    1.000000    
     28 O2    c    0.606570 *  0.825660 *  0.633800 *   0.87073    1.000000    
     29 O2    c    0.893430 *  0.825660 *  0.633800 *   0.87073    1.000000    
     30 O2    c    0.606570 *  0.174340 *  0.633800 *   0.87073    1.000000    
     31 O2    c    0.106570 *  0.825660 *  0.366200 *   0.87073    1.000000    
     32 O2    c    0.393430 *  0.174340 *  0.366200 *   0.87073    1.000000    
     33 O2    c    0.000000 *  0.000000 *  0.500000 *   0.87073    1.000000    
     34 O2    c    0.500000 *  0.000000 *  0.500000 *   0.87073    1.000000    
     35 O2    c    0.994520 *  0.000000 *  0.250840 *   0.87073    1.000000    
     36 O3    c    0.505480 *  0.000000 *  0.250840 *   1.33043    1.000000    
     37 O2    c    0.005480 *  0.000000 *  0.749160 *   0.87073    1.000000    
     38 O2    c    0.494520 *  0.000000 *  0.749160 *   0.87073    1.000000    
     39 O3    c    0.610230 *  0.175520 *  0.115390 *   1.33043    1.000000    
     40 O2    c    0.889770 *  0.824480 *  0.115390 *   0.87073    1.000000    
     41 O2    c    0.389770 *  0.175520 *  0.884610 *   0.87073    1.000000    
     42 O2    c    0.110230 *  0.824480 *  0.884610 *   0.87073    1.000000    
     43 O2    c    0.389770 *  0.824480 *  0.884610 *   0.87073    1.000000    
     44 O3    c    0.110230 *  0.175520 *  0.884610 *   1.33043    1.000000    
     45 O3    c    0.610230 *  0.824480 *  0.115390 *   1.33043    1.000000    
     46 O2    c    0.889770 *  0.175520 *  0.115390 *   0.87073    1.000000    
     47 O3    c    0.500000 *  0.000000 *  0.000000 *   1.33043    1.000000    
     48 O2    c    0.000000 *  0.000000 *  0.000000 *   0.87073    1.000000    
     49 O3    c    0.151750 *  0.500000 *  0.313330 *   1.33043    1.000000    
     50 O2    c    0.348250 *  0.500000 *  0.313330 *   0.87073    1.000000    
     51 O2    c    0.848250 *  0.500000 *  0.686670 *   0.87073    1.000000    
     52 O2    c    0.651750 *  0.500000 *  0.686670 *   0.87073    1.000000    
     53 O3    c    0.250000 *  0.234950 *  0.285720 *   1.33043    1.000000    
     54 O2    c    0.250000 *  0.765050 *  0.285720 *   0.87073    1.000000    
     55 O2    c    0.750000 *  0.234950 *  0.714280 *   0.87073    1.000000    
     56 O2    c    0.750000 *  0.765050 *  0.714280 *   0.87073    1.000000    
     57 O1    c    0.131410 *  0.268650 *  0.127790 *   1.73396    1.000000    
     58 O2    c    0.368590 *  0.731350 *  0.127790 *   0.87073    1.000000    
     59 O2    c    0.868590 *  0.268650 *  0.872210 *   0.87073    1.000000    
     60 O2    c    0.631410 *  0.731350 *  0.872210 *   0.87073    1.000000    
     61 O2    c    0.868590 *  0.731350 *  0.872210 *   0.87073    1.000000    
     62 O2    c    0.631410 *  0.268650 *  0.872210 *   0.87073    1.000000    
     63 O2    c    0.131410 *  0.731350 *  0.127790 *   0.87073    1.000000    
     64 O2    c    0.368590 *  0.268650 *  0.127790 *   0.87073    1.000000    
     65 O2    c    0.653920 *  0.500000 *  0.058200 *   0.87073    1.000000    
     66 O2    c    0.846080 *  0.500000 *  0.058200 *   0.87073    1.000000    
     67 O2    c    0.346080 *  0.500000 *  0.941800 *   0.87073    1.000000    
     68 O3    c    0.153920 *  0.500000 *  0.941800 *   1.33043    1.000000    
     69 O2    c    0.750000 *  0.231060 *  0.027050 *   0.87073    1.000000    
     70 O2    c    0.750000 *  0.768940 *  0.027050 *   0.87073    1.000000    
     71 O3    c    0.250000 *  0.231060 *  0.972950 *   1.33043    1.000000    
     72 O2    c    0.250000 *  0.768940 *  0.972950 *   0.87073    1.000000    
     73 O3    s    0.106570 *  0.174340 *  0.366200 *  -3.33043    1.000000    
     74 O2    s    0.393430 *  0.825660 *  0.366200 *  -2.87073    1.000000    
     75 O2    s    0.893430 *  0.174340 *  0.633800 *  -2.87073    1.000000    
     76 O2    s    0.606570 *  0.825660 *  0.633800 *  -2.87073    1.000000    
     77 O2    s    0.893430 *  0.825660 *  0.633800 *  -2.87073    1.000000    
     78 O2    s    0.606570 *  0.174340 *  0.633800 *  -2.87073    1.000000    
     79 O2    s    0.106570 *  0.825660 *  0.366200 *  -2.87073    1.000000    
     80 O2    s    0.393430 *  0.174340 *  0.366200 *  -2.87073    1.000000    
     81 O2    s    0.000000 *  0.000000 *  0.500000 *  -2.87073    1.000000    
     82 O2    s    0.500000 *  0.000000 *  0.500000 *  -2.87073    1.000000    
     83 O2    s    0.994520 *  0.000000 *  0.250840 *  -2.87073    1.000000    
     84 O3    s    0.505480 *  0.000000 *  0.250840 *  -3.33043    1.000000    
     85 O2    s    0.005480 *  0.000000 *  0.749160 *  -2.87073    1.000000    
     86 O2    s    0.494520 *  0.000000 *  0.749160 *  -2.87073    1.000000    
     87 O3    s    0.610230 *  0.175520 *  0.115390 *  -3.33043    1.000000    
     88 O2    s    0.889770 *  0.824480 *  0.115390 *  -2.87073    1.000000    
     89 O2    s    0.389770 *  0.175520 *  0.884610 *  -2.87073    1.000000    
     90 O2    s    0.110230 *  0.824480 *  0.884610 *  -2.87073    1.000000    
     91 O2    s    0.389770 *  0.824480 *  0.884610 *  -2.87073    1.000000    
     92 O3    s    0.110230 *  0.175520 *  0.884610 *  -3.33043    1.000000    
     93 O3    s    0.610230 *  0.824480 *  0.115390 *  -3.33043    1.000000    
     94 O2    s    0.889770 *  0.175520 *  0.115390 *  -2.87073    1.000000    
     95 O3    s    0.500000 *  0.000000 *  0.000000 *  -3.33043    1.000000    
     96 O2    s    0.000000 *  0.000000 *  0.000000 *  -2.87073    1.000000    
     97 O3    s    0.151750 *  0.500000 *  0.313330 *  -3.33043    1.000000    
     98 O2    s    0.348250 *  0.500000 *  0.313330 *  -2.87073    1.000000    
     99 O2    s    0.848250 *  0.500000 *  0.686670 *  -2.87073    1.000000    
    100 O2    s    0.651750 *  0.500000 *  0.686670 *  -2.87073    1.000000    
    101 O3    s    0.250000 *  0.234950 *  0.285720 *  -3.33043    1.000000    
    102 O2    s    0.250000 *  0.765050 *  0.285720 *  -2.87073    1.000000    
    103 O2    s    0.750000 *  0.234950 *  0.714280 *  -2.87073    1.000000    
    104 O2    s    0.750000 *  0.765050 *  0.714280 *  -2.87073    1.000000    
    105 O1    s    0.131410 *  0.268650 *  0.127790 *  -3.73396    1.000000    
    106 O2    s    0.368590 *  0.731350 *  0.127790 *  -2.87073    1.000000    
    107 O2    s    0.868590 *  0.268650 *  0.872210 *  -2.87073    1.000000    
    108 O2    s    0.631410 *  0.731350 *  0.872210 *  -2.87073    1.000000    
    109 O2    s    0.868590 *  0.731350 *  0.872210 *  -2.87073    1.000000    
    110 O2    s    0.631410 *  0.268650 *  0.872210 *  -2.87073    1.000000    
    111 O2    s    0.131410 *  0.731350 *  0.127790 *  -2.87073    1.000000    
    112 O2    s    0.368590 *  0.268650 *  0.127790 *  -2.87073    1.000000    
    113 O2    s    0.653920 *  0.500000 *  0.058200 *  -2.87073    1.000000    
    114 O2    s    0.846080 *  0.500000 *  0.058200 *  -2.87073    1.000000    
    115 O2    s    0.346080 *  0.500000 *  0.941800 *  -2.87073    1.000000    
    116 O3    s    0.153920 *  0.500000 *  0.941800 *  -3.33043    1.000000    
    117 O2    s    0.750000 *  0.231060 *  0.027050 *  -2.87073    1.000000    
    118 O2    s    0.750000 *  0.768940 *  0.027050 *  -2.87073    1.000000    
    119 O3    s    0.250000 *  0.231060 *  0.972950 *  -3.33043    1.000000    
    120 O2    s    0.250000 *  0.768940 *  0.972950 *  -2.87073    1.000000    
--------------------------------------------------------------------------------



********************************************************************************
*  General input information                                                   *
********************************************************************************

  Species output for all configurations : 

--------------------------------------------------------------------------------
  Species    Type    Atomic    Atomic    Charge       Radii (Angs)     Library
                     Number     Mass       (e)     Cova   Ionic  VDW   Symbol
--------------------------------------------------------------------------------
    Ge       Core       32      72.61   4.000000   1.170  0.000  1.750 Ge       
    Si       Core       14      28.09   4.000000   1.200  0.000  2.100 Si       
    O1       Core        8      16.00   1.733957   0.730  0.000  1.360 O1       
    O2       Core        8      16.00   0.870733   0.730  0.000  1.360 O2       
    O3       Core        8      16.00   1.330431   0.730  0.000  1.360 O3       
    O1       Shell       8       0.00  -3.733957   0.730  0.000  0.000 O1       
    O2       Shell       8       0.00  -2.870733   0.730  0.000  0.000 O2       
    O3       Shell       8       0.00  -3.330431   0.730  0.000  0.000 O3       
--------------------------------------------------------------------------------


  Lattice summation method               =    Ewald          (3-D)
                                         =    Parry          (2-D)
                                         =    Saunders et al (1-D)
  Accuracy factor for lattice sums       =   12.000


  Analytic derivatives to be used

  Time limit = Infinity

  Maximum range for interatomic potentials =    100000.000000 Angstroms

  General interatomic potentials :

--------------------------------------------------------------------------------
Atom  Types   Potential      Parameter       Value         Units   Cutoffs(Ang)
  1     2                                                            Min /  Max 
--------------------------------------------------------------------------------
Si   c O1   s Buckingham    Buckingham A     1315.2478    eV        0.000 16.000
                            Buckingham rho  0.31775900    Ang       
                            Buckingham C     10.141118    eV*Ang^6  
--------------------------------------------------------------------------------
Si   c O2   s Buckingham    Buckingham A     1315.2478    eV        0.000 16.000
                            Buckingham rho  0.31775900    Ang       
                            Buckingham C     10.141118    eV*Ang^6  
--------------------------------------------------------------------------------
Si   c O3   s Buckingham    Buckingham A     1315.2478    eV        0.000 16.000
                            Buckingham rho  0.31775900    Ang       
                            Buckingham C     10.141118    eV*Ang^6  
--------------------------------------------------------------------------------
Ge   c O1   s Buckingham    Buckingham A     1497.3996    eV        0.000 16.000
                            Buckingham rho  0.32564600    Ang       
                            Buckingham C     16.808599    eV*Ang^6  
--------------------------------------------------------------------------------
Ge   c O2   s Buckingham    Buckingham A     1497.3996    eV        0.000 16.000
                            Buckingham rho  0.32564600    Ang       
                            Buckingham C     16.808599    eV*Ang^6  
--------------------------------------------------------------------------------
Ge   c O3   s Buckingham    Buckingham A     1497.3996    eV        0.000 16.000
                            Buckingham rho  0.32564600    Ang       
                            Buckingham C     16.808599    eV*Ang^6  
--------------------------------------------------------------------------------
O1   s O1   s Buckingham    Buckingham A     22764.000    eV        0.000 16.000
                            Buckingham rho  0.14900000    Ang       
                            Buckingham C     10.937044    eV*Ang^6  
--------------------------------------------------------------------------------
O1   s O2   s Buckingham    Buckingham A     22764.000    eV        0.000 16.000
                            Buckingham rho  0.14900000    Ang       
                            Buckingham C     10.937044    eV*Ang^6  
--------------------------------------------------------------------------------
O1   s O3   s Buckingham    Buckingham A     22764.000    eV        0.000 16.000
                            Buckingham rho  0.14900000    Ang       
                            Buckingham C     10.937044    eV*Ang^6  
--------------------------------------------------------------------------------
O2   s O2   s Buckingham    Buckingham A     22764.000    eV        0.000 16.000
                            Buckingham rho  0.14900000    Ang       
                            Buckingham C     10.937044    eV*Ang^6  
--------------------------------------------------------------------------------
O2   s O3   s Buckingham    Buckingham A     22764.000    eV        0.000 16.000
                            Buckingham rho  0.14900000    Ang       
                            Buckingham C     10.937044    eV*Ang^6  
--------------------------------------------------------------------------------
O3   s O3   s Buckingham    Buckingham A     22764.000    eV        0.000 16.000
                            Buckingham rho  0.14900000    Ang       
                            Buckingham C     10.937044    eV*Ang^6  
--------------------------------------------------------------------------------
O1   c O1   s Spring (c-s)  Spring k 2       180.31577    eV*Ang^-2 0.000  0.800
                            Spring k 4       0.0000000    eV*Ang^-4 
--------------------------------------------------------------------------------
O2   c O2   s Spring (c-s)  Spring k 2       75.969800    eV*Ang^-2 0.000  0.800
                            Spring k 4       0.0000000    eV*Ang^-4 
--------------------------------------------------------------------------------
O3   c O3   s Spring (c-s)  Spring k 2       128.14270    eV*Ang^-2 0.000  0.800
                            Spring k 4       0.0000000    eV*Ang^-4 
--------------------------------------------------------------------------------

  General Three-body potentials :

--------------------------------------------------------------------------------
  Atoms       Potential      Parameter       Value         Units   Cutoffs(Ang)
  1 / 2 / 3                                                          Min /  Max 
--------------------------------------------------------------------------------
Si    core    Harmonic      Three-body cnst  1.2614000    eV*rad^-2 0.000  1.900
O1    shel                  Three-body angl  109.47000    degrees   0.000  1.900
O1    shel                  Three-body k4    0.0000000    eV*rad^-4 0.000  3.500
                            Three-body k3    0.0000000    eV*rad^-3 
--------------------------------------------------------------------------------
Si    core    Harmonic      Three-body cnst  1.2614000    eV*rad^-2 0.000  1.900
O1    shel                  Three-body angl  109.47000    degrees   0.000  1.900
õ(1   shel                  Three-body k4    0.0000000    eV*rad^-4 0.000  3.500
                            Three-body k3    0.0000000    eV*rad^-3 
--------------------------------------------------------------------------------
Si    core    Harmonic      Three-body cnst  1.2614000    eV*rad^-2 0.000  1.900
õ(1   shel                  Three-body angl  109.47000    degrees   0.000  1.900
õ(1   shel                  Three-body k4    0.0000000    eV*rad^-4 0.000  3.500
                            Three-body k3    0.0000000    eV*rad^-3 
--------------------------------------------------------------------------------
Si    core    Harmonic      Three-body cnst  1.2614000    eV*rad^-2 0.000  1.900
O1    shel                  Three-body angl  109.47000    degrees   0.000  1.900
O2    shel                  Three-body k4    0.0000000    eV*rad^-4 0.000  3.500
                            Three-body k3    0.0000000    eV*rad^-3 
--------------------------------------------------------------------------------
Si    core    Harmonic      Three-body cnst  1.2614000    eV*rad^-2 0.000  1.900
O1    shel                  Three-body angl  109.47000    degrees   0.000  1.900
õ(2   shel                  Three-body k4    0.0000000    eV*rad^-4 0.000  3.500
                            Three-body k3    0.0000000    eV*rad^-3 
--------------------------------------------------------------------------------
Si    core    Harmonic      Three-body cnst  1.2614000    eV*rad^-2 0.000  1.900
O2    shel                  Three-body angl  109.47000    degrees   0.000  1.900
õ(1   shel                  Three-body k4    0.0000000    eV*rad^-4 0.000  3.500
                            Three-body k3    0.0000000    eV*rad^-3 
--------------------------------------------------------------------------------
Si    core    Harmonic      Three-body cnst  1.2614000    eV*rad^-2 0.000  1.900
õ(1   shel                  Three-body angl  109.47000    degrees   0.000  1.900
õ(2   shel                  Three-body k4    0.0000000    eV*rad^-4 0.000  3.500
                            Three-body k3    0.0000000    eV*rad^-3 
--------------------------------------------------------------------------------
Si    core    Harmonic      Three-body cnst  1.2614000    eV*rad^-2 0.000  1.900
O2    shel                  Three-body angl  109.47000    degrees   0.000  1.900
O2    shel                  Three-body k4    0.0000000    eV*rad^-4 0.000  3.500
                            Three-body k3    0.0000000    eV*rad^-3 
--------------------------------------------------------------------------------
Si    core    Harmonic      Three-body cnst  1.2614000    eV*rad^-2 0.000  1.900
O2    shel                  Three-body angl  109.47000    degrees   0.000  1.900
õ(2   shel                  Three-body k4    0.0000000    eV*rad^-4 0.000  3.500
                            Three-body k3    0.0000000    eV*rad^-3 
--------------------------------------------------------------------------------
Si    core    Harmonic      Three-body cnst  1.2614000    eV*rad^-2 0.000  1.900
õ(2   shel                  Three-body angl  109.47000    degrees   0.000  1.900
õ(2   shel                  Three-body k4    0.0000000    eV*rad^-4 0.000  3.500
                            Three-body k3    0.0000000    eV*rad^-3 
--------------------------------------------------------------------------------

********************************************************************************
*  Output for configuration   1 : c00147.vasp                                  *
********************************************************************************


  Components of energy : 

--------------------------------------------------------------------------------
  Interatomic potentials     =         760.34908818 eV    
  Three-body potentials      =           0.01340780 eV    
  Monopole - monopole (real) =       -2676.00317478 eV    
  Monopole - monopole (recip)=       -1115.35404472 eV    
  Monopole - monopole (total)=       -3791.35721950 eV    
--------------------------------------------------------------------------------
  Total lattice energy       =       -3030.99472352 eV    
--------------------------------------------------------------------------------
  Total lattice energy       =         -292444.6578 kJ/(mole unit cells)
--------------------------------------------------------------------------------


  Number of variables =      363

  Maximum number of calculations  =          1000
  Maximum Hessian update interval =            10
  Maximum step size               =   0.100000000
  Maximum parameter tolerance     =   0.000010000
  Maximum function  tolerance     =   0.000010000
  Maximum gradient  tolerance     =   0.001000000
  Maximum gradient  component     =   0.010000000

  Symmetry not applied to optimisation

  Cell parameters to be optimised using strains

  Newton-Raphson optimiser to be used

  BFGS hessian update to be used

  Lower half triangular hessian to be used

  Minimiser to switch to RFO
  When gradient norm is less than     0.050000

  Dumpfile to be written after every cycle

  Start of bulk optimisation :

  Cycle:      0 Energy:     -3030.994724  Gnorm:      4.414155  CPU:    0.126
  ** Hessian calculated **
  Cycle:      1 Energy:     -3061.785990  Gnorm:      0.974267  CPU:    0.277
  ** Hessian calculated **
  Cycle:      2 Energy:     -3064.314313  Gnorm:      0.554512  CPU:    0.501
  Cycle:      3 Energy:     -3065.128969  Gnorm:      0.358525  CPU:    0.608
  Cycle:      4 Energy:     -3065.767752  Gnorm:      0.276572  CPU:    0.737
  Cycle:      5 Energy:     -3066.362104  Gnorm:      0.216718  CPU:    0.864
  Cycle:      6 Energy:     -3066.828485  Gnorm:      0.178985  CPU:    0.989
  Cycle:      7 Energy:     -3067.036433  Gnorm:      0.127630  CPU:    1.097
  Cycle:      8 Energy:     -3067.148873  Gnorm:      0.094729  CPU:    1.204
  Cycle:      9 Energy:     -3067.200144  Gnorm:      0.069644  CPU:    1.313
  Cycle:     10 Energy:     -3067.242118  Gnorm:      0.060987  CPU:    1.461
  Cycle:     11 Energy:     -3067.279955  Gnorm:      0.063516  CPU:    1.602
  ** Hessian calculated **
  Cycle:     12 Energy:     -3067.309182  Gnorm:      0.061770  CPU:    1.849
  Cycle:     13 Energy:     -3067.356448  Gnorm:      0.058822  CPU:    2.012
  Cycle:     14 Energy:     -3067.410837  Gnorm:      0.055207  CPU:    2.154
  Cycle:     15 Energy:     -3067.483059  Gnorm:      0.050034  CPU:    2.319
  Cycle:     16 Energy:     -3067.531579  Gnorm:      0.046762  CPU:    2.459
  ** Hessian has wrong structure
  ** Imaginary eigenvectors =   3
  Cycle:     17 Energy:     -3067.548423  Gnorm:      0.089698  CPU:    2.755
  ** Hessian has wrong structure
  ** Imaginary eigenvectors =   2
  ** Hessian has wrong structure
  ** Imaginary eigenvectors =   2
  Cycle:     18 Energy:     -3067.593075  Gnorm:      0.098240  CPU:    3.375
  ** Hessian has required structure
  Cycle:     19 Energy:     -3067.843010  Gnorm:      0.060246  CPU:    3.690
  ** Hessian has required structure
  Cycle:     20 Energy:     -3067.925228  Gnorm:      0.037798  CPU:    3.878
  ** Hessian has required structure
  Cycle:     21 Energy:     -3067.977157  Gnorm:      0.028035  CPU:    4.095
  ** Hessian has required structure
  Cycle:     22 Energy:     -3068.003577  Gnorm:      0.021892  CPU:    4.308
  ** Hessian has required structure
  Cycle:     23 Energy:     -3068.023697  Gnorm:      0.017918  CPU:    4.523
  ** Hessian has required structure
  Cycle:     24 Energy:     -3068.039201  Gnorm:      0.018802  CPU:    4.712
  ** Hessian has required structure
  Cycle:     25 Energy:     -3068.051093  Gnorm:      0.022319  CPU:    4.925
  ** Hessian has required structure
  Cycle:     26 Energy:     -3068.062326  Gnorm:      0.024869  CPU:    5.114
  ** Hessian has required structure
  Cycle:     27 Energy:     -3068.070714  Gnorm:      0.027180  CPU:    5.306
  ** Hessian has required structure
  Cycle:     28 Energy:     -3068.077651  Gnorm:      0.020123  CPU:    5.496
  ** Hessian has required structure
  Cycle:     29 Energy:     -3068.089376  Gnorm:      0.019305  CPU:    5.810
  ** Hessian has required structure
  Cycle:     30 Energy:     -3068.104666  Gnorm:      0.020493  CPU:    6.020
  ** Hessian has required structure
  Cycle:     31 Energy:     -3068.124481  Gnorm:      0.024493  CPU:    6.231
  ** Hessian has required structure
  Cycle:     32 Energy:     -3068.132449  Gnorm:      0.020611  CPU:    6.422
  ** Hessian has required structure
  Cycle:     33 Energy:     -3068.139397  Gnorm:      0.019515  CPU:    6.614
  ** Hessian has required structure
  Cycle:     34 Energy:     -3068.143946  Gnorm:      0.025882  CPU:    6.810
  ** Hessian has required structure
  Cycle:     35 Energy:     -3068.151534  Gnorm:      0.017915  CPU:    7.002
  ** Hessian has required structure
  Cycle:     36 Energy:     -3068.157753  Gnorm:      0.014854  CPU:    7.193
  ** Hessian has required structure
  Cycle:     37 Energy:     -3068.164714  Gnorm:      0.014674  CPU:    7.408
  ** Hessian has required structure
  Cycle:     38 Energy:     -3068.170626  Gnorm:      0.013867  CPU:    7.624
  ** Hessian has required structure
  Cycle:     39 Energy:     -3068.181496  Gnorm:      0.012916  CPU:    7.936
  ** Hessian has required structure
  Cycle:     40 Energy:     -3068.189502  Gnorm:      0.013593  CPU:    8.130
  ** Hessian has required structure
  Cycle:     41 Energy:     -3068.195180  Gnorm:      0.007942  CPU:    8.321
  ** Hessian has required structure
  Cycle:     42 Energy:     -3068.197929  Gnorm:      0.009358  CPU:    8.514
  ** Hessian has required structure
  Cycle:     43 Energy:     -3068.200027  Gnorm:      0.004827  CPU:    8.708
  ** Hessian has required structure
  Cycle:     44 Energy:     -3068.200826  Gnorm:      0.003402  CPU:    8.923
  ** Hessian has required structure
  Cycle:     45 Energy:     -3068.201127  Gnorm:      0.002190  CPU:    9.115
  ** Hessian has required structure
  Cycle:     46 Energy:     -3068.201288  Gnorm:      0.001001  CPU:    9.307
  ** Hessian has required structure
  Cycle:     47 Energy:     -3068.201370  Gnorm:      0.001022  CPU:    9.523
  ** Hessian has required structure
  Cycle:     48 Energy:     -3068.201422  Gnorm:      0.000921  CPU:    9.739
  ** Hessian has required structure
  Cycle:     49 Energy:     -3068.201522  Gnorm:      0.000915  CPU:   10.049
  ** Hessian has required structure
  Cycle:     50 Energy:     -3068.201694  Gnorm:      0.001121  CPU:   10.278
  ** Hessian has required structure
  Cycle:     51 Energy:     -3068.201888  Gnorm:      0.001726  CPU:   10.487
  ** Hessian has required structure
  Cycle:     52 Energy:     -3068.202106  Gnorm:      0.003108  CPU:   10.693
  ** Hessian has required structure
  Cycle:     53 Energy:     -3068.202274  Gnorm:      0.003305  CPU:   10.899
  ** Hessian has required structure
  Cycle:     54 Energy:     -3068.202530  Gnorm:      0.002516  CPU:   11.105
  ** Hessian has required structure
  Cycle:     55 Energy:     -3068.202766  Gnorm:      0.002863  CPU:   11.312
  ** Hessian has required structure
  Cycle:     56 Energy:     -3068.203134  Gnorm:      0.001291  CPU:   11.523
  ** Hessian has required structure
  Cycle:     57 Energy:     -3068.203259  Gnorm:      0.001819  CPU:   11.712
  ** Hessian has required structure
  Cycle:     58 Energy:     -3068.203400  Gnorm:      0.000985  CPU:   11.924
  ** Hessian has required structure
  Cycle:     59 Energy:     -3068.203457  Gnorm:      0.000653  CPU:   12.209
  ** Hessian has required structure
  Cycle:     60 Energy:     -3068.203488  Gnorm:      0.000425  CPU:   12.419
  ** Hessian has required structure
  Cycle:     61 Energy:     -3068.203495  Gnorm:      0.000332  CPU:   12.586
  ** Hessian has required structure
  Cycle:     62 Energy:     -3068.203500  Gnorm:      0.000271  CPU:   12.753
  ** Hessian has required structure
  Cycle:     63 Energy:     -3068.203504  Gnorm:      0.000207  CPU:   12.942
  ** Hessian has required structure
  Cycle:     64 Energy:     -3068.203509  Gnorm:      0.000126  CPU:   13.155
  ** Hessian has required structure
  Cycle:     65 Energy:     -3068.203510  Gnorm:      0.000090  CPU:   13.323
  ** Hessian has required structure


  **** Optimisation achieved ****


  Final energy =   -3068.20350997 eV      
  Final Gnorm  =       0.00006361

  Components of energy : 

--------------------------------------------------------------------------------
  Interatomic potentials     =         816.74797149 eV    
  Three-body potentials      =           0.22737075 eV    
  Monopole - monopole (real) =       -2205.58690110 eV    
  Monopole - monopole (recip)=       -1679.59195110 eV    
  Monopole - monopole (total)=       -3885.17885221 eV    
--------------------------------------------------------------------------------
  Total lattice energy       =       -3068.20350997 eV    
--------------------------------------------------------------------------------
  Total lattice energy       =         -296034.7369 kJ/(mole unit cells)
--------------------------------------------------------------------------------

  Final fractional coordinates of atoms :

--------------------------------------------------------------------------------
   No.  Atomic        x           y          z          Radius
        Label       (Frac)      (Frac)     (Frac)       (Angs) 
--------------------------------------------------------------------------------
     1  Ge    c     0.556730    0.000000    0.122130    0.000000
     2  Ge    c     0.160321    0.270674    0.275864    0.000000
     3  Ge    c     0.162772    0.264113    0.963153    0.000000
     4  Si    c     0.040202    0.989655    0.359183    0.000000
     5  Si    c     0.445291    0.007889    0.365920    0.000000
     6  Si    c     0.937182    0.977821    0.610151    0.000000
     7  Si    c     0.536862    0.001539    0.632765    0.000000
     8  Si    c     0.944990    0.993970    0.095229    0.000000
     9  Si    c     0.437741    0.995877    0.886511    0.000000
    10  Si    c     0.051375    0.983466    0.854794    0.000000
    11  Si    c     0.326728    0.721145    0.272684    0.000000
    12  Si    c     0.823920    0.271984    0.705495    0.000000
    13  Si    c     0.655115    0.712268    0.716795    0.000000
    14  Si    c     0.836335    0.674761    0.701768    0.000000
    15  Si    c     0.643193    0.305840    0.718036    0.000000
    16  Si    c     0.144478    0.686647    0.267515    0.000000
    17  Si    c     0.340871    0.320052    0.278996    0.000000
    18  Si    c     0.648700    0.319376    0.017645    0.000000
    19  Si    c     0.851216    0.673972    0.001769    0.000000
    20  Si    c     0.343168    0.319412    0.972131    0.000000
    21  Si    c     0.141965    0.672265    0.969441    0.000000
    22  Si    c     0.324903    0.713265    0.971552    0.000000
    23  Si    c     0.669597    0.718616    0.015536    0.000000
    24  Si    c     0.830177    0.278218    0.007335    0.000000
    25  O3    c     0.102873    0.144505    0.374077    0.000000
    26  O2    c     0.375513    0.865082    0.353609    0.000000
    27  O2    c     0.874304    0.136459    0.621458    0.000000
    28  O2    c     0.600381    0.842571    0.633095    0.000000
    29  O2    c     0.891135    0.792777    0.612713    0.000000
    30  O2    c     0.582198    0.187842    0.636017    0.000000
    31  O2    c     0.087411    0.805050    0.354430    0.000000
    32  O2    c     0.410269    0.203095    0.341908    0.000000
    33  O2    c     0.979877    0.990374    0.475246    0.000000
    34  O2    c     0.482515    0.993594    0.507146    0.000000
    35  O2    c     0.990587    0.020736    0.228371    0.000000
    36  O3    c     0.514627    0.970684    0.268218    0.000000
    37  O2    c     0.002080    0.988270    0.723189    0.000000
    38  O2    c     0.478394    0.983206    0.750361    0.000000
    39  O3    c     0.590958    0.212649    0.106445    0.000000
    40  O2    c     0.912633    0.794591    0.081519    0.000000
    41  O2    c     0.411209    0.197315    0.913420    0.000000
    42  O2    c     0.086577    0.787922    0.875647    0.000000
    43  O2    c     0.363126    0.863478    0.884845    0.000000
    44  O3    c     0.120448    0.124020    0.851384    0.000000
    45  O3    c     0.635985    0.858099    0.113030    0.000000
    46  O2    c     0.873198    0.132678    0.093758    0.000000
    47  O3    c     0.494384    0.932416    0.000306    0.000000
    48  O2    c     0.000255    0.044555    0.977266    0.000000
    49  O3    c     0.126399    0.484673    0.286706    0.000000
    50  O2    c     0.359447    0.526225    0.305662    0.000000
    51  O2    c     0.851280    0.469425    0.671430    0.000000
    52  O2    c     0.626222    0.511955    0.694000    0.000000
    53  O3    c     0.256870    0.269149    0.333359    0.000000
    54  O2    c     0.234870    0.731993    0.308081    0.000000
    55  O2    c     0.731072    0.254697    0.673420    0.000000
    56  O2    c     0.745556    0.726142    0.673303    0.000000
    57  O1    c     0.156524    0.195551    0.119731    0.000000
    58  O2    c     0.336219    0.765123    0.121877    0.000000
    59  O2    c     0.837596    0.230269    0.856277    0.000000
    60  O2    c     0.650485    0.769945    0.866565    0.000000
    61  O2    c     0.860237    0.715310    0.850266    0.000000
    62  O2    c     0.631962    0.261909    0.868787    0.000000
    63  O2    c     0.130078    0.737020    0.117056    0.000000
    64  O2    c     0.336604    0.285629    0.125293    0.000000
    65  O2    c     0.632969    0.525883    0.039235    0.000000
    66  O2    c     0.869690    0.469628    0.031876    0.000000
    67  O2    c     0.365457    0.523284    0.945728    0.000000
    68  O3    c     0.119840    0.470992    0.953647    0.000000
    69  O2    c     0.739953    0.277986    0.050174    0.000000
    70  O2    c     0.762882    0.716116    0.042187    0.000000
    71  O3    c     0.259040    0.275485    0.912034    0.000000
    72  O2    c     0.233166    0.700821    0.933570    0.000000
    73  O3    s     0.101288    0.139284    0.364503    0.000000
    74  O2    s     0.377510    0.864335    0.345807    0.000000
    75  O2    s     0.875405    0.134601    0.629697    0.000000
    76  O2    s     0.599708    0.845033    0.642304    0.000000
    77  O2    s     0.889983    0.799531    0.622338    0.000000
    78  O2    s     0.584144    0.181059    0.644754    0.000000
    79  O2    s     0.088637    0.811610    0.345440    0.000000
    80  O2    s     0.406371    0.195195    0.337536    0.000000
    81  O2    s     0.981862    0.988852    0.477660    0.000000
    82  O2    s     0.484613    0.996233    0.505495    0.000000
    83  O2    s     0.990746    0.014111    0.227147    0.000000
    84  O3    s     0.511116    0.977190    0.265430    0.000000
    85  O2    s     0.000451    0.986551    0.725699    0.000000
    86  O2    s     0.480349    0.986834    0.753001    0.000000
    87  O3    s     0.594200    0.206628    0.098462    0.000000
    88  O2    s     0.909354    0.802324    0.074219    0.000000
    89  O2    s     0.406578    0.189586    0.917077    0.000000
    90  O2    s     0.088863    0.795990    0.883692    0.000000
    91  O2    s     0.366650    0.860800    0.894610    0.000000
    92  O3    s     0.116849    0.121234    0.860954    0.000000
    93  O3    s     0.633137    0.854568    0.103212    0.000000
    94  O2    s     0.876084    0.134137    0.084060    0.000000
    95  O3    s     0.493750    0.944724    0.998768    0.000000
    96  O2    s     0.999623    0.032749    0.977308    0.000000
    97  O3    s     0.131084    0.488695    0.283793    0.000000
    98  O2    s     0.354082    0.525263    0.299418    0.000000
    99  O2    s     0.846743    0.470614    0.678318    0.000000
   100  O2    s     0.631135    0.511055    0.699001    0.000000
   101  O3    s     0.257790    0.274350    0.323422    0.000000
   102  O2    s     0.235403    0.726145    0.300081    0.000000
   103  O2    s     0.731738    0.262000    0.681567    0.000000
   104  O2    s     0.745572    0.719102    0.681009    0.000000
   105  O1    s     0.157289    0.206485    0.119670    0.000000
   106  O2    s     0.334006    0.754987    0.122035    0.000000
   107  O2    s     0.835323    0.239847    0.856148    0.000000
   108  O2    s     0.652925    0.758682    0.866077    0.000000
   109  O2    s     0.856762    0.706732    0.850609    0.000000
   110  O2    s     0.634847    0.272285    0.868228    0.000000
   111  O2    s     0.132767    0.725378    0.117231    0.000000
   112  O2    s     0.337725    0.292918    0.125458    0.000000
   113  O2    s     0.638521    0.523798    0.034408    0.000000
   114  O2    s     0.863652    0.471435    0.026140    0.000000
   115  O2    s     0.358987    0.521930    0.951131    0.000000
   116  O3    s     0.125536    0.475620    0.956028    0.000000
   117  O2    s     0.740088    0.282491    0.041956    0.000000
   118  O2    s     0.762628    0.711525    0.034641    0.000000
   119  O3    s     0.260108    0.279149    0.922344    0.000000
   120  O2    s     0.233578    0.699075    0.941590    0.000000
--------------------------------------------------------------------------------

  Final Cartesian lattice vectors (Angstroms) :

       16.988330    0.027922   -0.146490
        0.011556    7.599810   -0.023195
       -0.085019   -0.029568   10.356301


  Final cell parameters and derivatives :

--------------------------------------------------------------------------------
       a           16.988985 Angstrom     dE/de1(xx)     0.003795 eV/strain
       b            7.599854 Angstrom     dE/de2(yy)     0.002211 eV/strain
       c           10.356692 Angstrom     dE/de3(zz)     0.006340 eV/strain
       alpha       90.339159 Degrees      dE/de4(yz)     0.000127 eV/strain
       beta        90.964667 Degrees      dE/de5(xz)     0.000094 eV/strain
       gamma       89.817210 Degrees      dE/de6(xy)    -0.000703 eV/strain
--------------------------------------------------------------------------------

  Primitive cell volume =          1336.972625 Angs**3

  Density of cell =      1.957098 g/cm**3

  Non-primitive cell volume =          1336.972625 Angs**3


  Final internal derivatives :

--------------------------------------------------------------------------------
   No.  Atomic          a             b             c           Radius
        Label          (eV)          (eV)          (eV)        (eV/Angs)
--------------------------------------------------------------------------------
      1 Ge    c       0.000000      0.000000      0.000000      0.000000
      2 Ge    c      -0.000327      0.000010     -0.000086      0.000000
      3 Ge    c       0.000089      0.000004      0.000023      0.000000
      4 Si    c       0.000108      0.000026     -0.000053      0.000000
      5 Si    c      -0.003191      0.000260     -0.000198      0.000000
      6 Si    c       0.000047     -0.000059      0.000102      0.000000
      7 Si    c       0.008782      0.000641     -0.000640      0.000000
      8 Si    c      -0.000264     -0.000087     -0.000174      0.000000
      9 Si    c      -0.008561      0.000184      0.001839      0.000000
     10 Si    c       0.000250      0.000038      0.000082      0.000000
     11 Si    c      -0.000052     -0.000371      0.000277      0.000000
     12 Si    c      -0.000034      0.000015     -0.000049      0.000000
     13 Si    c       0.000025     -0.000324     -0.000549      0.000000
     14 Si    c       0.000051     -0.000035     -0.000042      0.000000
     15 Si    c      -0.000933     -0.000068     -0.000079      0.000000
     16 Si    c      -0.000008     -0.000057     -0.000053      0.000000
     17 Si    c       0.000502      0.000107     -0.000024      0.000000
     18 Si    c      -0.000856     -0.000083      0.000077      0.000000
     19 Si    c       0.000228     -0.000002      0.000084      0.000000
     20 Si    c       0.000381      0.000285     -0.000087      0.000000
     21 Si    c       0.000035     -0.000068     -0.000071      0.000000
     22 Si    c       0.001189      0.000093     -0.000524      0.000000
     23 Si    c      -0.000498     -0.000015      0.000625      0.000000
     24 Si    c      -0.000025      0.000016      0.000048      0.000000
     25 O3    c       0.000096      0.000121      0.000015      0.000000
     26 O2    c      -0.000411     -0.000205      0.000350      0.000000
     27 O2    c      -0.000139      0.000086      0.000007      0.000000
     28 O2    c       0.000769     -0.000749     -0.000397      0.000000
     29 O2    c       0.000025      0.000008     -0.000011      0.000000
     30 O2    c      -0.000452     -0.000082      0.000052      0.000000
     31 O2    c       0.000014     -0.000075      0.000032      0.000000
     32 O2    c      -0.000210      0.000445     -0.000316      0.000000
     33 O2    c       0.000060      0.000002      0.000011      0.000000
     34 O2    c      -0.004775     -0.000307     -0.001411      0.000000
     35 O2    c      -0.000021      0.000000      0.000332      0.000000
     36 O3    c       0.009319     -0.000944     -0.001199      0.000000
     37 O2    c      -0.000525      0.000005     -0.000342      0.000000
     38 O2    c      -0.004323     -0.000107     -0.004013      0.000000
     39 O3    c      -0.000200      0.000115     -0.000293      0.000000
     40 O2    c      -0.000047     -0.000029     -0.000002      0.000000
     41 O2    c       0.000100      0.002659      0.001122      0.000000
     42 O2    c       0.000060     -0.000099     -0.000119      0.000000
     43 O2    c       0.000480     -0.000074     -0.000112      0.000000
     44 O3    c      -0.000019     -0.000002     -0.000080      0.000000
     45 O3    c       0.001769     -0.000989     -0.000083      0.000000
     46 O2    c      -0.000156      0.000091      0.000019      0.000000
     47 O3    c       0.004159     -0.004723      0.000174      0.000000
     48 O2    c       0.000086      0.000106      0.000031      0.000000
     49 O3    c      -0.000052      0.000045     -0.000003      0.000000
     50 O2    c       0.000094     -0.000035      0.000026      0.000000
     51 O2    c       0.000010      0.000010     -0.000006      0.000000
     52 O2    c      -0.000129     -0.000010     -0.000047      0.000000
     53 O3    c       0.000512      0.000091      0.000077      0.000000
     54 O2    c      -0.000308     -0.000012      0.000119      0.000000
     55 O2    c      -0.000036      0.000009     -0.000006      0.000000
     56 O2    c       0.000235      0.000001     -0.000057      0.000000
     57 O1    c      -0.000036      0.000004     -0.000059      0.000000
     58 O2    c       0.000176     -0.000025     -0.000464      0.000000
     59 O2    c      -0.000007      0.000003      0.000034      0.000000
     60 O2    c       0.000673     -0.000161      0.000103      0.000000
     61 O2    c       0.000038      0.000018     -0.000054      0.000000
     62 O2    c      -0.000238      0.000081      0.000003      0.000000
     63 O2    c      -0.000111      0.000055      0.000214      0.000000
     64 O2    c      -0.000030      0.000033      0.000450      0.000000
     65 O2    c      -0.000210     -0.000069      0.000046      0.000000
     66 O2    c       0.000026     -0.000018      0.000008      0.000000
     67 O2    c       0.000197      0.000053     -0.000038      0.000000
     68 O3    c      -0.000066      0.000027     -0.000006      0.000000
     69 O2    c      -0.000032      0.000009      0.000018      0.000000
     70 O2    c      -0.000203     -0.000005      0.000063      0.000000
     71 O3    c      -0.000066     -0.000069     -0.000079      0.000000
     72 O2    c       0.000450      0.000047     -0.000096      0.000000
     73 O3    s       0.000027     -0.000003      0.000040      0.000000
     74 O2    s      -0.001700     -0.000009     -0.000402      0.000000
     75 O2    s      -0.000005     -0.000031     -0.000020      0.000000
     76 O2    s       0.003318     -0.000345      0.000586      0.000000
     77 O2    s      -0.000039     -0.000003      0.000020      0.000000
     78 O2    s       0.002255      0.000701     -0.000156      0.000000
     79 O2    s       0.000184     -0.000027      0.000043      0.000000
     80 O2    s      -0.001595      0.000311      0.000115      0.000000
     81 O2    s      -0.000043     -0.000004      0.000016      0.000000
     82 O2    s       0.000322      0.000445     -0.000136      0.000000
     83 O2    s      -0.000108      0.000012      0.000002      0.000000
     84 O3    s      -0.002885      0.000359      0.001262      0.000000
     85 O2    s       0.000024      0.000025      0.000005      0.000000
     86 O2    s       0.000275     -0.000281     -0.001582      0.000000
     87 O3    s       0.001197      0.000418      0.000466      0.000000
     88 O2    s      -0.000020     -0.000046     -0.000025      0.000000
     89 O2    s      -0.004662      0.001000     -0.000288      0.000000
     90 O2    s      -0.000027     -0.000030     -0.000060      0.000000
     91 O2    s      -0.004387     -0.000684      0.000304      0.000000
     92 O3    s       0.000121      0.000067     -0.000028      0.000000
     93 O3    s       0.001472      0.000266     -0.000011      0.000000
     94 O2    s      -0.000192      0.000005     -0.000013      0.000000
     95 O3    s       0.001945     -0.000103      0.001824      0.000000
     96 O2    s      -0.000016     -0.000042      0.000016      0.000000
     97 O3    s       0.000019      0.000000      0.000031      0.000000
     98 O2    s      -0.000048     -0.000155     -0.000008      0.000000
     99 O2    s      -0.000020      0.000005      0.000008      0.000000
    100 O2    s       0.000338      0.000143      0.000122      0.000000
    101 O3    s      -0.000015     -0.000155     -0.000078      0.000000
    102 O2    s      -0.000251      0.000094     -0.000006      0.000000
    103 O2    s       0.000196     -0.000039      0.000017      0.000000
    104 O2    s      -0.000088      0.000031      0.000021      0.000000
    105 O1    s       0.000041     -0.000047      0.000087      0.000000
    106 O2    s       0.000271      0.000359      0.000437      0.000000
    107 O2    s       0.000044     -0.000037     -0.000008      0.000000
    108 O2    s      -0.002026      0.000601     -0.000071      0.000000
    109 O2    s       0.000005      0.000016     -0.000014      0.000000
    110 O2    s       0.000716     -0.000232     -0.000017      0.000000
    111 O2    s       0.000023      0.000027      0.000071      0.000000
    112 O2    s      -0.000045     -0.000170      0.000332      0.000000
    113 O2    s       0.000440      0.000142     -0.000116      0.000000
    114 O2    s       0.000060     -0.000012      0.000003      0.000000
    115 O2    s      -0.000596     -0.000073      0.000081      0.000000
    116 O3    s      -0.000067     -0.000067     -0.000033      0.000000
    117 O2    s       0.000176     -0.000044     -0.000040      0.000000
    118 O2    s      -0.000088      0.000076     -0.000064      0.000000
    119 O3    s      -0.000317      0.000028     -0.000073      0.000000
    120 O2    s      -0.000295     -0.000070      0.000041      0.000000
--------------------------------------------------------------------------------
  Maximum abs         0.009319      0.004723      0.004013      0.000000
--------------------------------------------------------------------------------


  Born effective charge tensors : 

-------------------------------------------------------------------------------
  Atom             x           y             z
-------------------------------------------------------------------------------
    1 Ge    x       4.2389      0.3174     -0.3354
            y      -0.2229      3.9033     -0.0041
            z      -0.6148     -0.0737      3.8739
-------------------------------------------------------------------------------
    2 Ge    x       3.9842      0.4065     -0.1192
            y       0.2358      4.2261     -0.2156
            z      -0.1993     -0.0048      3.4823
-------------------------------------------------------------------------------
    3 Ge    x       4.0011      0.4623      0.1839
            y       0.1062      4.2186      0.2680
            z       0.1907      0.0445      3.4016
-------------------------------------------------------------------------------
    4 Si    x       3.6509      0.0669     -0.1008
            y       0.2683      3.3881      0.0685
            z      -0.6278     -0.0210      3.8541
-------------------------------------------------------------------------------
    5 Si    x       3.6811     -0.1937      0.1704
            y       0.1375      3.2752     -0.0182
            z       0.1376      0.0333      4.0376
-------------------------------------------------------------------------------
    6 Si    x       3.4405      0.0793     -0.2501
            y      -0.1109      3.2457      0.0043
            z      -0.4339     -0.0584      3.7950
-------------------------------------------------------------------------------
    7 Si    x       3.4916      0.0914      0.1479
            y      -0.0988      3.2530     -0.0018
            z       0.5109     -0.0003      3.7212
-------------------------------------------------------------------------------
    8 Si    x       3.4319      0.1709      0.1980
            y      -0.2322      3.2511      0.0331
            z       0.5091      0.0663      3.0958
-------------------------------------------------------------------------------
    9 Si    x       3.6354     -0.2541     -0.1201
            y       0.1850      3.3195     -0.0205
            z      -0.3914     -0.0799      3.2925
-------------------------------------------------------------------------------
   10 Si    x       3.6944      0.0257      0.2128
            y       0.3462      3.3875     -0.0669
            z       0.5156     -0.0088      3.1764
-------------------------------------------------------------------------------
   11 Si    x       3.1927      0.3188      0.1158
            y       0.1291      3.4374      0.1336
            z       0.1287      0.0878      2.8378
-------------------------------------------------------------------------------
   12 Si    x       3.1890     -0.3091     -0.1393
            y      -0.1958      3.4724      0.1539
            z      -0.1286      0.0865      2.8127
-------------------------------------------------------------------------------
   13 Si    x       3.2269     -0.3043      0.1242
            y      -0.2003      3.4764     -0.1778
            z       0.1222     -0.0488      2.7636
-------------------------------------------------------------------------------
   14 Si    x       3.1778      0.2177     -0.0921
            y       0.2677      3.4310     -0.1853
            z      -0.0774     -0.0926      2.8135
-------------------------------------------------------------------------------
   15 Si    x       3.2067      0.2178      0.0552
            y       0.2780      3.4486      0.1977
            z       0.1013      0.0688      2.7744
-------------------------------------------------------------------------------
   16 Si    x       3.3235     -0.1698     -0.0785
            y      -0.1596      3.7620      0.1436
            z      -0.1291     -0.0094      2.8910
-------------------------------------------------------------------------------
   17 Si    x       3.4783     -0.1513     -0.1139
            y      -0.2381      3.5341     -0.1809
            z       0.1173     -0.1384      2.8876
-------------------------------------------------------------------------------
   18 Si    x       3.5049      0.3803     -0.3313
            y       0.4051      3.5076     -0.3389
            z      -0.3336     -0.1566      2.9105
-------------------------------------------------------------------------------
   19 Si    x       3.2371      0.2669      0.1323
            y       0.2990      3.4082      0.1490
            z       0.1687      0.0618      2.7057
-------------------------------------------------------------------------------
   20 Si    x       3.5781     -0.2057      0.0873
            y      -0.2136      3.5000      0.1685
            z      -0.1688      0.1167      2.7969
-------------------------------------------------------------------------------
   21 Si    x       3.4070     -0.1898      0.1714
            y      -0.1216      3.7327     -0.1745
            z       0.2061      0.0181      2.7801
-------------------------------------------------------------------------------
   22 Si    x       3.2224      0.3875     -0.1604
            y       0.0527      3.4092     -0.1556
            z      -0.1116     -0.0695      2.7426
-------------------------------------------------------------------------------
   23 Si    x       3.3199     -0.4705     -0.3223
            y      -0.1598      3.6332      0.4039
            z      -0.1723      0.2441      2.9409
-------------------------------------------------------------------------------
   24 Si    x       3.1835     -0.3340      0.1423
            y      -0.0845      3.4591     -0.1683
            z       0.1096     -0.0812      2.7186
-------------------------------------------------------------------------------
   25 O3    x      -2.1605     -0.9525      0.3250
            y      -1.0166     -2.3057      0.3336
            z       0.3996      0.2925     -1.5404
-------------------------------------------------------------------------------
   26 O2    x      -1.7575     -0.7178     -0.3637
            y      -0.7317     -1.9465     -0.3606
            z      -0.3878     -0.3778     -1.3642
-------------------------------------------------------------------------------
   27 O2    x      -1.7277      0.7255      0.3531
            y       0.7596     -1.9848     -0.3808
            z       0.3813     -0.3575     -1.3632
-------------------------------------------------------------------------------
   28 O2    x      -1.7796      0.7363     -0.3153
            y       0.7685     -1.9580      0.3285
            z      -0.3614      0.3064     -1.3289
-------------------------------------------------------------------------------
   29 O2    x      -1.6198     -0.6896      0.3353
            y      -0.6513     -1.9850      0.3469
            z       0.3582      0.3480     -1.3803
-------------------------------------------------------------------------------
   30 O2    x      -1.6822     -0.7167     -0.3101
            y      -0.6839     -2.0000     -0.3176
            z      -0.3588     -0.3060     -1.3302
-------------------------------------------------------------------------------
   31 O2    x      -1.6983      0.6695      0.3263
            y       0.6559     -1.8916     -0.3413
            z       0.3848     -0.2986     -1.3995
-------------------------------------------------------------------------------
   32 O2    x      -1.6352      0.6785     -0.3121
            y       0.6156     -2.0520      0.3613
            z      -0.3444      0.3571     -1.3363
-------------------------------------------------------------------------------
   33 O2    x      -1.6745     -0.0112      0.8323
            y      -0.0111     -1.0825      0.0141
            z       1.0836      0.0337     -2.7121
-------------------------------------------------------------------------------
   34 O2    x      -1.6038      0.0216     -0.8169
            y      -0.0081     -1.0935      0.0121
            z      -0.9948      0.0371     -2.7683
-------------------------------------------------------------------------------
   35 O2    x      -1.6048     -0.0034     -0.7049
            y       0.0318     -1.1444      0.0153
            z      -0.6453      0.0114     -2.3287
-------------------------------------------------------------------------------
   36 O3    x      -2.1643      0.0481      0.9762
            y       0.0733     -1.2532     -0.0428
            z       1.0248     -0.0147     -2.6788
-------------------------------------------------------------------------------
   37 O2    x      -1.7568      0.0131     -0.7270
            y      -0.0086     -1.1089      0.0206
            z      -0.7153      0.0293     -2.1831
-------------------------------------------------------------------------------
   38 O2    x      -1.7091      0.0101      0.7461
            y      -0.0258     -1.1230      0.0038
            z       0.7028      0.0040     -2.2182
-------------------------------------------------------------------------------
   39 O3    x      -1.9979     -0.9144      0.5783
            y      -0.7852     -2.3810      0.5785
            z       0.5786      0.5568     -1.5560
-------------------------------------------------------------------------------
   40 O2    x      -1.6593     -0.6814     -0.3304
            y      -0.5835     -2.0472     -0.3548
            z      -0.3599     -0.3455     -1.2153
-------------------------------------------------------------------------------
   41 O2    x      -1.6624      0.6727      0.3058
            y       0.5345     -2.0664     -0.3689
            z       0.3545     -0.3543     -1.1947
-------------------------------------------------------------------------------
   42 O2    x      -1.6643      0.6338     -0.3854
            y       0.5525     -1.9216      0.4208
            z      -0.3835      0.3576     -1.3111
-------------------------------------------------------------------------------
   43 O2    x      -1.7698     -0.7015      0.3309
            y      -0.6453     -1.9010      0.3478
            z       0.3381      0.3512     -1.2556
-------------------------------------------------------------------------------
   44 O3    x      -2.1891     -0.9555     -0.3927
            y      -0.9087     -2.2403     -0.4288
            z      -0.3619     -0.3516     -1.4474
-------------------------------------------------------------------------------
   45 O3    x      -2.0519      0.8954      0.5342
            y       0.8611     -2.2847     -0.6340
            z       0.4825     -0.5666     -1.5942
-------------------------------------------------------------------------------
   46 O2    x      -1.7585      0.6996     -0.3051
            y       0.6917     -1.9099      0.3312
            z      -0.3335      0.3232     -1.2335
-------------------------------------------------------------------------------
   47 O3    x      -2.1889      0.0541     -0.8448
            y       0.0546     -1.3798      0.0742
            z      -0.5062      0.0487     -2.0176
-------------------------------------------------------------------------------
   48 O2    x      -1.7383      0.0118      0.5778
            y       0.0109     -1.2419     -0.0230
            z       0.3020     -0.0384     -1.7281
-------------------------------------------------------------------------------
   49 O3    x      -1.3382      0.0084      0.0527
            y       0.0801     -3.2525      0.0962
            z       0.0766      0.1320     -1.1664
-------------------------------------------------------------------------------
   50 O2    x      -1.1736      0.0901     -0.0570
            y       0.1463     -2.5341      0.0238
            z      -0.0894      0.0217     -1.0937
-------------------------------------------------------------------------------
   51 O2    x      -1.1510     -0.0569      0.0681
            y      -0.0995     -2.5483      0.0245
            z       0.0742      0.0014     -1.0774
-------------------------------------------------------------------------------
   52 O2    x      -1.1739     -0.0595     -0.0538
            y      -0.0982     -2.5831      0.0065
            z      -0.0685      0.0195     -1.0445
-------------------------------------------------------------------------------
   53 O3    x      -2.9126     -0.2321      0.1031
            y      -0.1744     -1.4114      0.1161
            z       0.1350      0.0889     -1.2772
-------------------------------------------------------------------------------
   54 O2    x      -2.4555     -0.0870     -0.0173
            y      -0.0200     -1.2355     -0.0611
            z       0.0057     -0.0328     -1.0901
-------------------------------------------------------------------------------
   55 O2    x      -2.3901      0.1079      0.0683
            y       0.0449     -1.2534     -0.0745
            z       0.0265     -0.0494     -1.0675
-------------------------------------------------------------------------------
   56 O2    x      -2.3981      0.1208      0.0713
            y       0.0577     -1.2513      0.0661
            z       0.0632      0.0376     -1.0629
-------------------------------------------------------------------------------
   57 O1    x      -1.4090     -0.1590     -0.0110
            y      -0.0914     -1.6092      0.0073
            z       0.0119     -0.0206     -2.6867
-------------------------------------------------------------------------------
   58 O2    x      -1.1760     -0.1336      0.0289
            y      -0.0697     -1.2767     -0.0257
            z       0.0152     -0.0123     -2.0959
-------------------------------------------------------------------------------
   59 O2    x      -1.1666      0.1263     -0.0644
            y       0.0823     -1.2883     -0.0341
            z      -0.0427     -0.0113     -2.0658
-------------------------------------------------------------------------------
   60 O2    x      -1.1989      0.1397     -0.0462
            y       0.0947     -1.3149      0.0140
            z      -0.0718     -0.0079     -2.0193
-------------------------------------------------------------------------------
   61 O2    x      -1.2060     -0.1291     -0.0838
            y      -0.1317     -1.2673      0.0008
            z      -0.1114      0.0152     -2.0575
-------------------------------------------------------------------------------
   62 O2    x      -1.2205     -0.1370     -0.0133
            y      -0.1314     -1.2956     -0.0245
            z      -0.0029     -0.0409     -2.0323
-------------------------------------------------------------------------------
   63 O2    x      -1.2529      0.1323     -0.0346
            y       0.1161     -1.2693     -0.0187
            z      -0.0420     -0.0319     -2.0709
-------------------------------------------------------------------------------
   64 O2    x      -1.2017      0.0824      0.0347
            y       0.0889     -1.2933     -0.0046
            z       0.0429      0.0037     -2.1193
-------------------------------------------------------------------------------
   65 O2    x      -1.2568     -0.0743      0.1020
            y      -0.1515     -2.4188      0.0075
            z       0.1097      0.0176     -1.0444
-------------------------------------------------------------------------------
   66 O2    x      -1.2394     -0.0803     -0.0821
            y      -0.1761     -2.4879      0.0370
            z      -0.1028      0.0121     -1.0147
-------------------------------------------------------------------------------
   67 O2    x      -1.2590      0.1026      0.0766
            y       0.1747     -2.4633      0.0216
            z       0.1164     -0.0125     -1.0367
-------------------------------------------------------------------------------
   68 O3    x      -1.4324     -0.0064     -0.0818
            y       0.1023     -3.1805     -0.0701
            z      -0.1101     -0.0877     -1.1009
-------------------------------------------------------------------------------
   69 O2    x      -2.3919      0.1346      0.0494
            y       0.0964     -1.2526      0.0662
            z       0.0385      0.0338     -1.0569
-------------------------------------------------------------------------------
   70 O2    x      -2.3812      0.1019      0.0421
            y       0.0644     -1.2476     -0.0668
            z       0.0456     -0.0425     -1.0430
-------------------------------------------------------------------------------
   71 O3    x      -2.9717     -0.2380     -0.1413
            y      -0.1924     -1.4102     -0.1117
            z      -0.1682     -0.0778     -1.2415
-------------------------------------------------------------------------------
   72 O2    x      -2.4860     -0.1066     -0.0017
            y      -0.0353     -1.2316      0.0524
            z      -0.0187      0.0135     -1.0550
-------------------------------------------------------------------------------




  Elastic Constant Matrix: (Units=GPa)

-------------------------------------------------------------------------------
  Indices      1         2         3         4         5         6    
-------------------------------------------------------------------------------
       1     46.8967   24.1690   22.7284   -0.9290   -3.2681   -2.3083
       2     24.1690   75.9966   17.2953   -1.3526   -2.3990   -0.8714
       3     22.7284   17.2953   39.5833    0.2941   -3.4789   -0.9376
       4     -0.9290   -1.3526    0.2941   11.6264    0.2039   -1.6010
       5     -3.2681   -2.3990   -3.4789    0.2039   24.8648   -1.2395
       6     -2.3083   -0.8714   -0.9376   -1.6010   -1.2395   24.3985
-------------------------------------------------------------------------------


  Elastic Compliance Matrix: (Units=1/GPa)

-------------------------------------------------------------------------------
  Indices      1         2         3         4         5         6    
-------------------------------------------------------------------------------
       1    0.032634 -0.006697 -0.015635  0.002540  0.001559  0.002493
       2   -0.006697  0.016037 -0.003155  0.001396  0.000210 -0.000080
       3   -0.015635 -0.003155  0.035867 -0.002605  0.002668 -0.000249
       4    0.002540  0.001396 -0.002605  0.087261 -0.000317  0.005900
       5    0.001559  0.000210  0.002668 -0.000317  0.040934  0.002316
       6    0.002493 -0.000080 -0.000249  0.005900  0.002316  0.041714
-------------------------------------------------------------------------------

  Mechanical properties :

-------------------------------------------------------------------------------
  Convention :                    Reuss         Voigt         Hill
-------------------------------------------------------------------------------
  Bulk  Modulus (GPa)     =      29.79436      32.31801      31.05619
  Shear Modulus (GPa)     =      15.79230      18.73019      17.26125
-------------------------------------------------------------------------------
  Velocity S-wave (km/s)  =       2.84064       3.09360       2.96982
  Velocity P-wave (km/s)  =       5.09733       5.41052       5.25626
-------------------------------------------------------------------------------
  Compressibility (1/GPa) =    0.03356340
-------------------------------------------------------------------------------
  Stress axis :                     x             y             z
-------------------------------------------------------------------------------
  Youngs Moduli (GPa)     =      30.64287      62.35547      27.88073
-------------------------------------------------------------------------------
  Poissons Ratio (x)      =                     0.41762       0.43590
  Poissons Ratio (y)      =       0.20523                     0.08797
  Poissons Ratio (z)      =       0.47909       0.19676
-------------------------------------------------------------------------------


  Piezoelectric Strain Matrix: (Units=C/m**2)

-------------------------------------------------------------------------------
  Indices      1         2         3         4         5         6    
-------------------------------------------------------------------------------
       x    -0.12182  -0.20575  -1.19513   0.77335  -0.26193   0.52698
       y     0.31575   1.17416   0.83527  -0.19367   0.71320  -0.16313
       z    -0.53965  -0.71046   0.46204  -0.16729  -0.33232   0.29688
-------------------------------------------------------------------------------


  Piezoelectric Stress Matrix: (Units=10**-11 C/N)

-------------------------------------------------------------------------------
  Indices      1         2         3         4         5         6    
-------------------------------------------------------------------------------
       x     1.89577   0.22696  -4.31562   7.31913  -1.31681   2.59489
       y    -1.04054   1.39724   2.37648  -1.78233   3.18454  -0.58098
       z    -2.02794  -0.95644   2.67264  -1.63069  -1.26203   0.92236
-------------------------------------------------------------------------------


  Static dielectric constant tensor : 

-------------------------------------------------------------------------------
              x         y         z
-------------------------------------------------------------------------------
       x     4.09248  -0.00051  -0.11021
       y    -0.00051   4.10584  -0.00840
       z    -0.11021  -0.00840   3.28440
--------------------------------------------------------------------------------

  High frequency dielectric constant tensor : 

-------------------------------------------------------------------------------
              x         y         z
-------------------------------------------------------------------------------
       x     1.67977   0.00004  -0.00055
       y     0.00004   1.68722  -0.00025
       z    -0.00055  -0.00025   1.62071
-------------------------------------------------------------------------------

  Static refractive indices : 

-------------------------------------------------------------------------------
    1 =    1.80819      2 =    2.02625      3 =    2.02669
-------------------------------------------------------------------------------

  High frequency refractive indices : 

-------------------------------------------------------------------------------
    1 =    1.27307      2 =    1.29606      3 =    1.29893
-------------------------------------------------------------------------------


  Time to end of optimisation =      13.7158 seconds


  Peak dynamic memory used =       5.01 MB 


  Timing analysis for GULP :

--------------------------------------------------------------------------------
  Task / Subroutine                                          Time (Seconds)
--------------------------------------------------------------------------------
  Calculation of reciprocal space energy and derivatives          0.7441
  Calculation of real space energy and derivatives                8.5073
  Calculation of three-body energy and derivatives                0.8711
  Calculation and manipulation of Hessian matrix                  3.7653
  Calculation of matrix inversion                                 0.0253
  Global summation overhead                                       0.0002
--------------------------------------------------------------------------------
  Total CPU time                                                 13.7158
--------------------------------------------------------------------------------


  Dump file written as c00147.vasp.grs
  CIF file written as c00147.vasp.cif


  Job Finished at 11:52.17  7th October    2025                               

