********************************************************************************
*                       GENERAL UTILITY LATTICE PROGRAM                        *
*                                 Julian Gale                                  *
*                       Curtin Institute for Computation                       *
*                    School of Molecular and Life Sciences                     *
*                    Curtin University, Western Australia                      *
********************************************************************************
* Version = 6.1.2 * Last modified =   3rd November 2022                        *
********************************************************************************
*  optimise     - perform optimisation run                                     *
*  conp         - constant pressure calculation                                *
*  property     - calculate properties for final geometry                      *
********************************************************************************

  Job Started  at 12:14.14  7th October    2025                               

  Number of CPUs =     1


  Total number of configurations input =      1

********************************************************************************
*  Input for Configuration =   1 : c00263.vasp                                 *
********************************************************************************

  Formula = Ge3Si21O48                                                  

  Number of irreducible atoms/shells =     120


  Total number atoms/shells =     120

  Dimensionality = 3               :  Bulk   



  Cartesian lattice vectors (Angstroms) :

       17.182800    0.000000    0.000000
        0.000000    7.513760    0.000000
        0.000000    0.000000   10.447700

  Cell parameters (Angstroms/Degrees):

  a =      17.1828    alpha =  90.0000
  b =       7.5138    beta  =  90.0000
  c =      10.4477    gamma =  90.0000

  Initial cell volume =        1348.875752 Angs**3

  Temperature of configuration =   0.00     K 

  Pressure of configuration =         0.000 GPa 

  Fractional coordinates of asymmetric unit :

--------------------------------------------------------------------------------
   No.  Atomic       x           y          z         Charge      Occupancy
        Label      (Frac)      (Frac)     (Frac)        (e)         (Frac)  
--------------------------------------------------------------------------------
      1 Ge    c    0.660660    0.294090    0.017440     4.00000    1.000000    
      2 Ge    c    0.839340 *  0.705910 *  0.017440 *   4.00000    1.000000    
      3 Ge    c    0.339340 *  0.705910 *  0.982560 *   4.00000    1.000000    
      4 Si    c    0.052090 *  0.000000 *  0.372270 *   4.00000    1.000000    
      5 Si    c    0.447910 *  0.000000 *  0.372270 *   4.00000    1.000000    
      6 Si    c    0.947910 *  0.000000 *  0.627730 *   4.00000    1.000000    
      7 Si    c    0.552090 *  0.000000 *  0.627730 *   4.00000    1.000000    
      8 Si    c    0.556730 *  0.000000 *  0.122130 *   4.00000    1.000000    
      9 Si    c    0.943270 *  0.000000 *  0.122130 *   4.00000    1.000000    
     10 Si    c    0.443270 *  0.000000 *  0.877870 *   4.00000    1.000000    
     11 Si    c    0.056730 *  0.000000 *  0.877870 *   4.00000    1.000000    
     12 Si    c    0.160190 *  0.293910 *  0.273440 *   4.00000    1.000000    
     13 Si    c    0.339810 *  0.706090 *  0.273440 *   4.00000    1.000000    
     14 Si    c    0.839810 *  0.293910 *  0.726560 *   4.00000    1.000000    
     15 Si    c    0.660190 *  0.706090 *  0.726560 *   4.00000    1.000000    
     16 Si    c    0.839810 *  0.706090 *  0.726560 *   4.00000    1.000000    
     17 Si    c    0.660190 *  0.293910 *  0.726560 *   4.00000    1.000000    
     18 Si    c    0.160190 *  0.706090 *  0.273440 *   4.00000    1.000000    
     19 Si    c    0.339810 *  0.293910 *  0.273440 *   4.00000    1.000000    
     20 Si    c    0.339340 *  0.294090 *  0.982560 *   4.00000    1.000000    
     21 Si    c    0.160660 *  0.705910 *  0.982560 *   4.00000    1.000000    
     22 Si    c    0.160660 *  0.294090 *  0.982560 *   4.00000    1.000000    
     23 Si    c    0.660660 *  0.705910 *  0.017440 *   4.00000    1.000000    
     24 Si    c    0.839340 *  0.294090 *  0.017440 *   4.00000    1.000000    
     25 O2    c    0.106570 *  0.174340 *  0.366200 *   0.87073    1.000000    
     26 O2    c    0.393430 *  0.825660 *  0.366200 *   0.87073    1.000000    
     27 O2    c    0.893430 *  0.174340 *  0.633800 *   0.87073    1.000000    
     28 O2    c    0.606570 *  0.825660 *  0.633800 *   0.87073    1.000000    
     29 O2    c    0.893430 *  0.825660 *  0.633800 *   0.87073    1.000000    
     30 O2    c    0.606570 *  0.174340 *  0.633800 *   0.87073    1.000000    
     31 O2    c    0.106570 *  0.825660 *  0.366200 *   0.87073    1.000000    
     32 O2    c    0.393430 *  0.174340 *  0.366200 *   0.87073    1.000000    
     33 O2    c    0.000000 *  0.000000 *  0.500000 *   0.87073    1.000000    
     34 O2    c    0.500000 *  0.000000 *  0.500000 *   0.87073    1.000000    
     35 O2    c    0.994520 *  0.000000 *  0.250840 *   0.87073    1.000000    
     36 O2    c    0.505480 *  0.000000 *  0.250840 *   0.87073    1.000000    
     37 O2    c    0.005480 *  0.000000 *  0.749160 *   0.87073    1.000000    
     38 O2    c    0.494520 *  0.000000 *  0.749160 *   0.87073    1.000000    
     39 O3    c    0.610230 *  0.175520 *  0.115390 *   1.33043    1.000000    
     40 O3    c    0.889770 *  0.824480 *  0.115390 *   1.33043    1.000000    
     41 O2    c    0.389770 *  0.175520 *  0.884610 *   0.87073    1.000000    
     42 O2    c    0.110230 *  0.824480 *  0.884610 *   0.87073    1.000000    
     43 O3    c    0.389770 *  0.824480 *  0.884610 *   1.33043    1.000000    
     44 O2    c    0.110230 *  0.175520 *  0.884610 *   0.87073    1.000000    
     45 O2    c    0.610230 *  0.824480 *  0.115390 *   0.87073    1.000000    
     46 O2    c    0.889770 *  0.175520 *  0.115390 *   0.87073    1.000000    
     47 O2    c    0.500000 *  0.000000 *  0.000000 *   0.87073    1.000000    
     48 O2    c    0.000000 *  0.000000 *  0.000000 *   0.87073    1.000000    
     49 O2    c    0.151750 *  0.500000 *  0.313330 *   0.87073    1.000000    
     50 O2    c    0.348250 *  0.500000 *  0.313330 *   0.87073    1.000000    
     51 O2    c    0.848250 *  0.500000 *  0.686670 *   0.87073    1.000000    
     52 O2    c    0.651750 *  0.500000 *  0.686670 *   0.87073    1.000000    
     53 O2    c    0.250000 *  0.234950 *  0.285720 *   0.87073    1.000000    
     54 O2    c    0.250000 *  0.765050 *  0.285720 *   0.87073    1.000000    
     55 O2    c    0.750000 *  0.234950 *  0.714280 *   0.87073    1.000000    
     56 O2    c    0.750000 *  0.765050 *  0.714280 *   0.87073    1.000000    
     57 O2    c    0.131410 *  0.268650 *  0.127790 *   0.87073    1.000000    
     58 O3    c    0.368590 *  0.731350 *  0.127790 *   1.33043    1.000000    
     59 O2    c    0.868590 *  0.268650 *  0.872210 *   0.87073    1.000000    
     60 O2    c    0.631410 *  0.731350 *  0.872210 *   0.87073    1.000000    
     61 O3    c    0.868590 *  0.731350 *  0.872210 *   1.33043    1.000000    
     62 O3    c    0.631410 *  0.268650 *  0.872210 *   1.33043    1.000000    
     63 O2    c    0.131410 *  0.731350 *  0.127790 *   0.87073    1.000000    
     64 O2    c    0.368590 *  0.268650 *  0.127790 *   0.87073    1.000000    
     65 O3    c    0.653920 *  0.500000 *  0.058200 *   1.33043    1.000000    
     66 O3    c    0.846080 *  0.500000 *  0.058200 *   1.33043    1.000000    
     67 O3    c    0.346080 *  0.500000 *  0.941800 *   1.33043    1.000000    
     68 O2    c    0.153920 *  0.500000 *  0.941800 *   0.87073    1.000000    
     69 O3    c    0.750000 *  0.231060 *  0.027050 *   1.33043    1.000000    
     70 O3    c    0.750000 *  0.768940 *  0.027050 *   1.33043    1.000000    
     71 O2    c    0.250000 *  0.231060 *  0.972950 *   0.87073    1.000000    
     72 O3    c    0.250000 *  0.768940 *  0.972950 *   1.33043    1.000000    
     73 O2    s    0.106570 *  0.174340 *  0.366200 *  -2.87073    1.000000    
     74 O2    s    0.393430 *  0.825660 *  0.366200 *  -2.87073    1.000000    
     75 O2    s    0.893430 *  0.174340 *  0.633800 *  -2.87073    1.000000    
     76 O2    s    0.606570 *  0.825660 *  0.633800 *  -2.87073    1.000000    
     77 O2    s    0.893430 *  0.825660 *  0.633800 *  -2.87073    1.000000    
     78 O2    s    0.606570 *  0.174340 *  0.633800 *  -2.87073    1.000000    
     79 O2    s    0.106570 *  0.825660 *  0.366200 *  -2.87073    1.000000    
     80 O2    s    0.393430 *  0.174340 *  0.366200 *  -2.87073    1.000000    
     81 O2    s    0.000000 *  0.000000 *  0.500000 *  -2.87073    1.000000    
     82 O2    s    0.500000 *  0.000000 *  0.500000 *  -2.87073    1.000000    
     83 O2    s    0.994520 *  0.000000 *  0.250840 *  -2.87073    1.000000    
     84 O2    s    0.505480 *  0.000000 *  0.250840 *  -2.87073    1.000000    
     85 O2    s    0.005480 *  0.000000 *  0.749160 *  -2.87073    1.000000    
     86 O2    s    0.494520 *  0.000000 *  0.749160 *  -2.87073    1.000000    
     87 O3    s    0.610230 *  0.175520 *  0.115390 *  -3.33043    1.000000    
     88 O3    s    0.889770 *  0.824480 *  0.115390 *  -3.33043    1.000000    
     89 O2    s    0.389770 *  0.175520 *  0.884610 *  -2.87073    1.000000    
     90 O2    s    0.110230 *  0.824480 *  0.884610 *  -2.87073    1.000000    
     91 O3    s    0.389770 *  0.824480 *  0.884610 *  -3.33043    1.000000    
     92 O2    s    0.110230 *  0.175520 *  0.884610 *  -2.87073    1.000000    
     93 O2    s    0.610230 *  0.824480 *  0.115390 *  -2.87073    1.000000    
     94 O2    s    0.889770 *  0.175520 *  0.115390 *  -2.87073    1.000000    
     95 O2    s    0.500000 *  0.000000 *  0.000000 *  -2.87073    1.000000    
     96 O2    s    0.000000 *  0.000000 *  0.000000 *  -2.87073    1.000000    
     97 O2    s    0.151750 *  0.500000 *  0.313330 *  -2.87073    1.000000    
     98 O2    s    0.348250 *  0.500000 *  0.313330 *  -2.87073    1.000000    
     99 O2    s    0.848250 *  0.500000 *  0.686670 *  -2.87073    1.000000    
    100 O2    s    0.651750 *  0.500000 *  0.686670 *  -2.87073    1.000000    
    101 O2    s    0.250000 *  0.234950 *  0.285720 *  -2.87073    1.000000    
    102 O2    s    0.250000 *  0.765050 *  0.285720 *  -2.87073    1.000000    
    103 O2    s    0.750000 *  0.234950 *  0.714280 *  -2.87073    1.000000    
    104 O2    s    0.750000 *  0.765050 *  0.714280 *  -2.87073    1.000000    
    105 O2    s    0.131410 *  0.268650 *  0.127790 *  -2.87073    1.000000    
    106 O3    s    0.368590 *  0.731350 *  0.127790 *  -3.33043    1.000000    
    107 O2    s    0.868590 *  0.268650 *  0.872210 *  -2.87073    1.000000    
    108 O2    s    0.631410 *  0.731350 *  0.872210 *  -2.87073    1.000000    
    109 O3    s    0.868590 *  0.731350 *  0.872210 *  -3.33043    1.000000    
    110 O3    s    0.631410 *  0.268650 *  0.872210 *  -3.33043    1.000000    
    111 O2    s    0.131410 *  0.731350 *  0.127790 *  -2.87073    1.000000    
    112 O2    s    0.368590 *  0.268650 *  0.127790 *  -2.87073    1.000000    
    113 O3    s    0.653920 *  0.500000 *  0.058200 *  -3.33043    1.000000    
    114 O3    s    0.846080 *  0.500000 *  0.058200 *  -3.33043    1.000000    
    115 O3    s    0.346080 *  0.500000 *  0.941800 *  -3.33043    1.000000    
    116 O2    s    0.153920 *  0.500000 *  0.941800 *  -2.87073    1.000000    
    117 O3    s    0.750000 *  0.231060 *  0.027050 *  -3.33043    1.000000    
    118 O3    s    0.750000 *  0.768940 *  0.027050 *  -3.33043    1.000000    
    119 O2    s    0.250000 *  0.231060 *  0.972950 *  -2.87073    1.000000    
    120 O3    s    0.250000 *  0.768940 *  0.972950 *  -3.33043    1.000000    
--------------------------------------------------------------------------------



********************************************************************************
*  General input information                                                   *
********************************************************************************

  Species output for all configurations : 

--------------------------------------------------------------------------------
  Species    Type    Atomic    Atomic    Charge       Radii (Angs)     Library
                     Number     Mass       (e)     Cova   Ionic  VDW   Symbol
--------------------------------------------------------------------------------
    Ge       Core       32      72.61   4.000000   1.170  0.000  1.750 Ge       
    Si       Core       14      28.09   4.000000   1.200  0.000  2.100 Si       
    O1       Core        8      16.00   1.733957   0.730  0.000  0.000 O1       
    O2       Core        8      16.00   0.870733   0.730  0.000  1.360 O2       
    O3       Core        8      16.00   1.330431   0.730  0.000  1.360 O3       
    O1       Shell       8       0.00  -3.733957   0.730  0.000  0.000 O1       
    O2       Shell       8       0.00  -2.870733   0.730  0.000  0.000 O2       
    O3       Shell       8       0.00  -3.330431   0.730  0.000  0.000 O3       
--------------------------------------------------------------------------------


  Lattice summation method               =    Ewald          (3-D)
                                         =    Parry          (2-D)
                                         =    Saunders et al (1-D)
  Accuracy factor for lattice sums       =   12.000


  Analytic derivatives to be used

  Time limit = Infinity

  Maximum range for interatomic potentials =    100000.000000 Angstroms

  General interatomic potentials :

--------------------------------------------------------------------------------
Atom  Types   Potential      Parameter       Value         Units   Cutoffs(Ang)
  1     2                                                            Min /  Max 
--------------------------------------------------------------------------------
Si   c O1   s Buckingham    Buckingham A     1315.2478    eV        0.000 16.000
                            Buckingham rho  0.31775900    Ang       
                            Buckingham C     10.141118    eV*Ang^6  
--------------------------------------------------------------------------------
Si   c O2   s Buckingham    Buckingham A     1315.2478    eV        0.000 16.000
                            Buckingham rho  0.31775900    Ang       
                            Buckingham C     10.141118    eV*Ang^6  
--------------------------------------------------------------------------------
Si   c O3   s Buckingham    Buckingham A     1315.2478    eV        0.000 16.000
                            Buckingham rho  0.31775900    Ang       
                            Buckingham C     10.141118    eV*Ang^6  
--------------------------------------------------------------------------------
Ge   c O1   s Buckingham    Buckingham A     1497.3996    eV        0.000 16.000
                            Buckingham rho  0.32564600    Ang       
                            Buckingham C     16.808599    eV*Ang^6  
--------------------------------------------------------------------------------
Ge   c O2   s Buckingham    Buckingham A     1497.3996    eV        0.000 16.000
                            Buckingham rho  0.32564600    Ang       
                            Buckingham C     16.808599    eV*Ang^6  
--------------------------------------------------------------------------------
Ge   c O3   s Buckingham    Buckingham A     1497.3996    eV        0.000 16.000
                            Buckingham rho  0.32564600    Ang       
                            Buckingham C     16.808599    eV*Ang^6  
--------------------------------------------------------------------------------
O1   s O1   s Buckingham    Buckingham A     22764.000    eV        0.000 16.000
                            Buckingham rho  0.14900000    Ang       
                            Buckingham C     10.937044    eV*Ang^6  
--------------------------------------------------------------------------------
O1   s O2   s Buckingham    Buckingham A     22764.000    eV        0.000 16.000
                            Buckingham rho  0.14900000    Ang       
                            Buckingham C     10.937044    eV*Ang^6  
--------------------------------------------------------------------------------
O1   s O3   s Buckingham    Buckingham A     22764.000    eV        0.000 16.000
                            Buckingham rho  0.14900000    Ang       
                            Buckingham C     10.937044    eV*Ang^6  
--------------------------------------------------------------------------------
O2   s O2   s Buckingham    Buckingham A     22764.000    eV        0.000 16.000
                            Buckingham rho  0.14900000    Ang       
                            Buckingham C     10.937044    eV*Ang^6  
--------------------------------------------------------------------------------
O2   s O3   s Buckingham    Buckingham A     22764.000    eV        0.000 16.000
                            Buckingham rho  0.14900000    Ang       
                            Buckingham C     10.937044    eV*Ang^6  
--------------------------------------------------------------------------------
O3   s O3   s Buckingham    Buckingham A     22764.000    eV        0.000 16.000
                            Buckingham rho  0.14900000    Ang       
                            Buckingham C     10.937044    eV*Ang^6  
--------------------------------------------------------------------------------
O1   c O1   s Spring (c-s)  Spring k 2       180.31577    eV*Ang^-2 0.000  0.800
                            Spring k 4       0.0000000    eV*Ang^-4 
--------------------------------------------------------------------------------
O2   c O2   s Spring (c-s)  Spring k 2       75.969800    eV*Ang^-2 0.000  0.800
                            Spring k 4       0.0000000    eV*Ang^-4 
--------------------------------------------------------------------------------
O3   c O3   s Spring (c-s)  Spring k 2       128.14270    eV*Ang^-2 0.000  0.800
                            Spring k 4       0.0000000    eV*Ang^-4 
--------------------------------------------------------------------------------

  General Three-body potentials :

--------------------------------------------------------------------------------
  Atoms       Potential      Parameter       Value         Units   Cutoffs(Ang)
  1 / 2 / 3                                                          Min /  Max 
--------------------------------------------------------------------------------
Si    core    Harmonic      Three-body cnst  1.2614000    eV*rad^-2 0.000  1.900
O1    shel                  Three-body angl  109.47000    degrees   0.000  1.900
O1    shel                  Three-body k4    0.0000000    eV*rad^-4 0.000  3.500
                            Three-body k3    0.0000000    eV*rad^-3 
--------------------------------------------------------------------------------
Si    core    Harmonic      Three-body cnst  1.2614000    eV*rad^-2 0.000  1.900
O1    shel                  Three-body angl  109.47000    degrees   0.000  1.900
õ(1   shel                  Three-body k4    0.0000000    eV*rad^-4 0.000  3.500
                            Three-body k3    0.0000000    eV*rad^-3 
--------------------------------------------------------------------------------
Si    core    Harmonic      Three-body cnst  1.2614000    eV*rad^-2 0.000  1.900
õ(1   shel                  Three-body angl  109.47000    degrees   0.000  1.900
õ(1   shel                  Three-body k4    0.0000000    eV*rad^-4 0.000  3.500
                            Three-body k3    0.0000000    eV*rad^-3 
--------------------------------------------------------------------------------
Si    core    Harmonic      Three-body cnst  1.2614000    eV*rad^-2 0.000  1.900
O1    shel                  Three-body angl  109.47000    degrees   0.000  1.900
O2    shel                  Three-body k4    0.0000000    eV*rad^-4 0.000  3.500
                            Three-body k3    0.0000000    eV*rad^-3 
--------------------------------------------------------------------------------
Si    core    Harmonic      Three-body cnst  1.2614000    eV*rad^-2 0.000  1.900
O1    shel                  Three-body angl  109.47000    degrees   0.000  1.900
õ(2   shel                  Three-body k4    0.0000000    eV*rad^-4 0.000  3.500
                            Three-body k3    0.0000000    eV*rad^-3 
--------------------------------------------------------------------------------
Si    core    Harmonic      Three-body cnst  1.2614000    eV*rad^-2 0.000  1.900
O2    shel                  Three-body angl  109.47000    degrees   0.000  1.900
õ(1   shel                  Three-body k4    0.0000000    eV*rad^-4 0.000  3.500
                            Three-body k3    0.0000000    eV*rad^-3 
--------------------------------------------------------------------------------
Si    core    Harmonic      Three-body cnst  1.2614000    eV*rad^-2 0.000  1.900
õ(1   shel                  Three-body angl  109.47000    degrees   0.000  1.900
õ(2   shel                  Three-body k4    0.0000000    eV*rad^-4 0.000  3.500
                            Three-body k3    0.0000000    eV*rad^-3 
--------------------------------------------------------------------------------
Si    core    Harmonic      Three-body cnst  1.2614000    eV*rad^-2 0.000  1.900
O2    shel                  Three-body angl  109.47000    degrees   0.000  1.900
O2    shel                  Three-body k4    0.0000000    eV*rad^-4 0.000  3.500
                            Three-body k3    0.0000000    eV*rad^-3 
--------------------------------------------------------------------------------
Si    core    Harmonic      Three-body cnst  1.2614000    eV*rad^-2 0.000  1.900
O2    shel                  Three-body angl  109.47000    degrees   0.000  1.900
õ(2   shel                  Three-body k4    0.0000000    eV*rad^-4 0.000  3.500
                            Three-body k3    0.0000000    eV*rad^-3 
--------------------------------------------------------------------------------
Si    core    Harmonic      Three-body cnst  1.2614000    eV*rad^-2 0.000  1.900
õ(2   shel                  Three-body angl  109.47000    degrees   0.000  1.900
õ(2   shel                  Three-body k4    0.0000000    eV*rad^-4 0.000  3.500
                            Three-body k3    0.0000000    eV*rad^-3 
--------------------------------------------------------------------------------

********************************************************************************
*  Output for configuration   1 : c00263.vasp                                  *
********************************************************************************


  Components of energy : 

--------------------------------------------------------------------------------
  Interatomic potentials     =         760.34465326 eV    
  Three-body potentials      =           0.01370837 eV    
  Monopole - monopole (real) =       -2676.00317478 eV    
  Monopole - monopole (recip)=       -1115.35404472 eV    
  Monopole - monopole (total)=       -3791.35721950 eV    
--------------------------------------------------------------------------------
  Total lattice energy       =       -3030.99885788 eV    
--------------------------------------------------------------------------------
  Total lattice energy       =         -292445.0567 kJ/(mole unit cells)
--------------------------------------------------------------------------------


  Number of variables =      363

  Maximum number of calculations  =          1000
  Maximum Hessian update interval =            10
  Maximum step size               =   0.100000000
  Maximum parameter tolerance     =   0.000010000
  Maximum function  tolerance     =   0.000010000
  Maximum gradient  tolerance     =   0.001000000
  Maximum gradient  component     =   0.010000000

  Symmetry not applied to optimisation

  Cell parameters to be optimised using strains

  Newton-Raphson optimiser to be used

  BFGS hessian update to be used

  Lower half triangular hessian to be used

  Minimiser to switch to RFO
  When gradient norm is less than     0.050000

  Dumpfile to be written after every cycle

  Start of bulk optimisation :

  Cycle:      0 Energy:     -3030.998858  Gnorm:      4.460663  CPU:    0.118
  ** Hessian calculated **
  Cycle:      1 Energy:     -3046.555191  Gnorm:      3.383767  CPU:    0.317
  ** Hessian calculated **
  Cycle:      2 Energy:     -3064.199174  Gnorm:      0.734052  CPU:    0.526
  ** Hessian calculated **
  Cycle:      3 Energy:     -3065.728492  Gnorm:      0.543270  CPU:    0.754
  ** Hessian calculated **
  Cycle:      4 Energy:     -3066.984029  Gnorm:      0.336032  CPU:    0.962
  ** Hessian calculated **
  Cycle:      5 Energy:     -3067.306943  Gnorm:      0.194741  CPU:    1.171
  Cycle:      6 Energy:     -3067.417673  Gnorm:      0.126031  CPU:    1.279
  Cycle:      7 Energy:     -3067.502600  Gnorm:      0.095857  CPU:    1.407
  Cycle:      8 Energy:     -3067.578401  Gnorm:      0.076875  CPU:    1.536
  Cycle:      9 Energy:     -3067.628519  Gnorm:      0.064853  CPU:    1.645
  Cycle:     10 Energy:     -3067.659668  Gnorm:      0.048548  CPU:    1.754
  ** Hessian has required structure
  Cycle:     11 Energy:     -3067.666165  Gnorm:      0.052857  CPU:    1.913
  ** Hessian has required structure
  Cycle:     12 Energy:     -3067.672967  Gnorm:      0.051639  CPU:    2.089
  ** Hessian has required structure
  Cycle:     13 Energy:     -3067.678049  Gnorm:      0.052440  CPU:    2.248
  ** Hessian has required structure
  Cycle:     14 Energy:     -3067.682779  Gnorm:      0.052322  CPU:    2.405
  ** Hessian has wrong structure
  ** Imaginary eigenvectors =   4
  ** Hessian has wrong structure
  ** Imaginary eigenvectors =   3
  Cycle:     15 Energy:     -3067.697167  Gnorm:      0.057143  CPU:    3.016
  ** Hessian has wrong structure
  ** Imaginary eigenvectors =   2
  ** Hessian has wrong structure
  ** Imaginary eigenvectors =   2
  Cycle:     16 Energy:     -3067.714312  Gnorm:      0.066175  CPU:    3.627
  ** Hessian has wrong structure
  ** Imaginary eigenvectors =   1
  ** Hessian has required structure
  Cycle:     17 Energy:     -3067.864991  Gnorm:      0.071943  CPU:    4.217
  ** Hessian has required structure
  Cycle:     18 Energy:     -3067.993977  Gnorm:      0.052496  CPU:    4.394
  ** Hessian has required structure
  Cycle:     19 Energy:     -3068.059123  Gnorm:      0.034388  CPU:    4.572
  ** Hessian has required structure
  Cycle:     20 Energy:     -3068.108719  Gnorm:      0.052798  CPU:    4.770
  ** Hessian has required structure
  Cycle:     21 Energy:     -3068.136349  Gnorm:      0.041744  CPU:    4.947
  ** Hessian has required structure
  Cycle:     22 Energy:     -3068.156664  Gnorm:      0.027379  CPU:    5.124
  ** Hessian has required structure
  Cycle:     23 Energy:     -3068.173475  Gnorm:      0.018322  CPU:    5.323
  ** Hessian has required structure
  Cycle:     24 Energy:     -3068.185466  Gnorm:      0.024190  CPU:    5.501
  ** Hessian has required structure
  Cycle:     25 Energy:     -3068.196502  Gnorm:      0.014986  CPU:    5.678
  ** Hessian has required structure
  Cycle:     26 Energy:     -3068.202436  Gnorm:      0.014401  CPU:    5.872
  ** Hessian has required structure
  Cycle:     27 Energy:     -3068.217233  Gnorm:      0.009347  CPU:    6.162
  ** Hessian has required structure
  Cycle:     28 Energy:     -3068.221158  Gnorm:      0.005692  CPU:    6.371
  ** Hessian has required structure
  Cycle:     29 Energy:     -3068.222424  Gnorm:      0.003005  CPU:    6.575
  ** Hessian has required structure
  Cycle:     30 Energy:     -3068.222847  Gnorm:      0.001941  CPU:    6.780
  ** Hessian has required structure
  Cycle:     31 Energy:     -3068.222988  Gnorm:      0.000728  CPU:    6.984
  ** Hessian has required structure
  Cycle:     32 Energy:     -3068.223025  Gnorm:      0.000611  CPU:    7.165
  ** Hessian has required structure
  Cycle:     33 Energy:     -3068.223039  Gnorm:      0.000326  CPU:    7.348
  ** Hessian has required structure
  Cycle:     34 Energy:     -3068.223044  Gnorm:      0.000205  CPU:    7.532
  ** Hessian has required structure
  Cycle:     35 Energy:     -3068.223046  Gnorm:      0.000174  CPU:    7.691
  ** Hessian has required structure
  Cycle:     36 Energy:     -3068.223047  Gnorm:      0.000118  CPU:    7.857
  ** Hessian has required structure
  Cycle:     37 Energy:     -3068.223048  Gnorm:      0.000083  CPU:    8.122
  ** Hessian has required structure


  **** Optimisation achieved ****


  Final energy =   -3068.22304815 eV      
  Final Gnorm  =       0.00005832

  Components of energy : 

--------------------------------------------------------------------------------
  Interatomic potentials     =         816.79519412 eV    
  Three-body potentials      =           0.21858098 eV    
  Monopole - monopole (real) =       -2203.69485057 eV    
  Monopole - monopole (recip)=       -1681.54197268 eV    
  Monopole - monopole (total)=       -3885.23682325 eV    
--------------------------------------------------------------------------------
  Total lattice energy       =       -3068.22304815 eV    
--------------------------------------------------------------------------------
  Total lattice energy       =         -296036.6221 kJ/(mole unit cells)
--------------------------------------------------------------------------------

  Final fractional coordinates of atoms :

--------------------------------------------------------------------------------
   No.  Atomic        x           y          z          Radius
        Label       (Frac)      (Frac)     (Frac)       (Angs) 
--------------------------------------------------------------------------------
     1  Ge    c     0.660660    0.294090    0.017440    0.000000
     2  Ge    c     0.821708    0.751182    0.020262    0.000000
     3  Ge    c     0.342996    0.694704    0.970322    0.000000
     4  Si    c     0.041122    0.030442    0.369213    0.000000
     5  Si    c     0.440614    0.016459    0.368396    0.000000
     6  Si    c     0.941856    0.029774    0.629023    0.000000
     7  Si    c     0.542288    0.016348    0.625137    0.000000
     8  Si    c     0.547664    0.011104    0.117249    0.000000
     9  Si    c     0.932950    0.035693    0.121144    0.000000
    10  Si    c     0.439621    0.013250    0.876708    0.000000
    11  Si    c     0.044018    0.007076    0.883732    0.000000
    12  Si    c     0.145591    0.332876    0.283297    0.000000
    13  Si    c     0.336948    0.712244    0.278165    0.000000
    14  Si    c     0.839272    0.341214    0.714246    0.000000
    15  Si    c     0.643960    0.706467    0.716427    0.000000
    16  Si    c     0.824331    0.745578    0.712837    0.000000
    17  Si    c     0.659306    0.301649    0.710281    0.000000
    18  Si    c     0.155656    0.735352    0.274089    0.000000
    19  Si    c     0.327116    0.306987    0.281004    0.000000
    20  Si    c     0.324563    0.289045    0.978305    0.000000
    21  Si    c     0.157489    0.720628    0.969984    0.000000
    22  Si    c     0.142123    0.322546    0.982056    0.000000
    23  Si    c     0.636988    0.692607    0.019076    0.000000
    24  Si    c     0.844911    0.352682    0.017795    0.000000
    25  O2    c     0.088414    0.214634    0.370883    0.000000
    26  O2    c     0.393132    0.832826    0.367268    0.000000
    27  O2    c     0.900683    0.221213    0.634282    0.000000
    28  O2    c     0.583145    0.825354    0.636677    0.000000
    29  O2    c     0.875180    0.878086    0.625022    0.000000
    30  O2    c     0.608403    0.169044    0.621538    0.000000
    31  O2    c     0.102496    0.870518    0.354810    0.000000
    32  O2    c     0.379232    0.178631    0.368455    0.000000
    33  O2    c     0.994410    0.012647    0.501849    0.000000
    34  O2    c     0.493493    0.024245    0.494547    0.000000
    35  O2    c     0.978449    0.024362    0.254564    0.000000
    36  O2    c     0.498068    0.032911    0.246486    0.000000
    37  O2    c     0.999018    0.001424    0.749482    0.000000
    38  O2    c     0.481438    0.052522    0.741489    0.000000
    39  O3    c     0.622594    0.137942    0.118967    0.000000
    40  O3    c     0.857627    0.909728    0.123237    0.000000
    41  O2    c     0.361867    0.133943    0.892250    0.000000
    42  O2    c     0.109323    0.854612    0.881742    0.000000
    43  O3    c     0.411238    0.812835    0.883103    0.000000
    44  O2    c     0.084305    0.198089    0.900497    0.000000
    45  O2    c     0.575170    0.809316    0.100973    0.000000
    46  O2    c     0.906983    0.235857    0.096487    0.000000
    47  O2    c     0.497732    0.070827    0.992421    0.000000
    48  O2    c     0.985007    0.962629    0.001095    0.000000
    49  O2    c     0.125750    0.538019    0.304186    0.000000
    50  O2    c     0.356477    0.507172    0.300887    0.000000
    51  O2    c     0.857827    0.547611    0.694517    0.000000
    52  O2    c     0.625737    0.499702    0.695172    0.000000
    53  O2    c     0.235661    0.293462    0.322841    0.000000
    54  O2    c     0.246467    0.753056    0.317156    0.000000
    55  O2    c     0.750810    0.298717    0.665516    0.000000
    56  O2    c     0.732770    0.749338    0.669496    0.000000
    57  O2    c     0.130886    0.279073    0.133705    0.000000
    58  O3    c     0.352785    0.760123    0.129901    0.000000
    59  O2    c     0.846237    0.296051    0.865826    0.000000
    60  O2    c     0.634691    0.752714    0.868277    0.000000
    61  O3    c     0.828926    0.811613    0.860094    0.000000
    62  O3    c     0.654747    0.234112    0.856462    0.000000
    63  O2    c     0.151297    0.776326    0.121377    0.000000
    64  O2    c     0.335240    0.249906    0.131049    0.000000
    65  O3    c     0.611929    0.492550    0.034628    0.000000
    66  O3    c     0.869738    0.552628    0.037066    0.000000
    67  O3    c     0.363839    0.474874    0.947766    0.000000
    68  O2    c     0.121267    0.524682    0.952706    0.000000
    69  O3    c     0.756659    0.320596    0.066934    0.000000
    70  O3    c     0.725225    0.721948    0.067447    0.000000
    71  O2    c     0.232472    0.290329    0.942175    0.000000
    72  O3    c     0.246885    0.727155    0.923338    0.000000
    73  O2    s     0.089703    0.208058    0.361003    0.000000
    74  O2    s     0.392104    0.839407    0.357710    0.000000
    75  O2    s     0.898336    0.214106    0.642421    0.000000
    76  O2    s     0.585476    0.832526    0.644187    0.000000
    77  O2    s     0.876724    0.879812    0.635005    0.000000
    78  O2    s     0.606883    0.167121    0.631542    0.000000
    79  O2    s     0.101836    0.872656    0.347186    0.000000
    80  O2    s     0.379986    0.175591    0.358787    0.000000
    81  O2    s     0.993774    0.016793    0.501043    0.000000
    82  O2    s     0.492980    0.022364    0.495009    0.000000
    83  O2    s     0.980258    0.026378    0.251884    0.000000
    84  O2    s     0.497381    0.028453    0.245042    0.000000
    85  O2    s     0.997790    0.005340    0.751655    0.000000
    86  O2    s     0.483418    0.043997    0.744114    0.000000
    87  O3    s     0.618199    0.138177    0.110264    0.000000
    88  O3    s     0.862202    0.909149    0.114394    0.000000
    89  O2    s     0.365959    0.138263    0.900190    0.000000
    90  O2    s     0.107551    0.856387    0.891835    0.000000
    91  O3    s     0.408448    0.822931    0.889627    0.000000
    92  O2    s     0.086461    0.191607    0.907899    0.000000
    93  O2    s     0.578862    0.818145    0.093867    0.000000
    94  O2    s     0.903065    0.226969    0.090569    0.000000
    95  O2    s     0.496820    0.058580    0.993188    0.000000
    96  O2    s     0.985851    0.974951    0.001005    0.000000
    97  O2    s     0.131070    0.536785    0.298735    0.000000
    98  O2    s     0.351251    0.507584    0.296362    0.000000
    99  O2    s     0.852356    0.546347    0.698521    0.000000
   100  O2    s     0.631168    0.500971    0.698996    0.000000
   101  O2    s     0.235833    0.299203    0.314121    0.000000
   102  O2    s     0.246255    0.746761    0.308401    0.000000
   103  O2    s     0.750541    0.303596    0.675298    0.000000
   104  O2    s     0.732947    0.744311    0.678963    0.000000
   105  O2    s     0.133612    0.289249    0.133407    0.000000
   106  O3    s     0.350432    0.750108    0.131807    0.000000
   107  O2    s     0.845364    0.306613    0.865149    0.000000
   108  O2    s     0.635887    0.741804    0.867393    0.000000
   109  O3    s     0.827885    0.800180    0.858529    0.000000
   110  O3    s     0.655679    0.245653    0.855092    0.000000
   111  O2    s     0.152407    0.766164    0.121912    0.000000
   112  O2    s     0.333232    0.260050    0.131162    0.000000
   113  O3    s     0.618318    0.497199    0.031722    0.000000
   114  O3    s     0.863387    0.548126    0.033802    0.000000
   115  O3    s     0.358225    0.474026    0.952620    0.000000
   116  O2    s     0.127267    0.523352    0.957675    0.000000
   117  O3    s     0.757591    0.321653    0.057916    0.000000
   118  O3    s     0.724229    0.721352    0.058640    0.000000
   119  O2    s     0.232548    0.293816    0.950530    0.000000
   120  O3    s     0.245642    0.723815    0.931988    0.000000
--------------------------------------------------------------------------------

  Final Cartesian lattice vectors (Angstroms) :

       16.962019   -0.018875    0.033084
       -0.008434    7.609751   -0.029877
        0.019446   -0.040697   10.313823


  Final cell parameters and derivatives :

--------------------------------------------------------------------------------
       a           16.962061 Angstrom     dE/de1(xx)     0.004470 eV/strain
       b            7.609815 Angstrom     dE/de2(yy)     0.002067 eV/strain
       c           10.313922 Angstrom     dE/de3(zz)     0.007285 eV/strain
       alpha       90.451145 Degrees      dE/de4(yz)     0.000069 eV/strain
       beta        89.779968 Degrees      dE/de5(xz)     0.000269 eV/strain
       gamma       90.127694 Degrees      dE/de6(xy)    -0.000375 eV/strain
--------------------------------------------------------------------------------

  Primitive cell volume =          1331.247575 Angs**3

  Density of cell =      1.965514 g/cm**3

  Non-primitive cell volume =          1331.247575 Angs**3


  Final internal derivatives :

--------------------------------------------------------------------------------
   No.  Atomic          a             b             c           Radius
        Label          (eV)          (eV)          (eV)        (eV/Angs)
--------------------------------------------------------------------------------
      1 Ge    c       0.000000      0.000000      0.000000      0.000000
      2 Ge    c       0.000932     -0.000057      0.000521      0.000000
      3 Ge    c       0.001490      0.000219     -0.000335      0.000000
      4 Si    c       0.008827      0.001114     -0.001125      0.000000
      5 Si    c       0.000437      0.000033      0.000234      0.000000
      6 Si    c      -0.008325      0.000692      0.000832      0.000000
      7 Si    c      -0.000156      0.000025      0.000182      0.000000
      8 Si    c      -0.000305      0.000102      0.000297      0.000000
      9 Si    c      -0.004586      0.000961     -0.001138      0.000000
     10 Si    c      -0.000023      0.000001      0.000203      0.000000
     11 Si    c       0.004417      0.000509      0.001483      0.000000
     12 Si    c      -0.001084     -0.000017      0.000113      0.000000
     13 Si    c       0.000142     -0.000096      0.000195      0.000000
     14 Si    c       0.000805      0.000165     -0.000075      0.000000
     15 Si    c       0.000016     -0.000063      0.000018      0.000000
     16 Si    c       0.000522     -0.000227     -0.000496      0.000000
     17 Si    c       0.000049      0.000052      0.000075      0.000000
     18 Si    c      -0.000699     -0.000589      0.000777      0.000000
     19 Si    c      -0.000518     -0.000003      0.000090      0.000000
     20 Si    c      -0.000153     -0.000149      0.000020      0.000000
     21 Si    c      -0.000674     -0.000057     -0.000613      0.000000
     22 Si    c      -0.000749      0.000363      0.000159      0.000000
     23 Si    c       0.000065     -0.000026     -0.000026      0.000000
     24 Si    c       0.000797      0.000145      0.000074      0.000000
     25 O2    c      -0.000409      0.000053     -0.000061      0.000000
     26 O2    c       0.000009      0.000055     -0.000001      0.000000
     27 O2    c       0.000185      0.000383      0.000004      0.000000
     28 O2    c      -0.000017      0.000030     -0.000010      0.000000
     29 O2    c      -0.000318     -0.000525     -0.000211      0.000000
     30 O2    c      -0.000038     -0.000015     -0.000003      0.000000
     31 O2    c       0.001279     -0.001023      0.000602      0.000000
     32 O2    c       0.000008     -0.000012     -0.000025      0.000000
     33 O2    c      -0.002568     -0.000919      0.001074      0.000000
     34 O2    c      -0.000765      0.000003     -0.000655      0.000000
     35 O2    c      -0.002175     -0.000594      0.000171      0.000000
     36 O2    c       0.000503     -0.000052     -0.000504      0.000000
     37 O2    c       0.005015     -0.000680     -0.000896      0.000000
     38 O2    c       0.000283     -0.000037     -0.000234      0.000000
     39 O3    c      -0.000185     -0.000094     -0.000103      0.000000
     40 O3    c      -0.000759     -0.000750      0.000081      0.000000
     41 O2    c       0.000032      0.000011      0.000011      0.000000
     42 O2    c       0.000545     -0.000575      0.000004      0.000000
     43 O3    c      -0.000326     -0.000030      0.000127      0.000000
     44 O2    c       0.000135      0.000863      0.000080      0.000000
     45 O2    c      -0.000018      0.000105     -0.000024      0.000000
     46 O2    c       0.000135      0.000854     -0.000132      0.000000
     47 O2    c      -0.000312     -0.000131     -0.000170      0.000000
     48 O2    c      -0.002088     -0.002435     -0.000963      0.000000
     49 O2    c      -0.000187      0.000205     -0.000090      0.000000
     50 O2    c       0.000084      0.000068     -0.000030      0.000000
     51 O2    c       0.000134     -0.000130     -0.000023      0.000000
     52 O2    c       0.000099     -0.000020     -0.000002      0.000000
     53 O2    c       0.000718      0.000010      0.000026      0.000000
     54 O2    c       0.000974      0.000087      0.000411      0.000000
     55 O2    c       0.000029     -0.000003      0.000055      0.000000
     56 O2    c      -0.000088      0.000000     -0.000041      0.000000
     57 O2    c       0.000030      0.000151     -0.000331      0.000000
     58 O3    c       0.000510      0.000222      0.000863      0.000000
     59 O2    c       0.000012      0.000131     -0.000063      0.000000
     60 O2    c      -0.000033     -0.000018     -0.000016      0.000000
     61 O3    c      -0.000517     -0.000205      0.000182      0.000000
     62 O3    c       0.000051      0.000058     -0.000121      0.000000
     63 O2    c      -0.000529      0.000239     -0.000569      0.000000
     64 O2    c       0.000082     -0.000032      0.000040      0.000000
     65 O3    c       0.000022      0.000123     -0.000029      0.000000
     66 O3    c       0.000319      0.000033      0.000072      0.000000
     67 O3    c       0.000661     -0.000379     -0.000262      0.000000
     68 O2    c      -0.000520     -0.000560      0.000002      0.000000
     69 O3    c       0.000322      0.000011      0.000051      0.000000
     70 O3    c       0.000059      0.000007      0.000031      0.000000
     71 O2    c      -0.000247      0.000024     -0.000137      0.000000
     72 O3    c      -0.002610      0.000214     -0.000728      0.000000
     73 O2    s       0.002903      0.000787      0.000302      0.000000
     74 O2    s       0.000266      0.000010      0.000068      0.000000
     75 O2    s      -0.002875      0.000611      0.000029      0.000000
     76 O2    s      -0.000052      0.000016      0.000026      0.000000
     77 O2    s      -0.003509     -0.000221      0.000349      0.000000
     78 O2    s      -0.000020     -0.000014      0.000013      0.000000
     79 O2    s       0.003290     -0.000348      0.000288      0.000000
     80 O2    s       0.000199     -0.000088      0.000066      0.000000
     81 O2    s       0.000418      0.000313      0.000038      0.000000
     82 O2    s       0.000241     -0.000012      0.000148      0.000000
     83 O2    s       0.000178      0.000225     -0.000270      0.000000
     84 O2    s      -0.000133     -0.000044      0.000128      0.000000
     85 O2    s      -0.000393      0.000011     -0.000563      0.000000
     86 O2    s      -0.000070      0.000010      0.000093      0.000000
     87 O3    s      -0.000243     -0.000028      0.000045      0.000000
     88 O3    s      -0.003534      0.000025      0.000271      0.000000
     89 O2    s       0.000292     -0.000051      0.000017      0.000000
     90 O2    s       0.002885     -0.000198      0.000001      0.000000
     91 O3    s       0.000627      0.000130     -0.000219      0.000000
     92 O2    s       0.002864      0.000446      0.000179      0.000000
     93 O2    s      -0.000215      0.000047      0.000069      0.000000
     94 O2    s      -0.002899      0.000774      0.000078      0.000000
     95 O2    s       0.000320      0.000036      0.000185      0.000000
     96 O2    s      -0.000311     -0.000138     -0.000107      0.000000
     97 O2    s      -0.000002     -0.000107      0.000441      0.000000
     98 O2    s       0.000183      0.000001      0.000145      0.000000
     99 O2    s      -0.000456      0.000024      0.000090      0.000000
    100 O2    s      -0.000069      0.000005      0.000009      0.000000
    101 O2    s       0.000268     -0.000092      0.000100      0.000000
    102 O2    s       0.000677      0.000004      0.000130      0.000000
    103 O2    s      -0.000147     -0.000052     -0.000018      0.000000
    104 O2    s      -0.000127      0.000075     -0.000030      0.000000
    105 O2    s       0.000063     -0.000554     -0.000213      0.000000
    106 O3    s      -0.000435      0.000165     -0.000089      0.000000
    107 O2    s      -0.000082     -0.000353     -0.000019      0.000000
    108 O2    s      -0.000066      0.000005      0.000019      0.000000
    109 O3    s       0.001467      0.000657     -0.000165      0.000000
    110 O3    s      -0.000181     -0.000052     -0.000007      0.000000
    111 O2    s      -0.000901      0.000622      0.000128      0.000000
    112 O2    s       0.000041     -0.000219      0.000080      0.000000
    113 O3    s      -0.000125     -0.000046      0.000062      0.000000
    114 O3    s      -0.000587     -0.000054     -0.000152      0.000000
    115 O3    s       0.000573      0.000023     -0.000276      0.000000
    116 O2    s       0.000295      0.000098     -0.000241      0.000000
    117 O3    s      -0.000311     -0.000074     -0.000006      0.000000
    118 O3    s      -0.000257      0.000011     -0.000015      0.000000
    119 O2    s      -0.000102     -0.000174      0.000004      0.000000
    120 O3    s       0.001372      0.000005     -0.000129      0.000000
--------------------------------------------------------------------------------
  Maximum abs         0.008827      0.002435      0.001483      0.000000
--------------------------------------------------------------------------------


  Born effective charge tensors : 

-------------------------------------------------------------------------------
  Atom             x           y             z
-------------------------------------------------------------------------------
    1 Ge    x       3.9491      0.5024     -0.1754
            y       0.0351      4.1612     -0.3001
            z      -0.1702     -0.0890      3.3719
-------------------------------------------------------------------------------
    2 Ge    x       3.9490      0.5219      0.1868
            y       0.0393      4.1638      0.2861
            z       0.1618      0.0815      3.3648
-------------------------------------------------------------------------------
    3 Ge    x       4.0744      0.3376     -0.1448
            y       0.3703      4.1888     -0.2318
            z      -0.2503     -0.0370      3.3222
-------------------------------------------------------------------------------
    4 Si    x       3.4417      0.0759     -0.2401
            y      -0.1036      3.2437      0.0143
            z      -0.4594     -0.0895      3.8015
-------------------------------------------------------------------------------
    5 Si    x       3.4568      0.0552      0.1895
            y      -0.1033      3.2209      0.0054
            z       0.5331     -0.0177      3.7673
-------------------------------------------------------------------------------
    6 Si    x       3.4526     -0.1667     -0.1676
            y       0.1051      3.2314      0.0053
            z      -0.4969      0.0286      3.8062
-------------------------------------------------------------------------------
    7 Si    x       3.4366     -0.1483      0.2379
            y       0.1213      3.2292     -0.0553
            z       0.4681     -0.0101      3.7854
-------------------------------------------------------------------------------
    8 Si    x       3.6737     -0.0198     -0.2251
            y       0.3911      3.3254      0.0405
            z      -0.5606      0.0322      3.1596
-------------------------------------------------------------------------------
    9 Si    x       3.6613     -0.0166      0.2478
            y       0.4004      3.3302     -0.0563
            z       0.5235      0.0071      3.1825
-------------------------------------------------------------------------------
   10 Si    x       3.5353      0.3644     -0.2765
            y      -0.1278      3.5036      0.0109
            z      -0.5041     -0.1239      3.1726
-------------------------------------------------------------------------------
   11 Si    x       3.4530      0.1286      0.2362
            y      -0.1550      3.2528      0.0386
            z       0.5160     -0.0014      3.1155
-------------------------------------------------------------------------------
   12 Si    x       3.1947      0.2437     -0.0550
            y       0.2484      3.4278     -0.1958
            z      -0.0928     -0.0646      2.8135
-------------------------------------------------------------------------------
   13 Si    x       3.2793      0.2835      0.0039
            y       0.2782      3.5307      0.1117
            z       0.0593     -0.0033      3.1041
-------------------------------------------------------------------------------
   14 Si    x       3.2025     -0.2671     -0.0111
            y      -0.2904      3.4611      0.1974
            z      -0.1300      0.0595      2.7847
-------------------------------------------------------------------------------
   15 Si    x       3.2119     -0.2679      0.0074
            y      -0.2910      3.4588     -0.1989
            z       0.1275     -0.0674      2.7923
-------------------------------------------------------------------------------
   16 Si    x       3.2925      0.3709     -0.0692
            y       0.1670      3.5675     -0.0853
            z      -0.1203      0.0570      3.0725
-------------------------------------------------------------------------------
   17 Si    x       3.2858      0.3662      0.0802
            y       0.1680      3.5785      0.0895
            z       0.1354     -0.0642      3.0685
-------------------------------------------------------------------------------
   18 Si    x       3.1847     -0.3164     -0.0783
            y      -0.1855      3.4859      0.1650
            z      -0.1351      0.0826      2.8113
-------------------------------------------------------------------------------
   19 Si    x       3.2203     -0.3187      0.1231
            y      -0.1923      3.4505     -0.1831
            z       0.1358     -0.0483      2.7918
-------------------------------------------------------------------------------
   20 Si    x       3.3444     -0.2653     -0.1908
            y       0.0815      3.7262      0.0885
            z      -0.1548      0.0222      2.8209
-------------------------------------------------------------------------------
   21 Si    x       3.5936     -0.3098      0.0417
            y      -0.0994      3.5161     -0.2229
            z       0.0628     -0.0782      2.8247
-------------------------------------------------------------------------------
   22 Si    x       3.2868      0.2754      0.1363
            y       0.2436      3.3807      0.1665
            z       0.1785      0.0566      2.7405
-------------------------------------------------------------------------------
   23 Si    x       3.6861     -0.1423     -0.0309
            y      -0.0826      3.7689      0.1852
            z      -0.1665      0.0081      2.8589
-------------------------------------------------------------------------------
   24 Si    x       3.6855     -0.1290      0.0461
            y      -0.0739      3.7783     -0.1826
            z       0.1915     -0.0267      2.8714
-------------------------------------------------------------------------------
   25 O2    x      -1.6427     -0.6976      0.3161
            y      -0.6584     -1.9736      0.3165
            z       0.3572      0.3264     -1.3678
-------------------------------------------------------------------------------
   26 O2    x      -1.6554     -0.7059     -0.2951
            y      -0.6602     -1.9886     -0.3105
            z      -0.3560     -0.3150     -1.3507
-------------------------------------------------------------------------------
   27 O2    x      -1.6524      0.7284      0.2984
            y       0.6688     -2.0348     -0.3233
            z       0.3581     -0.3142     -1.3351
-------------------------------------------------------------------------------
   28 O2    x      -1.6527      0.7238     -0.3212
            y       0.6620     -2.0291      0.3609
            z      -0.3678      0.3493     -1.3518
-------------------------------------------------------------------------------
   29 O2    x      -1.7683     -0.7188      0.2765
            y      -0.7370     -1.9303      0.2960
            z       0.3428      0.2982     -1.3408
-------------------------------------------------------------------------------
   30 O2    x      -1.7615     -0.7194     -0.2890
            y      -0.7397     -1.9329     -0.2916
            z      -0.3474     -0.3031     -1.3411
-------------------------------------------------------------------------------
   31 O2    x      -1.7386      0.7407      0.3447
            y       0.7624     -1.9956     -0.3760
            z       0.3777     -0.3426     -1.3412
-------------------------------------------------------------------------------
   32 O2    x      -1.7394      0.7339     -0.3244
            y       0.7403     -1.9509      0.3406
            z      -0.3677      0.3235     -1.3600
-------------------------------------------------------------------------------
   33 O2    x      -1.6437      0.0089      0.8476
            y      -0.0091     -1.0885      0.0078
            z       1.0717      0.0107     -2.7622
-------------------------------------------------------------------------------
   34 O2    x      -1.6772      0.0154     -0.8624
            y      -0.0075     -1.0800      0.0048
            z      -1.0974      0.0140     -2.7304
-------------------------------------------------------------------------------
   35 O2    x      -1.7047      0.0404     -0.7185
            y       0.0031     -1.1098      0.0481
            z      -0.6943      0.0609     -2.2124
-------------------------------------------------------------------------------
   36 O2    x      -1.6972      0.0453      0.7220
            y       0.0037     -1.1179     -0.0360
            z       0.6961     -0.0470     -2.2181
-------------------------------------------------------------------------------
   37 O2    x      -1.6907      0.0432     -0.7520
            y       0.0358     -1.1229      0.0411
            z      -0.7286      0.0653     -2.2799
-------------------------------------------------------------------------------
   38 O2    x      -1.6648     -0.0064      0.6929
            y       0.0173     -1.1301      0.0144
            z       0.6765      0.0169     -2.2255
-------------------------------------------------------------------------------
   39 O3    x      -2.2184     -0.9417      0.3775
            y      -0.8971     -2.2230      0.4302
            z       0.3819      0.3815     -1.4409
-------------------------------------------------------------------------------
   40 O3    x      -2.2119     -0.9347     -0.3732
            y      -0.8793     -2.2125     -0.4237
            z      -0.3631     -0.3865     -1.4467
-------------------------------------------------------------------------------
   41 O2    x      -1.8308      0.6252      0.3683
            y       0.6426     -1.8126     -0.3701
            z       0.3566     -0.3149     -1.2775
-------------------------------------------------------------------------------
   42 O2    x      -1.7395      0.7008     -0.3187
            y       0.6837     -1.9254      0.3367
            z      -0.3294      0.3176     -1.2586
-------------------------------------------------------------------------------
   43 O3    x      -1.9286     -0.8567      0.4003
            y      -0.7569     -2.5861      0.4123
            z       0.4525      0.4088     -1.3972
-------------------------------------------------------------------------------
   44 O2    x      -1.6782     -0.7072     -0.3476
            y      -0.6197     -2.0216     -0.3775
            z      -0.3803     -0.3678     -1.2419
-------------------------------------------------------------------------------
   45 O2    x      -1.6329      0.6098      0.3306
            y       0.5179     -1.9569     -0.3656
            z       0.3579     -0.3204     -1.2640
-------------------------------------------------------------------------------
   46 O2    x      -1.6328      0.6116     -0.3508
            y       0.5161     -1.9621      0.4014
            z      -0.3681      0.3497     -1.2704
-------------------------------------------------------------------------------
   47 O2    x      -1.7209      0.0183     -0.5408
            y       0.0144     -1.2313      0.0321
            z      -0.2955      0.0419     -1.7479
-------------------------------------------------------------------------------
   48 O2    x      -1.7473      0.0345      0.5550
            y       0.0058     -1.2447     -0.0657
            z       0.2997     -0.0672     -1.7081
-------------------------------------------------------------------------------
   49 O2    x      -1.1689     -0.0374      0.0513
            y      -0.0768     -2.5555      0.0518
            z       0.0743      0.0141     -1.0613
-------------------------------------------------------------------------------
   50 O2    x      -1.1893     -0.0515     -0.0479
            y      -0.0758     -2.5713     -0.0102
            z      -0.0705     -0.0059     -1.0512
-------------------------------------------------------------------------------
   51 O2    x      -1.1965      0.0580      0.0311
            y       0.1249     -2.5776      0.0328
            z       0.0651      0.0423     -1.0504
-------------------------------------------------------------------------------
   52 O2    x      -1.1985      0.0670     -0.0300
            y       0.1302     -2.5835     -0.0452
            z      -0.0647     -0.0481     -1.0511
-------------------------------------------------------------------------------
   53 O2    x      -2.4060      0.0886      0.0004
            y       0.0444     -1.2353      0.0687
            z       0.0067      0.0356     -1.0766
-------------------------------------------------------------------------------
   54 O2    x      -2.4003      0.0821     -0.0499
            y       0.0258     -1.2581     -0.0630
            z      -0.0522     -0.0385     -1.0702
-------------------------------------------------------------------------------
   55 O2    x      -2.3961     -0.1142     -0.0515
            y      -0.0589     -1.2534     -0.0715
            z      -0.0236     -0.0345     -1.0863
-------------------------------------------------------------------------------
   56 O2    x      -2.4061     -0.1140      0.0455
            y      -0.0588     -1.2553      0.0706
            z       0.0137      0.0360     -1.0797
-------------------------------------------------------------------------------
   57 O2    x      -1.2046     -0.1336     -0.0441
            y      -0.1198     -1.2752     -0.0285
            z      -0.0509     -0.0160     -2.0705
-------------------------------------------------------------------------------
   58 O3    x      -1.3551     -0.1643      0.1249
            y      -0.1518     -1.4534      0.0679
            z       0.1102      0.0061     -2.6107
-------------------------------------------------------------------------------
   59 O2    x      -1.2066      0.1120     -0.0864
            y       0.0959     -1.2881      0.0168
            z      -0.0881     -0.0054     -2.0927
-------------------------------------------------------------------------------
   60 O2    x      -1.2176      0.1201      0.0917
            y       0.1034     -1.2915     -0.0051
            z       0.0939      0.0182     -2.0874
-------------------------------------------------------------------------------
   61 O3    x      -1.3232     -0.1635     -0.0650
            y      -0.0800     -1.4811     -0.0936
            z      -0.0110     -0.0899     -2.5912
-------------------------------------------------------------------------------
   62 O3    x      -1.3166     -0.1594      0.0552
            y      -0.0766     -1.4890      0.1065
            z       0.0088      0.1084     -2.5887
-------------------------------------------------------------------------------
   63 O2    x      -1.1675      0.1137     -0.0656
            y       0.0677     -1.3094     -0.0341
            z      -0.0332     -0.0257     -2.0911
-------------------------------------------------------------------------------
   64 O2    x      -1.1963      0.1319      0.0133
            y       0.0791     -1.2795     -0.0428
            z      -0.0145     -0.0639     -2.0784
-------------------------------------------------------------------------------
   65 O3    x      -1.4321      0.0342      0.0926
            y       0.1373     -3.0925      0.0418
            z       0.1350      0.0301     -1.1331
-------------------------------------------------------------------------------
   66 O3    x      -1.4273      0.0347     -0.0976
            y       0.1320     -3.0935     -0.0532
            z      -0.1381     -0.0329     -1.1367
-------------------------------------------------------------------------------
   67 O3    x      -1.4472     -0.1923      0.1250
            y      -0.2766     -3.1134      0.0980
            z       0.1559      0.1194     -1.1545
-------------------------------------------------------------------------------
   68 O2    x      -1.2297     -0.0312     -0.0776
            y      -0.1015     -2.5117      0.0584
            z      -0.0967      0.0338     -1.0301
-------------------------------------------------------------------------------
   69 O3    x      -3.0523     -0.2249      0.0697
            y      -0.1310     -1.3738      0.0840
            z       0.0860      0.0358     -1.2392
-------------------------------------------------------------------------------
   70 O3    x      -3.0610     -0.2239     -0.0860
            y      -0.1226     -1.3713     -0.0786
            z      -0.0965     -0.0289     -1.2322
-------------------------------------------------------------------------------
   71 O2    x      -2.4438      0.1347      0.0063
            y       0.0903     -1.2361     -0.0534
            z       0.0100     -0.0280     -1.0586
-------------------------------------------------------------------------------
   72 O3    x      -3.0789      0.0838      0.0862
            y       0.0457     -1.3716      0.0858
            z       0.0953      0.0374     -1.2123
-------------------------------------------------------------------------------




  Elastic Constant Matrix: (Units=GPa)

-------------------------------------------------------------------------------
  Indices      1         2         3         4         5         6    
-------------------------------------------------------------------------------
       1     55.3692   30.0837   32.8558   -1.0586    3.1564   -1.7902
       2     30.0837   82.2937   23.0610   -0.8327    3.2831   -0.8329
       3     32.8558   23.0610   64.1108   -0.9025    3.6667    0.3458
       4     -1.0586   -0.8327   -0.9025   12.7750   -0.2970    0.0057
       5      3.1564    3.2831    3.6667   -0.2970   23.9879   -1.7698
       6     -1.7902   -0.8329    0.3458    0.0057   -1.7698   28.5943
-------------------------------------------------------------------------------


  Elastic Compliance Matrix: (Units=1/GPa)

-------------------------------------------------------------------------------
  Indices      1         2         3         4         5         6    
-------------------------------------------------------------------------------
       1    0.029515 -0.007233 -0.012470  0.001073 -0.000846  0.001735
       2   -0.007233  0.015324 -0.001751  0.000255 -0.000878 -0.000040
       3   -0.012470 -0.001751  0.022727  0.000420 -0.001678 -0.001210
       4    0.001073  0.000255  0.000420  0.078430  0.000738  0.000100
       5   -0.000846 -0.000878 -0.001678  0.000738  0.042374  0.002564
       6    0.001735 -0.000040 -0.001210  0.000100  0.002564  0.035253
-------------------------------------------------------------------------------

  Mechanical properties :

-------------------------------------------------------------------------------
  Convention :                    Reuss         Voigt         Hill
-------------------------------------------------------------------------------
  Bulk  Modulus (GPa)     =      40.55627      41.53054      41.04340
  Shear Modulus (GPa)     =      18.19835      20.78965      19.49400
-------------------------------------------------------------------------------
  Velocity S-wave (km/s)  =       3.04283       3.25226       3.14929
  Velocity P-wave (km/s)  =       5.74274       5.93570       5.84002
-------------------------------------------------------------------------------
  Compressibility (1/GPa) =    0.02465710
-------------------------------------------------------------------------------
  Stress axis :                     x             y             z
-------------------------------------------------------------------------------
  Youngs Moduli (GPa)     =      33.88103      65.25852      44.00043
-------------------------------------------------------------------------------
  Poissons Ratio (x)      =                     0.47202       0.54869
  Poissons Ratio (y)      =       0.24506                     0.07705
  Poissons Ratio (z)      =       0.42250       0.11428
-------------------------------------------------------------------------------


  Piezoelectric Strain Matrix: (Units=C/m**2)

-------------------------------------------------------------------------------
  Indices      1         2         3         4         5         6    
-------------------------------------------------------------------------------
       x    -0.28512  -0.33251  -0.18202  -0.44903  -0.16856   0.11464
       y     0.02282  -0.29800  -0.15924  -0.23843  -0.55446  -0.14261
       z     0.24382   0.51756   0.06815   0.03173  -0.09469  -0.27763
-------------------------------------------------------------------------------


  Piezoelectric Stress Matrix: (Units=10**-11 C/N)

-------------------------------------------------------------------------------
  Indices      1         2         3         4         5         6    
-------------------------------------------------------------------------------
       x    -0.38805  -0.26856  -0.00436  -3.57978  -0.63415   0.33030
       y     0.47807  -0.40213  -0.23790  -1.92416  -2.35270  -0.62289
       z     0.22354   0.61503  -0.18898   0.28130  -0.54759  -0.97067
-------------------------------------------------------------------------------


  Static dielectric constant tensor : 

-------------------------------------------------------------------------------
              x         y         z
-------------------------------------------------------------------------------
       x     4.02798   0.12558   0.00065
       y     0.12558   4.26241  -0.01185
       z     0.00065  -0.01185   3.20829
--------------------------------------------------------------------------------

  High frequency dielectric constant tensor : 

-------------------------------------------------------------------------------
              x         y         z
-------------------------------------------------------------------------------
       x     1.68260  -0.00048   0.00079
       y    -0.00048   1.68930  -0.00075
       z     0.00079  -0.00075   1.62478
-------------------------------------------------------------------------------

  Static refractive indices : 

-------------------------------------------------------------------------------
    1 =    1.79113      2 =    1.99335      3 =    2.07776
-------------------------------------------------------------------------------

  High frequency refractive indices : 

-------------------------------------------------------------------------------
    1 =    1.27466      2 =    1.29714      3 =    1.29975
-------------------------------------------------------------------------------


  Time to end of optimisation =       8.5023 seconds


  Peak dynamic memory used =       5.01 MB 


  Timing analysis for GULP :

--------------------------------------------------------------------------------
  Task / Subroutine                                          Time (Seconds)
--------------------------------------------------------------------------------
  Calculation of reciprocal space energy and derivatives          0.5706
  Calculation of real space energy and derivatives                5.2565
  Calculation of three-body energy and derivatives                0.4701
  Calculation and manipulation of Hessian matrix                  2.5567
  Calculation of matrix inversion                                 0.0391
  Global summation overhead                                       0.0001
--------------------------------------------------------------------------------
  Total CPU time                                                  8.5023
--------------------------------------------------------------------------------


  Dump file written as c00263.vasp.grs
  CIF file written as c00263.vasp.cif


  Job Finished at 12:14.23  7th October    2025                               

