********************************************************************************
*                       GENERAL UTILITY LATTICE PROGRAM                        *
*                                 Julian Gale                                  *
*                       Curtin Institute for Computation                       *
*                    School of Molecular and Life Sciences                     *
*                    Curtin University, Western Australia                      *
********************************************************************************
* Version = 6.1.2 * Last modified =   3rd November 2022                        *
********************************************************************************
*  optimise     - perform optimisation run                                     *
*  conp         - constant pressure calculation                                *
*  property     - calculate properties for final geometry                      *
********************************************************************************

  Job Started  at 12:10.20  7th October    2025                               

  Number of CPUs =     1


  Total number of configurations input =      1

********************************************************************************
*  Input for Configuration =   1 : c00242.vasp                                 *
********************************************************************************

  Formula = Ge3Si21O48                                                  

  Number of irreducible atoms/shells =     120


  Total number atoms/shells =     120

  Dimensionality = 3               :  Bulk   



  Cartesian lattice vectors (Angstroms) :

       17.182800    0.000000    0.000000
        0.000000    7.513760    0.000000
        0.000000    0.000000   10.447700

  Cell parameters (Angstroms/Degrees):

  a =      17.1828    alpha =  90.0000
  b =       7.5138    beta  =  90.0000
  c =      10.4477    gamma =  90.0000

  Initial cell volume =        1348.875752 Angs**3

  Temperature of configuration =   0.00     K 

  Pressure of configuration =         0.000 GPa 

  Fractional coordinates of asymmetric unit :

--------------------------------------------------------------------------------
   No.  Atomic       x           y          z         Charge      Occupancy
        Label      (Frac)      (Frac)     (Frac)        (e)         (Frac)  
--------------------------------------------------------------------------------
      1 Ge    c    0.160190    0.293910    0.273440     4.00000    1.000000    
      2 Ge    c    0.839340 *  0.705910 *  0.017440 *   4.00000    1.000000    
      3 Ge    c    0.160660 *  0.705910 *  0.982560 *   4.00000    1.000000    
      4 Si    c    0.052090 *  0.000000 *  0.372270 *   4.00000    1.000000    
      5 Si    c    0.447910 *  0.000000 *  0.372270 *   4.00000    1.000000    
      6 Si    c    0.947910 *  0.000000 *  0.627730 *   4.00000    1.000000    
      7 Si    c    0.552090 *  0.000000 *  0.627730 *   4.00000    1.000000    
      8 Si    c    0.556730 *  0.000000 *  0.122130 *   4.00000    1.000000    
      9 Si    c    0.943270 *  0.000000 *  0.122130 *   4.00000    1.000000    
     10 Si    c    0.443270 *  0.000000 *  0.877870 *   4.00000    1.000000    
     11 Si    c    0.056730 *  0.000000 *  0.877870 *   4.00000    1.000000    
     12 Si    c    0.339810 *  0.706090 *  0.273440 *   4.00000    1.000000    
     13 Si    c    0.839810 *  0.293910 *  0.726560 *   4.00000    1.000000    
     14 Si    c    0.660190 *  0.706090 *  0.726560 *   4.00000    1.000000    
     15 Si    c    0.839810 *  0.706090 *  0.726560 *   4.00000    1.000000    
     16 Si    c    0.660190 *  0.293910 *  0.726560 *   4.00000    1.000000    
     17 Si    c    0.160190 *  0.706090 *  0.273440 *   4.00000    1.000000    
     18 Si    c    0.339810 *  0.293910 *  0.273440 *   4.00000    1.000000    
     19 Si    c    0.660660 *  0.294090 *  0.017440 *   4.00000    1.000000    
     20 Si    c    0.339340 *  0.294090 *  0.982560 *   4.00000    1.000000    
     21 Si    c    0.339340 *  0.705910 *  0.982560 *   4.00000    1.000000    
     22 Si    c    0.160660 *  0.294090 *  0.982560 *   4.00000    1.000000    
     23 Si    c    0.660660 *  0.705910 *  0.017440 *   4.00000    1.000000    
     24 Si    c    0.839340 *  0.294090 *  0.017440 *   4.00000    1.000000    
     25 O3    c    0.106570 *  0.174340 *  0.366200 *   1.33043    1.000000    
     26 O2    c    0.393430 *  0.825660 *  0.366200 *   0.87073    1.000000    
     27 O2    c    0.893430 *  0.174340 *  0.633800 *   0.87073    1.000000    
     28 O2    c    0.606570 *  0.825660 *  0.633800 *   0.87073    1.000000    
     29 O2    c    0.893430 *  0.825660 *  0.633800 *   0.87073    1.000000    
     30 O2    c    0.606570 *  0.174340 *  0.633800 *   0.87073    1.000000    
     31 O2    c    0.106570 *  0.825660 *  0.366200 *   0.87073    1.000000    
     32 O2    c    0.393430 *  0.174340 *  0.366200 *   0.87073    1.000000    
     33 O2    c    0.000000 *  0.000000 *  0.500000 *   0.87073    1.000000    
     34 O2    c    0.500000 *  0.000000 *  0.500000 *   0.87073    1.000000    
     35 O2    c    0.994520 *  0.000000 *  0.250840 *   0.87073    1.000000    
     36 O2    c    0.505480 *  0.000000 *  0.250840 *   0.87073    1.000000    
     37 O2    c    0.005480 *  0.000000 *  0.749160 *   0.87073    1.000000    
     38 O2    c    0.494520 *  0.000000 *  0.749160 *   0.87073    1.000000    
     39 O2    c    0.610230 *  0.175520 *  0.115390 *   0.87073    1.000000    
     40 O3    c    0.889770 *  0.824480 *  0.115390 *   1.33043    1.000000    
     41 O2    c    0.389770 *  0.175520 *  0.884610 *   0.87073    1.000000    
     42 O3    c    0.110230 *  0.824480 *  0.884610 *   1.33043    1.000000    
     43 O2    c    0.389770 *  0.824480 *  0.884610 *   0.87073    1.000000    
     44 O2    c    0.110230 *  0.175520 *  0.884610 *   0.87073    1.000000    
     45 O2    c    0.610230 *  0.824480 *  0.115390 *   0.87073    1.000000    
     46 O2    c    0.889770 *  0.175520 *  0.115390 *   0.87073    1.000000    
     47 O2    c    0.500000 *  0.000000 *  0.000000 *   0.87073    1.000000    
     48 O2    c    0.000000 *  0.000000 *  0.000000 *   0.87073    1.000000    
     49 O3    c    0.151750 *  0.500000 *  0.313330 *   1.33043    1.000000    
     50 O2    c    0.348250 *  0.500000 *  0.313330 *   0.87073    1.000000    
     51 O2    c    0.848250 *  0.500000 *  0.686670 *   0.87073    1.000000    
     52 O2    c    0.651750 *  0.500000 *  0.686670 *   0.87073    1.000000    
     53 O3    c    0.250000 *  0.234950 *  0.285720 *   1.33043    1.000000    
     54 O2    c    0.250000 *  0.765050 *  0.285720 *   0.87073    1.000000    
     55 O2    c    0.750000 *  0.234950 *  0.714280 *   0.87073    1.000000    
     56 O2    c    0.750000 *  0.765050 *  0.714280 *   0.87073    1.000000    
     57 O3    c    0.131410 *  0.268650 *  0.127790 *   1.33043    1.000000    
     58 O2    c    0.368590 *  0.731350 *  0.127790 *   0.87073    1.000000    
     59 O2    c    0.868590 *  0.268650 *  0.872210 *   0.87073    1.000000    
     60 O2    c    0.631410 *  0.731350 *  0.872210 *   0.87073    1.000000    
     61 O3    c    0.868590 *  0.731350 *  0.872210 *   1.33043    1.000000    
     62 O2    c    0.631410 *  0.268650 *  0.872210 *   0.87073    1.000000    
     63 O3    c    0.131410 *  0.731350 *  0.127790 *   1.33043    1.000000    
     64 O2    c    0.368590 *  0.268650 *  0.127790 *   0.87073    1.000000    
     65 O2    c    0.653920 *  0.500000 *  0.058200 *   0.87073    1.000000    
     66 O3    c    0.846080 *  0.500000 *  0.058200 *   1.33043    1.000000    
     67 O2    c    0.346080 *  0.500000 *  0.941800 *   0.87073    1.000000    
     68 O3    c    0.153920 *  0.500000 *  0.941800 *   1.33043    1.000000    
     69 O2    c    0.750000 *  0.231060 *  0.027050 *   0.87073    1.000000    
     70 O3    c    0.750000 *  0.768940 *  0.027050 *   1.33043    1.000000    
     71 O2    c    0.250000 *  0.231060 *  0.972950 *   0.87073    1.000000    
     72 O3    c    0.250000 *  0.768940 *  0.972950 *   1.33043    1.000000    
     73 O3    s    0.106570 *  0.174340 *  0.366200 *  -3.33043    1.000000    
     74 O2    s    0.393430 *  0.825660 *  0.366200 *  -2.87073    1.000000    
     75 O2    s    0.893430 *  0.174340 *  0.633800 *  -2.87073    1.000000    
     76 O2    s    0.606570 *  0.825660 *  0.633800 *  -2.87073    1.000000    
     77 O2    s    0.893430 *  0.825660 *  0.633800 *  -2.87073    1.000000    
     78 O2    s    0.606570 *  0.174340 *  0.633800 *  -2.87073    1.000000    
     79 O2    s    0.106570 *  0.825660 *  0.366200 *  -2.87073    1.000000    
     80 O2    s    0.393430 *  0.174340 *  0.366200 *  -2.87073    1.000000    
     81 O2    s    0.000000 *  0.000000 *  0.500000 *  -2.87073    1.000000    
     82 O2    s    0.500000 *  0.000000 *  0.500000 *  -2.87073    1.000000    
     83 O2    s    0.994520 *  0.000000 *  0.250840 *  -2.87073    1.000000    
     84 O2    s    0.505480 *  0.000000 *  0.250840 *  -2.87073    1.000000    
     85 O2    s    0.005480 *  0.000000 *  0.749160 *  -2.87073    1.000000    
     86 O2    s    0.494520 *  0.000000 *  0.749160 *  -2.87073    1.000000    
     87 O2    s    0.610230 *  0.175520 *  0.115390 *  -2.87073    1.000000    
     88 O3    s    0.889770 *  0.824480 *  0.115390 *  -3.33043    1.000000    
     89 O2    s    0.389770 *  0.175520 *  0.884610 *  -2.87073    1.000000    
     90 O3    s    0.110230 *  0.824480 *  0.884610 *  -3.33043    1.000000    
     91 O2    s    0.389770 *  0.824480 *  0.884610 *  -2.87073    1.000000    
     92 O2    s    0.110230 *  0.175520 *  0.884610 *  -2.87073    1.000000    
     93 O2    s    0.610230 *  0.824480 *  0.115390 *  -2.87073    1.000000    
     94 O2    s    0.889770 *  0.175520 *  0.115390 *  -2.87073    1.000000    
     95 O2    s    0.500000 *  0.000000 *  0.000000 *  -2.87073    1.000000    
     96 O2    s    0.000000 *  0.000000 *  0.000000 *  -2.87073    1.000000    
     97 O3    s    0.151750 *  0.500000 *  0.313330 *  -3.33043    1.000000    
     98 O2    s    0.348250 *  0.500000 *  0.313330 *  -2.87073    1.000000    
     99 O2    s    0.848250 *  0.500000 *  0.686670 *  -2.87073    1.000000    
    100 O2    s    0.651750 *  0.500000 *  0.686670 *  -2.87073    1.000000    
    101 O3    s    0.250000 *  0.234950 *  0.285720 *  -3.33043    1.000000    
    102 O2    s    0.250000 *  0.765050 *  0.285720 *  -2.87073    1.000000    
    103 O2    s    0.750000 *  0.234950 *  0.714280 *  -2.87073    1.000000    
    104 O2    s    0.750000 *  0.765050 *  0.714280 *  -2.87073    1.000000    
    105 O3    s    0.131410 *  0.268650 *  0.127790 *  -3.33043    1.000000    
    106 O2    s    0.368590 *  0.731350 *  0.127790 *  -2.87073    1.000000    
    107 O2    s    0.868590 *  0.268650 *  0.872210 *  -2.87073    1.000000    
    108 O2    s    0.631410 *  0.731350 *  0.872210 *  -2.87073    1.000000    
    109 O3    s    0.868590 *  0.731350 *  0.872210 *  -3.33043    1.000000    
    110 O2    s    0.631410 *  0.268650 *  0.872210 *  -2.87073    1.000000    
    111 O3    s    0.131410 *  0.731350 *  0.127790 *  -3.33043    1.000000    
    112 O2    s    0.368590 *  0.268650 *  0.127790 *  -2.87073    1.000000    
    113 O2    s    0.653920 *  0.500000 *  0.058200 *  -2.87073    1.000000    
    114 O3    s    0.846080 *  0.500000 *  0.058200 *  -3.33043    1.000000    
    115 O2    s    0.346080 *  0.500000 *  0.941800 *  -2.87073    1.000000    
    116 O3    s    0.153920 *  0.500000 *  0.941800 *  -3.33043    1.000000    
    117 O2    s    0.750000 *  0.231060 *  0.027050 *  -2.87073    1.000000    
    118 O3    s    0.750000 *  0.768940 *  0.027050 *  -3.33043    1.000000    
    119 O2    s    0.250000 *  0.231060 *  0.972950 *  -2.87073    1.000000    
    120 O3    s    0.250000 *  0.768940 *  0.972950 *  -3.33043    1.000000    
--------------------------------------------------------------------------------



********************************************************************************
*  General input information                                                   *
********************************************************************************

  Species output for all configurations : 

--------------------------------------------------------------------------------
  Species    Type    Atomic    Atomic    Charge       Radii (Angs)     Library
                     Number     Mass       (e)     Cova   Ionic  VDW   Symbol
--------------------------------------------------------------------------------
    Ge       Core       32      72.61   4.000000   1.170  0.000  1.750 Ge       
    Si       Core       14      28.09   4.000000   1.200  0.000  2.100 Si       
    O1       Core        8      16.00   1.733957   0.730  0.000  0.000 O1       
    O2       Core        8      16.00   0.870733   0.730  0.000  1.360 O2       
    O3       Core        8      16.00   1.330431   0.730  0.000  1.360 O3       
    O1       Shell       8       0.00  -3.733957   0.730  0.000  0.000 O1       
    O2       Shell       8       0.00  -2.870733   0.730  0.000  0.000 O2       
    O3       Shell       8       0.00  -3.330431   0.730  0.000  0.000 O3       
--------------------------------------------------------------------------------


  Lattice summation method               =    Ewald          (3-D)
                                         =    Parry          (2-D)
                                         =    Saunders et al (1-D)
  Accuracy factor for lattice sums       =   12.000


  Analytic derivatives to be used

  Time limit = Infinity

  Maximum range for interatomic potentials =    100000.000000 Angstroms

  General interatomic potentials :

--------------------------------------------------------------------------------
Atom  Types   Potential      Parameter       Value         Units   Cutoffs(Ang)
  1     2                                                            Min /  Max 
--------------------------------------------------------------------------------
Si   c O1   s Buckingham    Buckingham A     1315.2478    eV        0.000 16.000
                            Buckingham rho  0.31775900    Ang       
                            Buckingham C     10.141118    eV*Ang^6  
--------------------------------------------------------------------------------
Si   c O2   s Buckingham    Buckingham A     1315.2478    eV        0.000 16.000
                            Buckingham rho  0.31775900    Ang       
                            Buckingham C     10.141118    eV*Ang^6  
--------------------------------------------------------------------------------
Si   c O3   s Buckingham    Buckingham A     1315.2478    eV        0.000 16.000
                            Buckingham rho  0.31775900    Ang       
                            Buckingham C     10.141118    eV*Ang^6  
--------------------------------------------------------------------------------
Ge   c O1   s Buckingham    Buckingham A     1497.3996    eV        0.000 16.000
                            Buckingham rho  0.32564600    Ang       
                            Buckingham C     16.808599    eV*Ang^6  
--------------------------------------------------------------------------------
Ge   c O2   s Buckingham    Buckingham A     1497.3996    eV        0.000 16.000
                            Buckingham rho  0.32564600    Ang       
                            Buckingham C     16.808599    eV*Ang^6  
--------------------------------------------------------------------------------
Ge   c O3   s Buckingham    Buckingham A     1497.3996    eV        0.000 16.000
                            Buckingham rho  0.32564600    Ang       
                            Buckingham C     16.808599    eV*Ang^6  
--------------------------------------------------------------------------------
O1   s O1   s Buckingham    Buckingham A     22764.000    eV        0.000 16.000
                            Buckingham rho  0.14900000    Ang       
                            Buckingham C     10.937044    eV*Ang^6  
--------------------------------------------------------------------------------
O1   s O2   s Buckingham    Buckingham A     22764.000    eV        0.000 16.000
                            Buckingham rho  0.14900000    Ang       
                            Buckingham C     10.937044    eV*Ang^6  
--------------------------------------------------------------------------------
O1   s O3   s Buckingham    Buckingham A     22764.000    eV        0.000 16.000
                            Buckingham rho  0.14900000    Ang       
                            Buckingham C     10.937044    eV*Ang^6  
--------------------------------------------------------------------------------
O2   s O2   s Buckingham    Buckingham A     22764.000    eV        0.000 16.000
                            Buckingham rho  0.14900000    Ang       
                            Buckingham C     10.937044    eV*Ang^6  
--------------------------------------------------------------------------------
O2   s O3   s Buckingham    Buckingham A     22764.000    eV        0.000 16.000
                            Buckingham rho  0.14900000    Ang       
                            Buckingham C     10.937044    eV*Ang^6  
--------------------------------------------------------------------------------
O3   s O3   s Buckingham    Buckingham A     22764.000    eV        0.000 16.000
                            Buckingham rho  0.14900000    Ang       
                            Buckingham C     10.937044    eV*Ang^6  
--------------------------------------------------------------------------------
O1   c O1   s Spring (c-s)  Spring k 2       180.31577    eV*Ang^-2 0.000  0.800
                            Spring k 4       0.0000000    eV*Ang^-4 
--------------------------------------------------------------------------------
O2   c O2   s Spring (c-s)  Spring k 2       75.969800    eV*Ang^-2 0.000  0.800
                            Spring k 4       0.0000000    eV*Ang^-4 
--------------------------------------------------------------------------------
O3   c O3   s Spring (c-s)  Spring k 2       128.14270    eV*Ang^-2 0.000  0.800
                            Spring k 4       0.0000000    eV*Ang^-4 
--------------------------------------------------------------------------------

  General Three-body potentials :

--------------------------------------------------------------------------------
  Atoms       Potential      Parameter       Value         Units   Cutoffs(Ang)
  1 / 2 / 3                                                          Min /  Max 
--------------------------------------------------------------------------------
Si    core    Harmonic      Three-body cnst  1.2614000    eV*rad^-2 0.000  1.900
O1    shel                  Three-body angl  109.47000    degrees   0.000  1.900
O1    shel                  Three-body k4    0.0000000    eV*rad^-4 0.000  3.500
                            Three-body k3    0.0000000    eV*rad^-3 
--------------------------------------------------------------------------------
Si    core    Harmonic      Three-body cnst  1.2614000    eV*rad^-2 0.000  1.900
O1    shel                  Three-body angl  109.47000    degrees   0.000  1.900
õ(1   shel                  Three-body k4    0.0000000    eV*rad^-4 0.000  3.500
                            Three-body k3    0.0000000    eV*rad^-3 
--------------------------------------------------------------------------------
Si    core    Harmonic      Three-body cnst  1.2614000    eV*rad^-2 0.000  1.900
õ(1   shel                  Three-body angl  109.47000    degrees   0.000  1.900
õ(1   shel                  Three-body k4    0.0000000    eV*rad^-4 0.000  3.500
                            Three-body k3    0.0000000    eV*rad^-3 
--------------------------------------------------------------------------------
Si    core    Harmonic      Three-body cnst  1.2614000    eV*rad^-2 0.000  1.900
O1    shel                  Three-body angl  109.47000    degrees   0.000  1.900
O2    shel                  Three-body k4    0.0000000    eV*rad^-4 0.000  3.500
                            Three-body k3    0.0000000    eV*rad^-3 
--------------------------------------------------------------------------------
Si    core    Harmonic      Three-body cnst  1.2614000    eV*rad^-2 0.000  1.900
O1    shel                  Three-body angl  109.47000    degrees   0.000  1.900
õ(2   shel                  Three-body k4    0.0000000    eV*rad^-4 0.000  3.500
                            Three-body k3    0.0000000    eV*rad^-3 
--------------------------------------------------------------------------------
Si    core    Harmonic      Three-body cnst  1.2614000    eV*rad^-2 0.000  1.900
O2    shel                  Three-body angl  109.47000    degrees   0.000  1.900
õ(1   shel                  Three-body k4    0.0000000    eV*rad^-4 0.000  3.500
                            Three-body k3    0.0000000    eV*rad^-3 
--------------------------------------------------------------------------------
Si    core    Harmonic      Three-body cnst  1.2614000    eV*rad^-2 0.000  1.900
õ(1   shel                  Three-body angl  109.47000    degrees   0.000  1.900
õ(2   shel                  Three-body k4    0.0000000    eV*rad^-4 0.000  3.500
                            Three-body k3    0.0000000    eV*rad^-3 
--------------------------------------------------------------------------------
Si    core    Harmonic      Three-body cnst  1.2614000    eV*rad^-2 0.000  1.900
O2    shel                  Three-body angl  109.47000    degrees   0.000  1.900
O2    shel                  Three-body k4    0.0000000    eV*rad^-4 0.000  3.500
                            Three-body k3    0.0000000    eV*rad^-3 
--------------------------------------------------------------------------------
Si    core    Harmonic      Three-body cnst  1.2614000    eV*rad^-2 0.000  1.900
O2    shel                  Three-body angl  109.47000    degrees   0.000  1.900
õ(2   shel                  Three-body k4    0.0000000    eV*rad^-4 0.000  3.500
                            Three-body k3    0.0000000    eV*rad^-3 
--------------------------------------------------------------------------------
Si    core    Harmonic      Three-body cnst  1.2614000    eV*rad^-2 0.000  1.900
õ(2   shel                  Three-body angl  109.47000    degrees   0.000  1.900
õ(2   shel                  Three-body k4    0.0000000    eV*rad^-4 0.000  3.500
                            Three-body k3    0.0000000    eV*rad^-3 
--------------------------------------------------------------------------------

********************************************************************************
*  Output for configuration   1 : c00242.vasp                                  *
********************************************************************************


  Components of energy : 

--------------------------------------------------------------------------------
  Interatomic potentials     =         760.31794850 eV    
  Three-body potentials      =           0.01446504 eV    
  Monopole - monopole (real) =       -2676.00317478 eV    
  Monopole - monopole (recip)=       -1115.35404472 eV    
  Monopole - monopole (total)=       -3791.35721950 eV    
--------------------------------------------------------------------------------
  Total lattice energy       =       -3031.02480596 eV    
--------------------------------------------------------------------------------
  Total lattice energy       =         -292447.5603 kJ/(mole unit cells)
--------------------------------------------------------------------------------


  Number of variables =      363

  Maximum number of calculations  =          1000
  Maximum Hessian update interval =            10
  Maximum step size               =   0.100000000
  Maximum parameter tolerance     =   0.000010000
  Maximum function  tolerance     =   0.000010000
  Maximum gradient  tolerance     =   0.001000000
  Maximum gradient  component     =   0.010000000

  Symmetry not applied to optimisation

  Cell parameters to be optimised using strains

  Newton-Raphson optimiser to be used

  BFGS hessian update to be used

  Lower half triangular hessian to be used

  Minimiser to switch to RFO
  When gradient norm is less than     0.050000

  Dumpfile to be written after every cycle

  Start of bulk optimisation :

  Cycle:      0 Energy:     -3031.024806  Gnorm:      4.457160  CPU:    0.131
  ** Hessian calculated **
  Cycle:      1 Energy:     -3046.741945  Gnorm:      3.349681  CPU:    0.358
  ** Hessian calculated **
  Cycle:      2 Energy:     -3064.040486  Gnorm:      0.743375  CPU:    0.596
  ** Hessian calculated **
  Cycle:      3 Energy:     -3065.511495  Gnorm:      0.431313  CPU:    0.831
  Cycle:      4 Energy:     -3066.050193  Gnorm:      0.286281  CPU:    0.953
  Cycle:      5 Energy:     -3066.504494  Gnorm:      0.215593  CPU:    1.097
  Cycle:      6 Energy:     -3066.884097  Gnorm:      0.166746  CPU:    1.244
  Cycle:      7 Energy:     -3067.111596  Gnorm:      0.142605  CPU:    1.366
  Cycle:      8 Energy:     -3067.248003  Gnorm:      0.101323  CPU:    1.486
  Cycle:      9 Energy:     -3067.313072  Gnorm:      0.066434  CPU:    1.607
  Cycle:     10 Energy:     -3067.350661  Gnorm:      0.052767  CPU:    1.751
  Cycle:     11 Energy:     -3067.377450  Gnorm:      0.050665  CPU:    1.895
  Cycle:     12 Energy:     -3067.400496  Gnorm:      0.051780  CPU:    2.017
  ** Hessian calculated **
  Cycle:     13 Energy:     -3067.412307  Gnorm:      0.051296  CPU:    2.275
  Cycle:     14 Energy:     -3067.433040  Gnorm:      0.050413  CPU:    2.446
  Cycle:     15 Energy:     -3067.468131  Gnorm:      0.048841  CPU:    2.617
  ** Hessian has wrong structure
  ** Imaginary eigenvectors =   2
  Cycle:     16 Energy:     -3067.469927  Gnorm:      0.043150  CPU:    2.991
  ** Hessian has wrong structure
  ** Imaginary eigenvectors =   2
  ** Hessian has wrong structure
  ** Imaginary eigenvectors =   1
  Cycle:     17 Energy:     -3067.487259  Gnorm:      0.042958  CPU:    3.670
  ** Hessian has wrong structure
  ** Imaginary eigenvectors =   1
  ** Hessian has wrong structure
  ** Imaginary eigenvectors =   1
  Cycle:     18 Energy:     -3067.626392  Gnorm:      0.040259  CPU:    4.253
  ** Hessian has wrong structure
  ** Imaginary eigenvectors =   1
  Cycle:     19 Energy:     -3067.789873  Gnorm:      0.037498  CPU:    4.658
  ** Hessian has wrong structure
  ** Imaginary eigenvectors =   1
  Cycle:     20 Energy:     -3067.914007  Gnorm:      0.058705  CPU:    5.113
  ** Hessian has required structure
  Cycle:     21 Energy:     -3068.031903  Gnorm:      0.033620  CPU:    5.434
  ** Hessian has required structure
  Cycle:     22 Energy:     -3068.082629  Gnorm:      0.026851  CPU:    5.655
  ** Hessian has required structure
  Cycle:     23 Energy:     -3068.122156  Gnorm:      0.023244  CPU:    5.873
  ** Hessian has required structure
  Cycle:     24 Energy:     -3068.147949  Gnorm:      0.028436  CPU:    6.069
  ** Hessian has required structure
  Cycle:     25 Energy:     -3068.176805  Gnorm:      0.022194  CPU:    6.263
  ** Hessian has required structure
  Cycle:     26 Energy:     -3068.188824  Gnorm:      0.015096  CPU:    6.457
  ** Hessian has required structure
  Cycle:     27 Energy:     -3068.200296  Gnorm:      0.019160  CPU:    6.674
  ** Hessian has required structure
  Cycle:     28 Energy:     -3068.212080  Gnorm:      0.016956  CPU:    6.889
  ** Hessian has required structure
  Cycle:     29 Energy:     -3068.221345  Gnorm:      0.015418  CPU:    7.083
  ** Hessian has required structure
  Cycle:     30 Energy:     -3068.232514  Gnorm:      0.016068  CPU:    7.274
  ** Hessian has required structure
  Cycle:     31 Energy:     -3068.244221  Gnorm:      0.008006  CPU:    7.588
  ** Hessian has required structure
  Cycle:     32 Energy:     -3068.246957  Gnorm:      0.004139  CPU:    7.803
  ** Hessian has required structure
  Cycle:     33 Energy:     -3068.247650  Gnorm:      0.002019  CPU:    8.017
  ** Hessian has required structure
  Cycle:     34 Energy:     -3068.247830  Gnorm:      0.001059  CPU:    8.234
  ** Hessian has required structure
  Cycle:     35 Energy:     -3068.247879  Gnorm:      0.000490  CPU:    8.451
  ** Hessian has required structure
  Cycle:     36 Energy:     -3068.247890  Gnorm:      0.000309  CPU:    8.647
  ** Hessian has required structure
  Cycle:     37 Energy:     -3068.247893  Gnorm:      0.000195  CPU:    8.815
  ** Hessian has required structure
  Cycle:     38 Energy:     -3068.247895  Gnorm:      0.000148  CPU:    8.979
  ** Hessian has required structure
  Cycle:     39 Energy:     -3068.247895  Gnorm:      0.000123  CPU:    9.145
  ** Hessian has required structure
  Cycle:     40 Energy:     -3068.247895  Gnorm:      0.000118  CPU:    9.309
  ** Hessian has required structure
  Cycle:     41 Energy:     -3068.247895  Gnorm:      0.000116  CPU:    9.705
  ** Hessian has required structure
  Cycle:     42 Energy:     -3068.247895  Gnorm:      0.000116  CPU:    9.871
  ** Hessian has required structure
  Cycle:     43 Energy:     -3068.247895  Gnorm:      0.000116  CPU:   10.036
  ** Hessian has required structure
  Cycle:     44 Energy:     -3068.247895  Gnorm:      0.000118  CPU:   10.316
  ** Hessian has required structure
  Cycle:     45 Energy:     -3068.247895  Gnorm:      0.000083  CPU:   10.583
  ** Hessian has required structure


  **** Optimisation achieved ****


  Final energy =   -3068.24789564 eV      
  Final Gnorm  =       0.00005810

  Components of energy : 

--------------------------------------------------------------------------------
  Interatomic potentials     =         816.02869485 eV    
  Three-body potentials      =           0.21567102 eV    
  Monopole - monopole (real) =       -2203.44723962 eV    
  Monopole - monopole (recip)=       -1681.04502188 eV    
  Monopole - monopole (total)=       -3884.49226151 eV    
--------------------------------------------------------------------------------
  Total lattice energy       =       -3068.24789564 eV    
--------------------------------------------------------------------------------
  Total lattice energy       =         -296039.0195 kJ/(mole unit cells)
--------------------------------------------------------------------------------

  Final fractional coordinates of atoms :

--------------------------------------------------------------------------------
   No.  Atomic        x           y          z          Radius
        Label       (Frac)      (Frac)     (Frac)       (Angs) 
--------------------------------------------------------------------------------
     1  Ge    c     0.160190    0.293910    0.273440    0.000000
     2  Ge    c     0.845281    0.681819    0.014576    0.000000
     3  Ge    c     0.142719    0.678578    0.951788    0.000000
     4  Si    c     0.042892    0.011652    0.354932    0.000000
     5  Si    c     0.446416    0.021428    0.353968    0.000000
     6  Si    c     0.938669    0.000874    0.605058    0.000000
     7  Si    c     0.541029    0.010742    0.619591    0.000000
     8  Si    c     0.552107    0.006767    0.108442    0.000000
     9  Si    c     0.942500    0.999689    0.098365    0.000000
    10  Si    c     0.435532    0.002668    0.870437    0.000000
    11  Si    c     0.047741    0.992319    0.851420    0.000000
    12  Si    c     0.327726    0.731480    0.256416    0.000000
    13  Si    c     0.825773    0.291038    0.698660    0.000000
    14  Si    c     0.657426    0.720859    0.707755    0.000000
    15  Si    c     0.837286    0.697169    0.704415    0.000000
    16  Si    c     0.646148    0.317058    0.700218    0.000000
    17  Si    c     0.147438    0.708711    0.259546    0.000000
    18  Si    c     0.342850    0.328524    0.270739    0.000000
    19  Si    c     0.647386    0.317013    0.004099    0.000000
    20  Si    c     0.338553    0.316353    0.965350    0.000000
    21  Si    c     0.325214    0.710822    0.950012    0.000000
    22  Si    c     0.158336    0.271287    0.965627    0.000000
    23  Si    c     0.661574    0.714799    0.013959    0.000000
    24  Si    c     0.827919    0.277963    0.003778    0.000000
    25  O3    c     0.104181    0.168583    0.374920    0.000000
    26  O2    c     0.379563    0.874615    0.333049    0.000000
    27  O2    c     0.876740    0.160797    0.610324    0.000000
    28  O2    c     0.604294    0.853794    0.625185    0.000000
    29  O2    c     0.894046    0.815473    0.617942    0.000000
    30  O2    c     0.586627    0.196817    0.615752    0.000000
    31  O2    c     0.091387    0.830093    0.346997    0.000000
    32  O2    c     0.406934    0.214401    0.349641    0.000000
    33  O2    c     0.979842    0.000294    0.466964    0.000000
    34  O2    c     0.486680    0.990969    0.493049    0.000000
    35  O2    c     0.995089    0.052859    0.221969    0.000000
    36  O2    c     0.513855    0.003426    0.248695    0.000000
    37  O2    c     0.005742    0.029685    0.714244    0.000000
    38  O2    c     0.485619    0.999055    0.742289    0.000000
    39  O2    c     0.592100    0.196218    0.089543    0.000000
    40  O3    c     0.912437    0.800911    0.106087    0.000000
    41  O2    c     0.392776    0.190413    0.880161    0.000000
    42  O3    c     0.077702    0.793331    0.855046    0.000000
    43  O2    c     0.372507    0.845870    0.862139    0.000000
    44  O2    c     0.121504    0.123504    0.869586    0.000000
    45  O2    c     0.615887    0.852417    0.103358    0.000000
    46  O2    c     0.866005    0.124126    0.089134    0.000000
    47  O2    c     0.488003    0.967635    0.997529    0.000000
    48  O2    c     0.989477    0.035092    0.967764    0.000000
    49  O3    c     0.126919    0.507168    0.281026    0.000000
    50  O2    c     0.360479    0.536726    0.287599    0.000000
    51  O2    c     0.854778    0.490847    0.678806    0.000000
    52  O2    c     0.627705    0.522462    0.678318    0.000000
    53  O3    c     0.257220    0.288010    0.321989    0.000000
    54  O2    c     0.238047    0.745252    0.301810    0.000000
    55  O2    c     0.734634    0.275111    0.657387    0.000000
    56  O2    c     0.747346    0.739277    0.665547    0.000000
    57  O3    c     0.153298    0.213944    0.115154    0.000000
    58  O2    c     0.328357    0.769467    0.102109    0.000000
    59  O2    c     0.835370    0.236984    0.849464    0.000000
    60  O2    c     0.653699    0.766696    0.861578    0.000000
    61  O3    c     0.854736    0.744613    0.854121    0.000000
    62  O2    c     0.634703    0.268796    0.851693    0.000000
    63  O3    c     0.133891    0.758519    0.109206    0.000000
    64  O2    c     0.348651    0.273430    0.118335    0.000000
    65  O2    c     0.625720    0.519731    0.032225    0.000000
    66  O3    c     0.868236    0.463367    0.035069    0.000000
    67  O2    c     0.363080    0.516539    0.936083    0.000000
    68  O3    c     0.117385    0.459263    0.946585    0.000000
    69  O2    c     0.737498    0.286396    0.043219    0.000000
    70  O3    c     0.750658    0.718450    0.060638    0.000000
    71  O2    c     0.248422    0.290882    0.924543    0.000000
    72  O3    c     0.236744    0.708092    0.899563    0.000000
    73  O3    s     0.102666    0.163248    0.364670    0.000000
    74  O2    s     0.380946    0.874405    0.326568    0.000000
    75  O2    s     0.877695    0.158158    0.619570    0.000000
    76  O2    s     0.603467    0.855761    0.633899    0.000000
    77  O2    s     0.892640    0.822502    0.626011    0.000000
    78  O2    s     0.588365    0.190402    0.625428    0.000000
    79  O2    s     0.092272    0.836261    0.338409    0.000000
    80  O2    s     0.404179    0.206323    0.341602    0.000000
    81  O2    s     0.982374    0.001707    0.470053    0.000000
    82  O2    s     0.488379    0.996845    0.491706    0.000000
    83  O2    s     0.994204    0.042333    0.222026    0.000000
    84  O2    s     0.510662    0.005862    0.244254    0.000000
    85  O2    s     0.003068    0.022246    0.717709    0.000000
    86  O2    s     0.486061    0.000847    0.743466    0.000000
    87  O2    s     0.594008    0.189353    0.081887    0.000000
    88  O3    s     0.909965    0.810777    0.097930    0.000000
    89  O2    s     0.391328    0.184145    0.888744    0.000000
    90  O3    s     0.080027    0.803625    0.862573    0.000000
    91  O2    s     0.374083    0.847911    0.872815    0.000000
    92  O2    s     0.117707    0.125586    0.878131    0.000000
    93  O2    s     0.614016    0.853949    0.093794    0.000000
    94  O2    s     0.869798    0.128061    0.080560    0.000000
    95  O2    s     0.489369    0.976074    0.995777    0.000000
    96  O2    s     0.990742    0.026497    0.969366    0.000000
    97  O3    s     0.131786    0.510232    0.278203    0.000000
    98  O2    s     0.355186    0.535412    0.282531    0.000000
    99  O2    s     0.849830    0.491371    0.683601    0.000000
   100  O2    s     0.632860    0.521349    0.683806    0.000000
   101  O3    s     0.257955    0.292534    0.312955    0.000000
   102  O2    s     0.238296    0.740056    0.292714    0.000000
   103  O2    s     0.734971    0.281329    0.666332    0.000000
   104  O2    s     0.747216    0.732799    0.674150    0.000000
   105  O3    s     0.154337    0.225922    0.113086    0.000000
   106  O2    s     0.327951    0.759247    0.102645    0.000000
   107  O2    s     0.833527    0.247060    0.849487    0.000000
   108  O2    s     0.654915    0.756430    0.861184    0.000000
   109  O3    s     0.852241    0.734838    0.852004    0.000000
   110  O2    s     0.637261    0.278953    0.851917    0.000000
   111  O3    s     0.135885    0.747314    0.111281    0.000000
   112  O2    s     0.346980    0.283707    0.117930    0.000000
   113  O2    s     0.631778    0.518305    0.027262    0.000000
   114  O3    s     0.862367    0.462688    0.030311    0.000000
   115  O2    s     0.356539    0.515404    0.940690    0.000000
   116  O3    s     0.123394    0.458715    0.948827    0.000000
   117  O2    s     0.737441    0.288928    0.034579    0.000000
   118  O3    s     0.749439    0.714995    0.051984    0.000000
   119  O2    s     0.248732    0.291714    0.933460    0.000000
   120  O3    s     0.237996    0.705914    0.909013    0.000000
--------------------------------------------------------------------------------

  Final Cartesian lattice vectors (Angstroms) :

       17.112517   -0.003061   -0.145552
       -0.000620    7.605029   -0.037857
       -0.086658   -0.054833   10.239706


  Final cell parameters and derivatives :

--------------------------------------------------------------------------------
       a           17.113136 Angstrom     dE/de1(xx)     0.004836 eV/strain
       b            7.605124 Angstrom     dE/de2(yy)     0.005341 eV/strain
       c           10.240220 Angstrom     dE/de3(zz)     0.007355 eV/strain
       alpha       90.591966 Degrees      dE/de4(yz)    -0.000270 eV/strain
       beta        90.972133 Degrees      dE/de5(xz)    -0.000413 eV/strain
       gamma       90.012497 Degrees      dE/de6(xy)    -0.000326 eV/strain
--------------------------------------------------------------------------------

  Primitive cell volume =          1332.476058 Angs**3

  Density of cell =      1.963702 g/cm**3

  Non-primitive cell volume =          1332.476058 Angs**3


  Final internal derivatives :

--------------------------------------------------------------------------------
   No.  Atomic          a             b             c           Radius
        Label          (eV)          (eV)          (eV)        (eV/Angs)
--------------------------------------------------------------------------------
      1 Ge    c       0.000000      0.000000      0.000000      0.000000
      2 Ge    c      -0.001981      0.000425      0.000529      0.000000
      3 Ge    c       0.000486      0.000481      0.000234      0.000000
      4 Si    c       0.001006     -0.000068     -0.000284      0.000000
      5 Si    c       0.000276      0.000139      0.000380      0.000000
      6 Si    c      -0.000505     -0.000108      0.000268      0.000000
      7 Si    c       0.003885      0.000904     -0.001039      0.000000
      8 Si    c       0.001349      0.000561      0.000904      0.000000
      9 Si    c      -0.001126      0.000180     -0.000478      0.000000
     10 Si    c      -0.005467     -0.000474      0.000770      0.000000
     11 Si    c       0.000968      0.000183      0.000179      0.000000
     12 Si    c       0.000811      0.000088     -0.000708      0.000000
     13 Si    c       0.001071     -0.000275     -0.000605      0.000000
     14 Si    c       0.000230      0.000450      0.000083      0.000000
     15 Si    c       0.000036      0.000619     -0.000208      0.000000
     16 Si    c      -0.001071     -0.000233     -0.000091      0.000000
     17 Si    c       0.000628      0.002064     -0.000679      0.000000
     18 Si    c       0.002338     -0.000026      0.000365      0.000000
     19 Si    c       0.000215     -0.000111      0.000485      0.000000
     20 Si    c       0.000456     -0.000521     -0.001116      0.000000
     21 Si    c       0.001241      0.000090      0.000161      0.000000
     22 Si    c       0.001527     -0.001273     -0.002086      0.000000
     23 Si    c       0.002781     -0.000477      0.000617      0.000000
     24 Si    c      -0.000046     -0.000368      0.001499      0.000000
     25 O3    c       0.000581      0.000334     -0.000044      0.000000
     26 O2    c      -0.001418     -0.000440     -0.000358      0.000000
     27 O2    c      -0.000118      0.000092      0.000034      0.000000
     28 O2    c       0.001115     -0.000662     -0.000388      0.000000
     29 O2    c       0.000323     -0.000018      0.000111      0.000000
     30 O2    c      -0.000891     -0.000474      0.000045      0.000000
     31 O2    c       0.000083     -0.000425     -0.000076      0.000000
     32 O2    c      -0.000268     -0.000010     -0.000447      0.000000
     33 O2    c      -0.000342     -0.000013      0.000016      0.000000
     34 O2    c      -0.003810     -0.000361     -0.002002      0.000000
     35 O2    c       0.000330     -0.000012      0.000161      0.000000
     36 O2    c       0.000450     -0.000180      0.000235      0.000000
     37 O2    c       0.000195      0.000092     -0.000148      0.000000
     38 O2    c       0.001193     -0.000336     -0.000368      0.000000
     39 O2    c      -0.000415     -0.000053     -0.000279      0.000000
     40 O3    c      -0.000058     -0.000267     -0.000639      0.000000
     41 O2    c      -0.001587      0.001763     -0.000014      0.000000
     42 O3    c       0.000055     -0.000293      0.000105      0.000000
     43 O2    c       0.000094      0.000265     -0.000035      0.000000
     44 O2    c       0.000193      0.000449      0.000291      0.000000
     45 O2    c       0.000928     -0.000546     -0.000067      0.000000
     46 O2    c       0.000346      0.000322     -0.001055      0.000000
     47 O2    c       0.000636     -0.001006      0.002098      0.000000
     48 O2    c      -0.000771      0.000063      0.000557      0.000000
     49 O3    c      -0.003252     -0.002229      0.002612      0.000000
     50 O2    c       0.000595     -0.000149      0.000766      0.000000
     51 O2    c       0.000814     -0.000488     -0.000094      0.000000
     52 O2    c      -0.000730     -0.000638      0.000022      0.000000
     53 O3    c       0.004072     -0.000842      0.001616      0.000000
     54 O2    c      -0.000354      0.000098      0.000476      0.000000
     55 O2    c      -0.001582      0.000250     -0.001001      0.000000
     56 O2    c      -0.001004     -0.000187     -0.000241      0.000000
     57 O3    c      -0.004726     -0.001529      0.001008      0.000000
     58 O2    c      -0.000680      0.000094     -0.000102      0.000000
     59 O2    c      -0.000098     -0.000522     -0.000059      0.000000
     60 O2    c       0.000620     -0.000078      0.000075      0.000000
     61 O3    c      -0.000184      0.000185      0.000657      0.000000
     62 O2    c       0.000179     -0.000348     -0.000123      0.000000
     63 O3    c      -0.000634      0.000279     -0.001071      0.000000
     64 O2    c       0.001188     -0.000351      0.000671      0.000000
     65 O2    c       0.001042      0.001153     -0.000130      0.000000
     66 O3    c      -0.001172     -0.000086      0.000053      0.000000
     67 O2    c       0.000907      0.001507     -0.000600      0.000000
     68 O3    c      -0.003409      0.002378     -0.002037      0.000000
     69 O2    c       0.001519      0.000514     -0.000019      0.000000
     70 O3    c      -0.000812     -0.001046     -0.001299      0.000000
     71 O2    c      -0.000452      0.000359     -0.000774      0.000000
     72 O3    c      -0.001156     -0.000327     -0.000744      0.000000
     73 O3    s      -0.000622     -0.000407      0.000569      0.000000
     74 O2    s      -0.000174      0.000746     -0.000057      0.000000
     75 O2    s       0.000102     -0.000049     -0.000150      0.000000
     76 O2    s       0.002230     -0.000001     -0.000035      0.000000
     77 O2    s       0.000071      0.000016     -0.000046      0.000000
     78 O2    s       0.001250      0.000571     -0.000345      0.000000
     79 O2    s      -0.000145      0.000586      0.000326      0.000000
     80 O2    s       0.000166     -0.000146      0.000763      0.000000
     81 O2    s      -0.000323      0.000069     -0.000119      0.000000
     82 O2    s       0.000369      0.000550     -0.000235      0.000000
     83 O2    s      -0.000750      0.000134     -0.000183      0.000000
     84 O2    s       0.000708      0.000352      0.000604      0.000000
     85 O2    s      -0.000035     -0.000161     -0.000120      0.000000
     86 O2    s       0.000929     -0.000404     -0.000339      0.000000
     87 O2    s       0.000114      0.000219      0.000264      0.000000
     88 O3    s      -0.000469      0.000120      0.000409      0.000000
     89 O2    s      -0.001763      0.000005     -0.000197      0.000000
     90 O3    s      -0.000100      0.000132     -0.000229      0.000000
     91 O2    s      -0.001982     -0.000603     -0.000681      0.000000
     92 O2    s       0.000698     -0.000801     -0.000804      0.000000
     93 O2    s       0.001752     -0.000231     -0.000154      0.000000
     94 O2    s      -0.001285     -0.000175      0.000526      0.000000
     95 O2    s       0.000851      0.000196      0.000666      0.000000
     96 O2    s      -0.000785      0.000011     -0.000152      0.000000
     97 O3    s      -0.001407      0.000986      0.000182      0.000000
     98 O2    s       0.001632      0.000122      0.000615      0.000000
     99 O2    s       0.000906      0.000191      0.000147      0.000000
    100 O2    s       0.000100      0.000423      0.000465      0.000000
    101 O3    s      -0.001086     -0.000918      0.000903      0.000000
    102 O2    s       0.001128      0.001479      0.001288      0.000000
    103 O2    s      -0.000102     -0.000109     -0.000259      0.000000
    104 O2    s      -0.000018      0.000286     -0.000093      0.000000
    105 O3    s      -0.000081     -0.000934      0.000637      0.000000
    106 O2    s       0.001364      0.000643     -0.000109      0.000000
    107 O2    s      -0.000403      0.000195      0.000854      0.000000
    108 O2    s      -0.000147     -0.000074      0.000768      0.000000
    109 O3    s      -0.000056     -0.000185      0.000439      0.000000
    110 O2    s       0.001131      0.000036      0.000101      0.000000
    111 O3    s      -0.001718      0.000865     -0.000737      0.000000
    112 O2    s       0.001905     -0.001044      0.000227      0.000000
    113 O2    s      -0.000227      0.000175     -0.000750      0.000000
    114 O3    s       0.000221      0.000106     -0.000550      0.000000
    115 O2    s       0.002301     -0.000267     -0.000493      0.000000
    116 O3    s      -0.001188     -0.000510      0.000153      0.000000
    117 O2    s       0.000554     -0.000745      0.000054      0.000000
    118 O3    s      -0.000547      0.000876     -0.000210      0.000000
    119 O2    s       0.000786     -0.001591     -0.001385      0.000000
    120 O3    s       0.000011      0.001252     -0.000454      0.000000
--------------------------------------------------------------------------------
  Maximum abs         0.005467      0.002378      0.002612      0.000000
--------------------------------------------------------------------------------


  Born effective charge tensors : 

-------------------------------------------------------------------------------
  Atom             x           y             z
-------------------------------------------------------------------------------
    1 Ge    x       4.0006      0.3902     -0.1658
            y       0.2225      4.1686     -0.2859
            z      -0.1985     -0.0129      3.4169
-------------------------------------------------------------------------------
    2 Ge    x       4.0331      0.3248      0.1379
            y       0.3375      4.1834      0.2350
            z       0.2163      0.0245      3.3050
-------------------------------------------------------------------------------
    3 Ge    x       4.0527     -0.3349      0.1325
            y      -0.3033      4.1689     -0.3057
            z       0.2374     -0.0026      3.3039
-------------------------------------------------------------------------------
    4 Si    x       3.6734      0.0964     -0.0908
            y       0.2604      3.3750      0.0830
            z      -0.6617     -0.1120      3.7529
-------------------------------------------------------------------------------
    5 Si    x       3.4498     -0.1497      0.2777
            y       0.1334      3.2208      0.0243
            z       0.3483     -0.1230      3.8313
-------------------------------------------------------------------------------
    6 Si    x       3.4538      0.0722     -0.2863
            y      -0.1098      3.2241     -0.0320
            z      -0.3888      0.0401      3.7521
-------------------------------------------------------------------------------
    7 Si    x       3.4657      0.1068      0.1234
            y      -0.0998      3.2398     -0.0421
            z       0.5301      0.0565      3.7906
-------------------------------------------------------------------------------
    8 Si    x       3.4556      0.1307     -0.2731
            y      -0.1233      3.2459     -0.0293
            z      -0.4468     -0.0089      3.1433
-------------------------------------------------------------------------------
    9 Si    x       3.5391      0.3609      0.1313
            y      -0.0967      3.4872     -0.0657
            z       0.5538      0.1330      3.1206
-------------------------------------------------------------------------------
   10 Si    x       3.4690     -0.1073     -0.1703
            y       0.1112      3.2421      0.0316
            z      -0.5480     -0.0137      3.0877
-------------------------------------------------------------------------------
   11 Si    x       3.5498     -0.3712      0.2735
            y       0.0638      3.4968      0.0313
            z       0.4556     -0.1263      3.1782
-------------------------------------------------------------------------------
   12 Si    x       3.2058      0.3293      0.0664
            y       0.1419      3.4713      0.1466
            z       0.1427      0.0832      2.8225
-------------------------------------------------------------------------------
   13 Si    x       3.2168     -0.3097     -0.1279
            y      -0.1869      3.4521      0.1741
            z      -0.1398      0.0492      2.7961
-------------------------------------------------------------------------------
   14 Si    x       3.1942     -0.3106      0.0836
            y      -0.1804      3.4800     -0.1685
            z       0.1229     -0.0725      2.8062
-------------------------------------------------------------------------------
   15 Si    x       3.2911      0.2795     -0.0037
            y       0.3030      3.5435     -0.1158
            z      -0.0621     -0.0110      3.1113
-------------------------------------------------------------------------------
   16 Si    x       3.1999      0.2454      0.0509
            y       0.2735      3.4460      0.1824
            z       0.1004      0.0562      2.8068
-------------------------------------------------------------------------------
   17 Si    x       3.4032     -0.2300     -0.0429
            y      -0.1815      3.8359      0.0482
            z      -0.1289     -0.0843      3.1642
-------------------------------------------------------------------------------
   18 Si    x       3.5178     -0.1886     -0.0814
            y      -0.2507      3.5468     -0.2335
            z       0.0349     -0.0866      2.9027
-------------------------------------------------------------------------------
   19 Si    x       3.2447      0.2653     -0.1599
            y       0.2171      3.3781     -0.1932
            z      -0.1821     -0.0641      2.7543
-------------------------------------------------------------------------------
   20 Si    x       3.2410     -0.3044     -0.1261
            y      -0.1986      3.3753      0.1801
            z      -0.1679      0.0554      2.7356
-------------------------------------------------------------------------------
   21 Si    x       3.5944      0.3694     -0.0136
            y       0.1083      3.4883     -0.2197
            z      -0.0609     -0.0628      2.8134
-------------------------------------------------------------------------------
   22 Si    x       3.4029      0.3346      0.1630
            y      -0.0490      3.8011      0.0569
            z       0.1607     -0.0796      3.0696
-------------------------------------------------------------------------------
   23 Si    x       3.5678     -0.3349     -0.0418
            y      -0.1026      3.5057      0.2147
            z      -0.0577      0.0778      2.8281
-------------------------------------------------------------------------------
   24 Si    x       3.3272     -0.2792      0.1725
            y       0.0763      3.7111     -0.0906
            z       0.1561     -0.0208      2.8085
-------------------------------------------------------------------------------
   25 O3    x      -2.1388     -0.9493      0.3145
            y      -1.0024     -2.2982      0.3179
            z       0.3941      0.2909     -1.5661
-------------------------------------------------------------------------------
   26 O2    x      -1.7889     -0.7429     -0.3520
            y      -0.7711     -1.9652     -0.3692
            z      -0.3795     -0.3459     -1.3361
-------------------------------------------------------------------------------
   27 O2    x      -1.7429      0.7282      0.3519
            y       0.7424     -1.9428     -0.3515
            z       0.3641     -0.3368     -1.3616
-------------------------------------------------------------------------------
   28 O2    x      -1.7592      0.7328     -0.3080
            y       0.7663     -1.9673      0.3494
            z      -0.3613      0.3149     -1.3340
-------------------------------------------------------------------------------
   29 O2    x      -1.6617     -0.7082      0.3331
            y      -0.6669     -2.0095      0.3588
            z       0.3653      0.3553     -1.3617
-------------------------------------------------------------------------------
   30 O2    x      -1.6608     -0.7134     -0.2866
            y      -0.6795     -1.9974     -0.2865
            z      -0.3554     -0.2957     -1.3453
-------------------------------------------------------------------------------
   31 O2    x      -1.7246      0.6825      0.3071
            y       0.6722     -1.9119     -0.3293
            z       0.3970     -0.3032     -1.3778
-------------------------------------------------------------------------------
   32 O2    x      -1.6347      0.6963     -0.3139
            y       0.6445     -2.0312      0.3126
            z      -0.3357      0.3154     -1.3548
-------------------------------------------------------------------------------
   33 O2    x      -1.7044     -0.0151      0.8208
            y      -0.0057     -1.0710      0.0086
            z       1.0702      0.0219     -2.6509
-------------------------------------------------------------------------------
   34 O2    x      -1.5982      0.0263     -0.8089
            y       0.0025     -1.0935      0.0277
            z      -1.0132      0.0645     -2.7852
-------------------------------------------------------------------------------
   35 O2    x      -1.6427     -0.0371     -0.6532
            y      -0.0052     -1.1559      0.0034
            z      -0.6315      0.0082     -2.2176
-------------------------------------------------------------------------------
   36 O2    x      -1.7283      0.0262      0.7118
            y       0.0230     -1.1019     -0.0194
            z       0.7253     -0.0174     -2.2248
-------------------------------------------------------------------------------
   37 O2    x      -1.7278      0.0244     -0.6838
            y      -0.0035     -1.1160      0.0281
            z      -0.6764      0.0342     -2.1653
-------------------------------------------------------------------------------
   38 O2    x      -1.7382     -0.0172      0.7610
            y      -0.0124     -1.1136      0.0113
            z       0.7528      0.0217     -2.2354
-------------------------------------------------------------------------------
   39 O2    x      -1.6524     -0.6999      0.3806
            y      -0.6063     -2.0081      0.4094
            z       0.3790      0.3782     -1.2698
-------------------------------------------------------------------------------
   40 O3    x      -1.9238     -0.8699     -0.3433
            y      -0.7650     -2.5636     -0.3197
            z      -0.4108     -0.3115     -1.3806
-------------------------------------------------------------------------------
   41 O2    x      -1.6586      0.7133      0.3292
            y       0.6149     -2.0068     -0.3676
            z       0.3613     -0.3396     -1.2330
-------------------------------------------------------------------------------
   42 O3    x      -1.9221      0.8878     -0.4211
            y       0.7435     -2.5459      0.4182
            z      -0.4302      0.3802     -1.4222
-------------------------------------------------------------------------------
   43 O2    x      -1.7282     -0.7105      0.2797
            y      -0.6654     -1.9285      0.3148
            z       0.3124      0.2994     -1.2494
-------------------------------------------------------------------------------
   44 O2    x      -1.8133     -0.6406     -0.3748
            y      -0.6166     -1.8200     -0.3792
            z      -0.3471     -0.3105     -1.2913
-------------------------------------------------------------------------------
   45 O2    x      -1.7158      0.7038      0.3415
            y       0.6624     -1.9349     -0.3641
            z       0.3241     -0.3323     -1.2701
-------------------------------------------------------------------------------
   46 O2    x      -1.8234      0.6332     -0.3159
            y       0.6446     -1.8204      0.3501
            z      -0.3443      0.2939     -1.2591
-------------------------------------------------------------------------------
   47 O2    x      -1.8107     -0.0176     -0.6014
            y      -0.0108     -1.1735      0.0007
            z      -0.3445      0.0043     -1.6997
-------------------------------------------------------------------------------
   48 O2    x      -1.7365      0.0166      0.5837
            y       0.0163     -1.1812     -0.0063
            z       0.3229     -0.0132     -1.7866
-------------------------------------------------------------------------------
   49 O3    x      -1.3559     -0.0044      0.0589
            y       0.0553     -3.2343      0.1044
            z       0.0870      0.0862     -1.1640
-------------------------------------------------------------------------------
   50 O2    x      -1.1744      0.0784     -0.0476
            y       0.1537     -2.5713      0.0686
            z      -0.0758      0.0354     -1.0786
-------------------------------------------------------------------------------
   51 O2    x      -1.1863     -0.0536      0.0490
            y      -0.0930     -2.5863      0.0107
            z       0.0708      0.0096     -1.0555
-------------------------------------------------------------------------------
   52 O2    x      -1.1660     -0.0352     -0.0503
            y      -0.0912     -2.5670     -0.0309
            z      -0.0733     -0.0026     -1.0595
-------------------------------------------------------------------------------
   53 O3    x      -2.9981     -0.1695      0.1214
            y      -0.1276     -1.3866      0.1102
            z       0.1258      0.0592     -1.2603
-------------------------------------------------------------------------------
   54 O2    x      -2.4516     -0.0509      0.0544
            y       0.0020     -1.2461     -0.0579
            z       0.0654     -0.0282     -1.1002
-------------------------------------------------------------------------------
   55 O2    x      -2.4002      0.0835      0.0222
            y       0.0469     -1.2375     -0.0691
            z       0.0097     -0.0373     -1.0813
-------------------------------------------------------------------------------
   56 O2    x      -2.4046      0.0787      0.0547
            y       0.0300     -1.2604      0.0644
            z       0.0609      0.0395     -1.0703
-------------------------------------------------------------------------------
   57 O3    x      -1.3401     -0.1641     -0.0001
            y      -0.0934     -1.4655      0.0458
            z       0.0073      0.0015     -2.5695
-------------------------------------------------------------------------------
   58 O2    x      -1.1791     -0.1143      0.0540
            y      -0.0539     -1.3016     -0.0431
            z       0.0349     -0.0340     -2.0922
-------------------------------------------------------------------------------
   59 O2    x      -1.1916      0.1311     -0.0267
            y       0.0778     -1.2770      0.0458
            z      -0.0052      0.0635     -2.0754
-------------------------------------------------------------------------------
   60 O2    x      -1.1671      0.1171      0.0573
            y       0.0697     -1.3062      0.0221
            z       0.0229      0.0148     -2.0887
-------------------------------------------------------------------------------
   61 O3    x      -1.3551     -0.1642     -0.1263
            y      -0.1538     -1.4520     -0.0509
            z      -0.1205     -0.0033     -2.6085
-------------------------------------------------------------------------------
   62 O2    x      -1.1882     -0.1265      0.0249
            y      -0.1126     -1.2764      0.0135
            z       0.0298      0.0045     -2.0733
-------------------------------------------------------------------------------
   63 O3    x      -1.3762      0.1639     -0.0952
            y       0.1407     -1.4489      0.0038
            z      -0.0851     -0.0347     -2.5938
-------------------------------------------------------------------------------
   64 O2    x      -1.1877      0.1199     -0.0249
            y       0.0996     -1.2927     -0.0227
            z      -0.0139     -0.0294     -2.0878
-------------------------------------------------------------------------------
   65 O2    x      -1.2216     -0.0272      0.0796
            y      -0.0828     -2.5021     -0.0317
            z       0.0967     -0.0190     -1.0315
-------------------------------------------------------------------------------
   66 O3    x      -1.4548     -0.1973     -0.1206
            y      -0.2640     -3.0862     -0.0962
            z      -0.1532     -0.1033     -1.1486
-------------------------------------------------------------------------------
   67 O2    x      -1.2390      0.0299      0.0703
            y       0.0752     -2.4779      0.0706
            z       0.0961      0.0409     -1.0269
-------------------------------------------------------------------------------
   68 O3    x      -1.4902      0.1898     -0.0884
            y       0.2416     -3.1142      0.0939
            z      -0.1277      0.0696     -1.1077
-------------------------------------------------------------------------------
   69 O2    x      -2.4215      0.1543      0.0224
            y       0.0954     -1.2394      0.0522
            z       0.0083      0.0241     -1.0626
-------------------------------------------------------------------------------
   70 O3    x      -3.0637      0.1192     -0.0776
            y       0.0553     -1.3742     -0.0824
            z      -0.0800     -0.0346     -1.2069
-------------------------------------------------------------------------------
   71 O2    x      -2.4371     -0.1679     -0.0151
            y      -0.1133     -1.2610     -0.0490
            z      -0.0276     -0.0153     -1.0558
-------------------------------------------------------------------------------
   72 O3    x      -3.0635     -0.1256     -0.0774
            y      -0.0459     -1.3644      0.0834
            z      -0.1080      0.0210     -1.2247
-------------------------------------------------------------------------------




  Elastic Constant Matrix: (Units=GPa)

-------------------------------------------------------------------------------
  Indices      1         2         3         4         5         6    
-------------------------------------------------------------------------------
       1     56.2351   29.3115   24.5937   -0.8803   -7.5665   -3.1531
       2     29.3115   73.5671   23.3535    0.0699   -8.3593   -1.1524
       3     24.5937   23.3535   31.8442   -2.1856   -1.2749   -4.2303
       4     -0.8803    0.0699   -2.1856   12.5080   -0.0151    0.1631
       5     -7.5665   -8.3593   -1.2749   -0.0151   24.6884   -1.6377
       6     -3.1531   -1.1524   -4.2303    0.1631   -1.6377   24.3435
-------------------------------------------------------------------------------


  Elastic Compliance Matrix: (Units=1/GPa)

-------------------------------------------------------------------------------
  Indices      1         2         3         4         5         6    
-------------------------------------------------------------------------------
       1    0.029538 -0.005047 -0.018836 -0.001186  0.006421  0.000754
       2   -0.005047  0.019416 -0.010486 -0.002275  0.004402 -0.001246
       3   -0.018836 -0.010486  0.054773  0.008217 -0.006084  0.006118
       4   -0.001186 -0.002275  0.008217  0.081306 -0.000621  0.000580
       5    0.006421  0.004402 -0.006084 -0.000621  0.043843  0.002936
       6    0.000754 -0.001246  0.006118  0.000580  0.002936  0.042374
-------------------------------------------------------------------------------

  Mechanical properties :

-------------------------------------------------------------------------------
  Convention :                    Reuss         Voigt         Hill
-------------------------------------------------------------------------------
  Bulk  Modulus (GPa)     =      28.58025      35.12932      31.85478
  Shear Modulus (GPa)     =      14.21866      17.93382      16.07624
-------------------------------------------------------------------------------
  Velocity S-wave (km/s)  =       2.69086       3.02203       2.86124
  Velocity P-wave (km/s)  =       4.92022       5.48327       5.20936
-------------------------------------------------------------------------------
  Compressibility (1/GPa) =    0.03498920
-------------------------------------------------------------------------------
  Stress axis :                     x             y             z
-------------------------------------------------------------------------------
  Youngs Moduli (GPa)     =      33.85428      51.50502      18.25718
-------------------------------------------------------------------------------
  Poissons Ratio (x)      =                     0.25996       0.34388
  Poissons Ratio (y)      =       0.17087                     0.19145
  Poissons Ratio (z)      =       0.63766       0.54008
-------------------------------------------------------------------------------


  Piezoelectric Strain Matrix: (Units=C/m**2)

-------------------------------------------------------------------------------
  Indices      1         2         3         4         5         6    
-------------------------------------------------------------------------------
       x    -0.02559   0.03751  -0.67719   0.14827   0.13432   0.12170
       y     0.64598  -0.08627   0.05174   0.00142   0.30722  -0.14959
       z    -0.00156  -0.31023   0.56150  -0.00560  -0.37999   0.12765
-------------------------------------------------------------------------------


  Piezoelectric Stress Matrix: (Units=10**-11 C/N)

-------------------------------------------------------------------------------
  Indices      1         2         3         4         5         6    
-------------------------------------------------------------------------------
       x     1.25884   0.80609  -3.58577   0.64226   1.02751   0.14283
       y     2.04002  -0.39426  -1.12016  -0.03074   1.64825  -0.45247
       z    -1.13934  -1.37220   3.70841   0.51758  -2.10732   0.81103
-------------------------------------------------------------------------------


  Static dielectric constant tensor : 

-------------------------------------------------------------------------------
              x         y         z
-------------------------------------------------------------------------------
       x     3.98976   0.02801  -0.01553
       y     0.02801   4.17757  -0.00836
       z    -0.01553  -0.00836   3.18413
--------------------------------------------------------------------------------

  High frequency dielectric constant tensor : 

-------------------------------------------------------------------------------
              x         y         z
-------------------------------------------------------------------------------
       x     1.68231  -0.00023  -0.00192
       y    -0.00023   1.68852  -0.00112
       z    -0.00192  -0.00112   1.62379
-------------------------------------------------------------------------------

  Static refractive indices : 

-------------------------------------------------------------------------------
    1 =    1.78431      2 =    1.99648      3 =    2.04494
-------------------------------------------------------------------------------

  High frequency refractive indices : 

-------------------------------------------------------------------------------
    1 =    1.27425      2 =    1.29706      3 =    1.29944
-------------------------------------------------------------------------------


  Time to end of optimisation =      10.9703 seconds


  Peak dynamic memory used =       5.01 MB 


  Timing analysis for GULP :

--------------------------------------------------------------------------------
  Task / Subroutine                                          Time (Seconds)
--------------------------------------------------------------------------------
  Calculation of reciprocal space energy and derivatives          0.7006
  Calculation of real space energy and derivatives                7.1908
  Calculation of three-body energy and derivatives                0.6715
  Calculation and manipulation of Hessian matrix                  3.1627
  Calculation of matrix inversion                                 0.0363
  Global summation overhead                                       0.0002
--------------------------------------------------------------------------------
  Total CPU time                                                 10.9703
--------------------------------------------------------------------------------


  Dump file written as c00242.vasp.grs
  CIF file written as c00242.vasp.cif


  Job Finished at 12:10.31  7th October    2025                               

