********************************************************************************
*                       GENERAL UTILITY LATTICE PROGRAM                        *
*                                 Julian Gale                                  *
*                       Curtin Institute for Computation                       *
*                    School of Molecular and Life Sciences                     *
*                    Curtin University, Western Australia                      *
********************************************************************************
* Version = 6.1.2 * Last modified =   3rd November 2022                        *
********************************************************************************
*  optimise     - perform optimisation run                                     *
*  conp         - constant pressure calculation                                *
*  property     - calculate properties for final geometry                      *
********************************************************************************

  Job Started  at 12:03.48  7th October    2025                               

  Number of CPUs =     1


  Total number of configurations input =      1

********************************************************************************
*  Input for Configuration =   1 : c00209.vasp                                 *
********************************************************************************

  Formula = Ge3Si21O48                                                  

  Number of irreducible atoms/shells =     120


  Total number atoms/shells =     120

  Dimensionality = 3               :  Bulk   



  Cartesian lattice vectors (Angstroms) :

       17.182800    0.000000    0.000000
        0.000000    7.513760    0.000000
        0.000000    0.000000   10.447700

  Cell parameters (Angstroms/Degrees):

  a =      17.1828    alpha =  90.0000
  b =       7.5138    beta  =  90.0000
  c =      10.4477    gamma =  90.0000

  Initial cell volume =        1348.875752 Angs**3

  Temperature of configuration =   0.00     K 

  Pressure of configuration =         0.000 GPa 

  Fractional coordinates of asymmetric unit :

--------------------------------------------------------------------------------
   No.  Atomic       x           y          z         Charge      Occupancy
        Label      (Frac)      (Frac)     (Frac)        (e)         (Frac)  
--------------------------------------------------------------------------------
      1 Ge    c    0.160190    0.293910    0.273440     4.00000    1.000000    
      2 Ge    c    0.839810 *  0.293910 *  0.726560 *   4.00000    1.000000    
      3 Ge    c    0.839340 *  0.705910 *  0.017440 *   4.00000    1.000000    
      4 Si    c    0.052090 *  0.000000 *  0.372270 *   4.00000    1.000000    
      5 Si    c    0.447910 *  0.000000 *  0.372270 *   4.00000    1.000000    
      6 Si    c    0.947910 *  0.000000 *  0.627730 *   4.00000    1.000000    
      7 Si    c    0.552090 *  0.000000 *  0.627730 *   4.00000    1.000000    
      8 Si    c    0.556730 *  0.000000 *  0.122130 *   4.00000    1.000000    
      9 Si    c    0.943270 *  0.000000 *  0.122130 *   4.00000    1.000000    
     10 Si    c    0.443270 *  0.000000 *  0.877870 *   4.00000    1.000000    
     11 Si    c    0.056730 *  0.000000 *  0.877870 *   4.00000    1.000000    
     12 Si    c    0.339810 *  0.706090 *  0.273440 *   4.00000    1.000000    
     13 Si    c    0.660190 *  0.706090 *  0.726560 *   4.00000    1.000000    
     14 Si    c    0.839810 *  0.706090 *  0.726560 *   4.00000    1.000000    
     15 Si    c    0.660190 *  0.293910 *  0.726560 *   4.00000    1.000000    
     16 Si    c    0.160190 *  0.706090 *  0.273440 *   4.00000    1.000000    
     17 Si    c    0.339810 *  0.293910 *  0.273440 *   4.00000    1.000000    
     18 Si    c    0.660660 *  0.294090 *  0.017440 *   4.00000    1.000000    
     19 Si    c    0.339340 *  0.294090 *  0.982560 *   4.00000    1.000000    
     20 Si    c    0.160660 *  0.705910 *  0.982560 *   4.00000    1.000000    
     21 Si    c    0.339340 *  0.705910 *  0.982560 *   4.00000    1.000000    
     22 Si    c    0.160660 *  0.294090 *  0.982560 *   4.00000    1.000000    
     23 Si    c    0.660660 *  0.705910 *  0.017440 *   4.00000    1.000000    
     24 Si    c    0.839340 *  0.294090 *  0.017440 *   4.00000    1.000000    
     25 O3    c    0.106570 *  0.174340 *  0.366200 *   1.33043    1.000000    
     26 O2    c    0.393430 *  0.825660 *  0.366200 *   0.87073    1.000000    
     27 O3    c    0.893430 *  0.174340 *  0.633800 *   1.33043    1.000000    
     28 O2    c    0.606570 *  0.825660 *  0.633800 *   0.87073    1.000000    
     29 O2    c    0.893430 *  0.825660 *  0.633800 *   0.87073    1.000000    
     30 O2    c    0.606570 *  0.174340 *  0.633800 *   0.87073    1.000000    
     31 O2    c    0.106570 *  0.825660 *  0.366200 *   0.87073    1.000000    
     32 O2    c    0.393430 *  0.174340 *  0.366200 *   0.87073    1.000000    
     33 O2    c    0.000000 *  0.000000 *  0.500000 *   0.87073    1.000000    
     34 O2    c    0.500000 *  0.000000 *  0.500000 *   0.87073    1.000000    
     35 O2    c    0.994520 *  0.000000 *  0.250840 *   0.87073    1.000000    
     36 O2    c    0.505480 *  0.000000 *  0.250840 *   0.87073    1.000000    
     37 O2    c    0.005480 *  0.000000 *  0.749160 *   0.87073    1.000000    
     38 O2    c    0.494520 *  0.000000 *  0.749160 *   0.87073    1.000000    
     39 O2    c    0.610230 *  0.175520 *  0.115390 *   0.87073    1.000000    
     40 O3    c    0.889770 *  0.824480 *  0.115390 *   1.33043    1.000000    
     41 O2    c    0.389770 *  0.175520 *  0.884610 *   0.87073    1.000000    
     42 O2    c    0.110230 *  0.824480 *  0.884610 *   0.87073    1.000000    
     43 O2    c    0.389770 *  0.824480 *  0.884610 *   0.87073    1.000000    
     44 O2    c    0.110230 *  0.175520 *  0.884610 *   0.87073    1.000000    
     45 O2    c    0.610230 *  0.824480 *  0.115390 *   0.87073    1.000000    
     46 O2    c    0.889770 *  0.175520 *  0.115390 *   0.87073    1.000000    
     47 O2    c    0.500000 *  0.000000 *  0.000000 *   0.87073    1.000000    
     48 O2    c    0.000000 *  0.000000 *  0.000000 *   0.87073    1.000000    
     49 O3    c    0.151750 *  0.500000 *  0.313330 *   1.33043    1.000000    
     50 O2    c    0.348250 *  0.500000 *  0.313330 *   0.87073    1.000000    
     51 O3    c    0.848250 *  0.500000 *  0.686670 *   1.33043    1.000000    
     52 O2    c    0.651750 *  0.500000 *  0.686670 *   0.87073    1.000000    
     53 O3    c    0.250000 *  0.234950 *  0.285720 *   1.33043    1.000000    
     54 O2    c    0.250000 *  0.765050 *  0.285720 *   0.87073    1.000000    
     55 O3    c    0.750000 *  0.234950 *  0.714280 *   1.33043    1.000000    
     56 O2    c    0.750000 *  0.765050 *  0.714280 *   0.87073    1.000000    
     57 O3    c    0.131410 *  0.268650 *  0.127790 *   1.33043    1.000000    
     58 O2    c    0.368590 *  0.731350 *  0.127790 *   0.87073    1.000000    
     59 O3    c    0.868590 *  0.268650 *  0.872210 *   1.33043    1.000000    
     60 O2    c    0.631410 *  0.731350 *  0.872210 *   0.87073    1.000000    
     61 O3    c    0.868590 *  0.731350 *  0.872210 *   1.33043    1.000000    
     62 O2    c    0.631410 *  0.268650 *  0.872210 *   0.87073    1.000000    
     63 O2    c    0.131410 *  0.731350 *  0.127790 *   0.87073    1.000000    
     64 O2    c    0.368590 *  0.268650 *  0.127790 *   0.87073    1.000000    
     65 O2    c    0.653920 *  0.500000 *  0.058200 *   0.87073    1.000000    
     66 O3    c    0.846080 *  0.500000 *  0.058200 *   1.33043    1.000000    
     67 O2    c    0.346080 *  0.500000 *  0.941800 *   0.87073    1.000000    
     68 O2    c    0.153920 *  0.500000 *  0.941800 *   0.87073    1.000000    
     69 O2    c    0.750000 *  0.231060 *  0.027050 *   0.87073    1.000000    
     70 O3    c    0.750000 *  0.768940 *  0.027050 *   1.33043    1.000000    
     71 O2    c    0.250000 *  0.231060 *  0.972950 *   0.87073    1.000000    
     72 O2    c    0.250000 *  0.768940 *  0.972950 *   0.87073    1.000000    
     73 O3    s    0.106570 *  0.174340 *  0.366200 *  -3.33043    1.000000    
     74 O2    s    0.393430 *  0.825660 *  0.366200 *  -2.87073    1.000000    
     75 O3    s    0.893430 *  0.174340 *  0.633800 *  -3.33043    1.000000    
     76 O2    s    0.606570 *  0.825660 *  0.633800 *  -2.87073    1.000000    
     77 O2    s    0.893430 *  0.825660 *  0.633800 *  -2.87073    1.000000    
     78 O2    s    0.606570 *  0.174340 *  0.633800 *  -2.87073    1.000000    
     79 O2    s    0.106570 *  0.825660 *  0.366200 *  -2.87073    1.000000    
     80 O2    s    0.393430 *  0.174340 *  0.366200 *  -2.87073    1.000000    
     81 O2    s    0.000000 *  0.000000 *  0.500000 *  -2.87073    1.000000    
     82 O2    s    0.500000 *  0.000000 *  0.500000 *  -2.87073    1.000000    
     83 O2    s    0.994520 *  0.000000 *  0.250840 *  -2.87073    1.000000    
     84 O2    s    0.505480 *  0.000000 *  0.250840 *  -2.87073    1.000000    
     85 O2    s    0.005480 *  0.000000 *  0.749160 *  -2.87073    1.000000    
     86 O2    s    0.494520 *  0.000000 *  0.749160 *  -2.87073    1.000000    
     87 O2    s    0.610230 *  0.175520 *  0.115390 *  -2.87073    1.000000    
     88 O3    s    0.889770 *  0.824480 *  0.115390 *  -3.33043    1.000000    
     89 O2    s    0.389770 *  0.175520 *  0.884610 *  -2.87073    1.000000    
     90 O2    s    0.110230 *  0.824480 *  0.884610 *  -2.87073    1.000000    
     91 O2    s    0.389770 *  0.824480 *  0.884610 *  -2.87073    1.000000    
     92 O2    s    0.110230 *  0.175520 *  0.884610 *  -2.87073    1.000000    
     93 O2    s    0.610230 *  0.824480 *  0.115390 *  -2.87073    1.000000    
     94 O2    s    0.889770 *  0.175520 *  0.115390 *  -2.87073    1.000000    
     95 O2    s    0.500000 *  0.000000 *  0.000000 *  -2.87073    1.000000    
     96 O2    s    0.000000 *  0.000000 *  0.000000 *  -2.87073    1.000000    
     97 O3    s    0.151750 *  0.500000 *  0.313330 *  -3.33043    1.000000    
     98 O2    s    0.348250 *  0.500000 *  0.313330 *  -2.87073    1.000000    
     99 O3    s    0.848250 *  0.500000 *  0.686670 *  -3.33043    1.000000    
    100 O2    s    0.651750 *  0.500000 *  0.686670 *  -2.87073    1.000000    
    101 O3    s    0.250000 *  0.234950 *  0.285720 *  -3.33043    1.000000    
    102 O2    s    0.250000 *  0.765050 *  0.285720 *  -2.87073    1.000000    
    103 O3    s    0.750000 *  0.234950 *  0.714280 *  -3.33043    1.000000    
    104 O2    s    0.750000 *  0.765050 *  0.714280 *  -2.87073    1.000000    
    105 O3    s    0.131410 *  0.268650 *  0.127790 *  -3.33043    1.000000    
    106 O2    s    0.368590 *  0.731350 *  0.127790 *  -2.87073    1.000000    
    107 O3    s    0.868590 *  0.268650 *  0.872210 *  -3.33043    1.000000    
    108 O2    s    0.631410 *  0.731350 *  0.872210 *  -2.87073    1.000000    
    109 O3    s    0.868590 *  0.731350 *  0.872210 *  -3.33043    1.000000    
    110 O2    s    0.631410 *  0.268650 *  0.872210 *  -2.87073    1.000000    
    111 O2    s    0.131410 *  0.731350 *  0.127790 *  -2.87073    1.000000    
    112 O2    s    0.368590 *  0.268650 *  0.127790 *  -2.87073    1.000000    
    113 O2    s    0.653920 *  0.500000 *  0.058200 *  -2.87073    1.000000    
    114 O3    s    0.846080 *  0.500000 *  0.058200 *  -3.33043    1.000000    
    115 O2    s    0.346080 *  0.500000 *  0.941800 *  -2.87073    1.000000    
    116 O2    s    0.153920 *  0.500000 *  0.941800 *  -2.87073    1.000000    
    117 O2    s    0.750000 *  0.231060 *  0.027050 *  -2.87073    1.000000    
    118 O3    s    0.750000 *  0.768940 *  0.027050 *  -3.33043    1.000000    
    119 O2    s    0.250000 *  0.231060 *  0.972950 *  -2.87073    1.000000    
    120 O2    s    0.250000 *  0.768940 *  0.972950 *  -2.87073    1.000000    
--------------------------------------------------------------------------------



********************************************************************************
*  General input information                                                   *
********************************************************************************

  Species output for all configurations : 

--------------------------------------------------------------------------------
  Species    Type    Atomic    Atomic    Charge       Radii (Angs)     Library
                     Number     Mass       (e)     Cova   Ionic  VDW   Symbol
--------------------------------------------------------------------------------
    Ge       Core       32      72.61   4.000000   1.170  0.000  1.750 Ge       
    Si       Core       14      28.09   4.000000   1.200  0.000  2.100 Si       
    O1       Core        8      16.00   1.733957   0.730  0.000  0.000 O1       
    O2       Core        8      16.00   0.870733   0.730  0.000  1.360 O2       
    O3       Core        8      16.00   1.330431   0.730  0.000  1.360 O3       
    O1       Shell       8       0.00  -3.733957   0.730  0.000  0.000 O1       
    O2       Shell       8       0.00  -2.870733   0.730  0.000  0.000 O2       
    O3       Shell       8       0.00  -3.330431   0.730  0.000  0.000 O3       
--------------------------------------------------------------------------------


  Lattice summation method               =    Ewald          (3-D)
                                         =    Parry          (2-D)
                                         =    Saunders et al (1-D)
  Accuracy factor for lattice sums       =   12.000


  Analytic derivatives to be used

  Time limit = Infinity

  Maximum range for interatomic potentials =    100000.000000 Angstroms

  General interatomic potentials :

--------------------------------------------------------------------------------
Atom  Types   Potential      Parameter       Value         Units   Cutoffs(Ang)
  1     2                                                            Min /  Max 
--------------------------------------------------------------------------------
Si   c O1   s Buckingham    Buckingham A     1315.2478    eV        0.000 16.000
                            Buckingham rho  0.31775900    Ang       
                            Buckingham C     10.141118    eV*Ang^6  
--------------------------------------------------------------------------------
Si   c O2   s Buckingham    Buckingham A     1315.2478    eV        0.000 16.000
                            Buckingham rho  0.31775900    Ang       
                            Buckingham C     10.141118    eV*Ang^6  
--------------------------------------------------------------------------------
Si   c O3   s Buckingham    Buckingham A     1315.2478    eV        0.000 16.000
                            Buckingham rho  0.31775900    Ang       
                            Buckingham C     10.141118    eV*Ang^6  
--------------------------------------------------------------------------------
Ge   c O1   s Buckingham    Buckingham A     1497.3996    eV        0.000 16.000
                            Buckingham rho  0.32564600    Ang       
                            Buckingham C     16.808599    eV*Ang^6  
--------------------------------------------------------------------------------
Ge   c O2   s Buckingham    Buckingham A     1497.3996    eV        0.000 16.000
                            Buckingham rho  0.32564600    Ang       
                            Buckingham C     16.808599    eV*Ang^6  
--------------------------------------------------------------------------------
Ge   c O3   s Buckingham    Buckingham A     1497.3996    eV        0.000 16.000
                            Buckingham rho  0.32564600    Ang       
                            Buckingham C     16.808599    eV*Ang^6  
--------------------------------------------------------------------------------
O1   s O1   s Buckingham    Buckingham A     22764.000    eV        0.000 16.000
                            Buckingham rho  0.14900000    Ang       
                            Buckingham C     10.937044    eV*Ang^6  
--------------------------------------------------------------------------------
O1   s O2   s Buckingham    Buckingham A     22764.000    eV        0.000 16.000
                            Buckingham rho  0.14900000    Ang       
                            Buckingham C     10.937044    eV*Ang^6  
--------------------------------------------------------------------------------
O1   s O3   s Buckingham    Buckingham A     22764.000    eV        0.000 16.000
                            Buckingham rho  0.14900000    Ang       
                            Buckingham C     10.937044    eV*Ang^6  
--------------------------------------------------------------------------------
O2   s O2   s Buckingham    Buckingham A     22764.000    eV        0.000 16.000
                            Buckingham rho  0.14900000    Ang       
                            Buckingham C     10.937044    eV*Ang^6  
--------------------------------------------------------------------------------
O2   s O3   s Buckingham    Buckingham A     22764.000    eV        0.000 16.000
                            Buckingham rho  0.14900000    Ang       
                            Buckingham C     10.937044    eV*Ang^6  
--------------------------------------------------------------------------------
O3   s O3   s Buckingham    Buckingham A     22764.000    eV        0.000 16.000
                            Buckingham rho  0.14900000    Ang       
                            Buckingham C     10.937044    eV*Ang^6  
--------------------------------------------------------------------------------
O1   c O1   s Spring (c-s)  Spring k 2       180.31577    eV*Ang^-2 0.000  0.800
                            Spring k 4       0.0000000    eV*Ang^-4 
--------------------------------------------------------------------------------
O2   c O2   s Spring (c-s)  Spring k 2       75.969800    eV*Ang^-2 0.000  0.800
                            Spring k 4       0.0000000    eV*Ang^-4 
--------------------------------------------------------------------------------
O3   c O3   s Spring (c-s)  Spring k 2       128.14270    eV*Ang^-2 0.000  0.800
                            Spring k 4       0.0000000    eV*Ang^-4 
--------------------------------------------------------------------------------

  General Three-body potentials :

--------------------------------------------------------------------------------
  Atoms       Potential      Parameter       Value         Units   Cutoffs(Ang)
  1 / 2 / 3                                                          Min /  Max 
--------------------------------------------------------------------------------
Si    core    Harmonic      Three-body cnst  1.2614000    eV*rad^-2 0.000  1.900
O1    shel                  Three-body angl  109.47000    degrees   0.000  1.900
O1    shel                  Three-body k4    0.0000000    eV*rad^-4 0.000  3.500
                            Three-body k3    0.0000000    eV*rad^-3 
--------------------------------------------------------------------------------
Si    core    Harmonic      Three-body cnst  1.2614000    eV*rad^-2 0.000  1.900
O1    shel                  Three-body angl  109.47000    degrees   0.000  1.900
õ(1   shel                  Three-body k4    0.0000000    eV*rad^-4 0.000  3.500
                            Three-body k3    0.0000000    eV*rad^-3 
--------------------------------------------------------------------------------
Si    core    Harmonic      Three-body cnst  1.2614000    eV*rad^-2 0.000  1.900
õ(1   shel                  Three-body angl  109.47000    degrees   0.000  1.900
õ(1   shel                  Three-body k4    0.0000000    eV*rad^-4 0.000  3.500
                            Three-body k3    0.0000000    eV*rad^-3 
--------------------------------------------------------------------------------
Si    core    Harmonic      Three-body cnst  1.2614000    eV*rad^-2 0.000  1.900
O1    shel                  Three-body angl  109.47000    degrees   0.000  1.900
O2    shel                  Three-body k4    0.0000000    eV*rad^-4 0.000  3.500
                            Three-body k3    0.0000000    eV*rad^-3 
--------------------------------------------------------------------------------
Si    core    Harmonic      Three-body cnst  1.2614000    eV*rad^-2 0.000  1.900
O1    shel                  Three-body angl  109.47000    degrees   0.000  1.900
õ(2   shel                  Three-body k4    0.0000000    eV*rad^-4 0.000  3.500
                            Three-body k3    0.0000000    eV*rad^-3 
--------------------------------------------------------------------------------
Si    core    Harmonic      Three-body cnst  1.2614000    eV*rad^-2 0.000  1.900
O2    shel                  Three-body angl  109.47000    degrees   0.000  1.900
õ(1   shel                  Three-body k4    0.0000000    eV*rad^-4 0.000  3.500
                            Three-body k3    0.0000000    eV*rad^-3 
--------------------------------------------------------------------------------
Si    core    Harmonic      Three-body cnst  1.2614000    eV*rad^-2 0.000  1.900
õ(1   shel                  Three-body angl  109.47000    degrees   0.000  1.900
õ(2   shel                  Three-body k4    0.0000000    eV*rad^-4 0.000  3.500
                            Three-body k3    0.0000000    eV*rad^-3 
--------------------------------------------------------------------------------
Si    core    Harmonic      Three-body cnst  1.2614000    eV*rad^-2 0.000  1.900
O2    shel                  Three-body angl  109.47000    degrees   0.000  1.900
O2    shel                  Three-body k4    0.0000000    eV*rad^-4 0.000  3.500
                            Three-body k3    0.0000000    eV*rad^-3 
--------------------------------------------------------------------------------
Si    core    Harmonic      Three-body cnst  1.2614000    eV*rad^-2 0.000  1.900
O2    shel                  Three-body angl  109.47000    degrees   0.000  1.900
õ(2   shel                  Three-body k4    0.0000000    eV*rad^-4 0.000  3.500
                            Three-body k3    0.0000000    eV*rad^-3 
--------------------------------------------------------------------------------
Si    core    Harmonic      Three-body cnst  1.2614000    eV*rad^-2 0.000  1.900
õ(2   shel                  Three-body angl  109.47000    degrees   0.000  1.900
õ(2   shel                  Three-body k4    0.0000000    eV*rad^-4 0.000  3.500
                            Three-body k3    0.0000000    eV*rad^-3 
--------------------------------------------------------------------------------

********************************************************************************
*  Output for configuration   1 : c00209.vasp                                  *
********************************************************************************


  Components of energy : 

--------------------------------------------------------------------------------
  Interatomic potentials     =         760.29124375 eV    
  Three-body potentials      =           0.01517451 eV    
  Monopole - monopole (real) =       -2676.00317478 eV    
  Monopole - monopole (recip)=       -1115.35404472 eV    
  Monopole - monopole (total)=       -3791.35721950 eV    
--------------------------------------------------------------------------------
  Total lattice energy       =       -3031.05080125 eV    
--------------------------------------------------------------------------------
  Total lattice energy       =         -292450.0685 kJ/(mole unit cells)
--------------------------------------------------------------------------------


  Number of variables =      363

  Maximum number of calculations  =          1000
  Maximum Hessian update interval =            10
  Maximum step size               =   0.100000000
  Maximum parameter tolerance     =   0.000010000
  Maximum function  tolerance     =   0.000010000
  Maximum gradient  tolerance     =   0.001000000
  Maximum gradient  component     =   0.010000000

  Symmetry not applied to optimisation

  Cell parameters to be optimised using strains

  Newton-Raphson optimiser to be used

  BFGS hessian update to be used

  Lower half triangular hessian to be used

  Minimiser to switch to RFO
  When gradient norm is less than     0.050000

  Dumpfile to be written after every cycle

  Start of bulk optimisation :

  Cycle:      0 Energy:     -3031.050801  Gnorm:      4.457010  CPU:    0.135
  ** Hessian calculated **
  Cycle:      1 Energy:     -3045.645468  Gnorm:      3.468176  CPU:    0.359
  ** Hessian calculated **
  Cycle:      2 Energy:     -3064.075362  Gnorm:      0.759003  CPU:    0.598
  ** Hessian calculated **
  Cycle:      3 Energy:     -3065.617547  Gnorm:      0.444094  CPU:    0.838
  Cycle:      4 Energy:     -3066.188434  Gnorm:      0.297811  CPU:    0.960
  Cycle:      5 Energy:     -3066.666376  Gnorm:      0.223873  CPU:    1.096
  Cycle:      6 Energy:     -3067.062742  Gnorm:      0.179287  CPU:    1.234
  Cycle:      7 Energy:     -3067.307512  Gnorm:      0.145612  CPU:    1.350
  Cycle:      8 Energy:     -3067.452576  Gnorm:      0.106071  CPU:    1.466
  Cycle:      9 Energy:     -3067.518642  Gnorm:      0.064631  CPU:    1.574
  Cycle:     10 Energy:     -3067.554378  Gnorm:      0.047302  CPU:    1.705
  ** Hessian has required structure
  Cycle:     11 Energy:     -3067.566518  Gnorm:      0.087220  CPU:    1.862
  ** Hessian has required structure
  Cycle:     12 Energy:     -3067.588908  Gnorm:      0.102218  CPU:    2.043
  ** Hessian has wrong structure
  ** Imaginary eigenvectors =   2
  ** Hessian has wrong structure
  ** Imaginary eigenvectors =   2
  Cycle:     13 Energy:     -3067.594786  Gnorm:      0.102076  CPU:    2.679
  ** Hessian has wrong structure
  ** Imaginary eigenvectors =   2
  ** Hessian has wrong structure
  ** Imaginary eigenvectors =   2
  Cycle:     14 Energy:     -3067.605277  Gnorm:      0.101901  CPU:    3.324
  ** Hessian has wrong structure
  ** Imaginary eigenvectors =   1
  ** Hessian has wrong structure
  ** Imaginary eigenvectors =   1
  Cycle:     15 Energy:     -3067.620880  Gnorm:      0.101329  CPU:    3.976
  ** Hessian has wrong structure
  ** Imaginary eigenvectors =   1
  ** Hessian has required structure
  Cycle:     16 Energy:     -3067.806584  Gnorm:      0.080187  CPU:    4.486
  ** Hessian has required structure
  Cycle:     17 Energy:     -3067.974279  Gnorm:      0.055940  CPU:    4.687
  ** Hessian has required structure
  Cycle:     18 Energy:     -3068.092480  Gnorm:      0.031861  CPU:    4.887
  ** Hessian has required structure
  Cycle:     19 Energy:     -3068.126577  Gnorm:      0.032949  CPU:    5.067
  ** Hessian has required structure
  Cycle:     20 Energy:     -3068.161096  Gnorm:      0.021116  CPU:    5.251
  ** Hessian has required structure
  Cycle:     21 Energy:     -3068.170300  Gnorm:      0.018939  CPU:    5.456
  ** Hessian has required structure
  Cycle:     22 Energy:     -3068.186952  Gnorm:      0.020156  CPU:    5.662
  ** Hessian has required structure
  Cycle:     23 Energy:     -3068.197758  Gnorm:      0.024831  CPU:    5.845
  ** Hessian has required structure
  Cycle:     24 Energy:     -3068.213024  Gnorm:      0.025155  CPU:    6.029
  ** Hessian has required structure
  Cycle:     25 Energy:     -3068.227795  Gnorm:      0.026220  CPU:    6.211
  ** Hessian has wrong structure
  ** Imaginary eigenvectors =   1
  Cycle:     26 Energy:     -3068.251473  Gnorm:      0.037403  CPU:    6.587
  ** Hessian has required structure
  Cycle:     27 Energy:     -3068.297206  Gnorm:      0.026241  CPU:    6.882
  ** Hessian has required structure
  Cycle:     28 Energy:     -3068.318026  Gnorm:      0.016975  CPU:    7.082
  ** Hessian has required structure
  Cycle:     29 Energy:     -3068.326685  Gnorm:      0.013586  CPU:    7.261
  ** Hessian has required structure
  Cycle:     30 Energy:     -3068.331898  Gnorm:      0.003514  CPU:    7.440
  ** Hessian has required structure
  Cycle:     31 Energy:     -3068.334044  Gnorm:      0.004760  CPU:    7.639
  ** Hessian has required structure
  Cycle:     32 Energy:     -3068.335071  Gnorm:      0.003943  CPU:    7.818
  ** Hessian has required structure
  Cycle:     33 Energy:     -3068.335551  Gnorm:      0.003659  CPU:    7.999
  ** Hessian has required structure
  Cycle:     34 Energy:     -3068.335966  Gnorm:      0.002938  CPU:    8.198
  ** Hessian has required structure
  Cycle:     35 Energy:     -3068.336359  Gnorm:      0.001754  CPU:    8.376
  ** Hessian has required structure
  Cycle:     36 Energy:     -3068.336635  Gnorm:      0.001667  CPU:    8.576
  ** Hessian has required structure
  Cycle:     37 Energy:     -3068.336906  Gnorm:      0.000974  CPU:    8.868
  ** Hessian has required structure
  Cycle:     38 Energy:     -3068.336998  Gnorm:      0.000648  CPU:    9.067
  ** Hessian has required structure
  Cycle:     39 Energy:     -3068.337028  Gnorm:      0.000436  CPU:    9.244
  ** Hessian has required structure
  Cycle:     40 Energy:     -3068.337045  Gnorm:      0.000289  CPU:    9.423
  ** Hessian has required structure
  Cycle:     41 Energy:     -3068.337048  Gnorm:      0.000235  CPU:    9.582
  ** Hessian has required structure
  Cycle:     42 Energy:     -3068.337050  Gnorm:      0.000187  CPU:    9.742
  ** Hessian has required structure
  Cycle:     43 Energy:     -3068.337051  Gnorm:      0.000170  CPU:    9.900
  ** Hessian has required structure
  Cycle:     44 Energy:     -3068.337051  Gnorm:      0.000170  CPU:   10.086
  ** Hessian has required structure
  Cycle:     45 Energy:     -3068.337051  Gnorm:      0.000169  CPU:   10.251
  ** Hessian has required structure
  Cycle:     46 Energy:     -3068.337051  Gnorm:      0.000152  CPU:   10.415
  ** Hessian has required structure
  Cycle:     47 Energy:     -3068.337053  Gnorm:      0.000108  CPU:   10.674
  ** Hessian has required structure
  Cycle:     48 Energy:     -3068.337053  Gnorm:      0.000097  CPU:   10.829
  ** Hessian has required structure
  Cycle:     49 Energy:     -3068.337053  Gnorm:      0.000096  CPU:   11.106
  ** Hessian has required structure
  Cycle:     50 Energy:     -3068.337053  Gnorm:      0.000091  CPU:   11.272
  ** Hessian has required structure
  Cycle:     51 Energy:     -3068.337053  Gnorm:      0.000091  CPU:   11.438
  ** Hessian has required structure
  Cycle:     52 Energy:     -3068.337053  Gnorm:      0.000090  CPU:   11.603
  ** Hessian has required structure
  Cycle:     53 Energy:     -3068.337053  Gnorm:      0.000090  CPU:   11.770
  ** Hessian has required structure
  Cycle:     54 Energy:     -3068.337053  Gnorm:      0.000090  CPU:   11.938
  ** Hessian has required structure
  Cycle:     55 Energy:     -3068.337053  Gnorm:      0.000090  CPU:   12.106
  ** Hessian has required structure
  Cycle:     56 Energy:     -3068.337053  Gnorm:      0.000100  CPU:   12.384
  ** Hessian has required structure
  Cycle:     57 Energy:     -3068.337053  Gnorm:      0.000100  CPU:   12.805
  ** Hessian calculated **


  **** Optimisation achieved ****


  Final energy =   -3068.33705331 eV      
  Final Gnorm  =       0.00010033

  Components of energy : 

--------------------------------------------------------------------------------
  Interatomic potentials     =         815.09550632 eV    
  Three-body potentials      =           0.18862093 eV    
  Monopole - monopole (real) =       -2206.83896278 eV    
  Monopole - monopole (recip)=       -1676.78221778 eV    
  Monopole - monopole (total)=       -3883.62118056 eV    
--------------------------------------------------------------------------------
  Total lattice energy       =       -3068.33705331 eV    
--------------------------------------------------------------------------------
  Total lattice energy       =         -296047.6218 kJ/(mole unit cells)
--------------------------------------------------------------------------------

  Final fractional coordinates of atoms :

--------------------------------------------------------------------------------
   No.  Atomic        x           y          z          Radius
        Label       (Frac)      (Frac)     (Frac)       (Angs) 
--------------------------------------------------------------------------------
     1  Ge    c     0.160190    0.293910    0.273440    0.000000
     2  Ge    c     0.850213    0.293724    0.691027    0.000000
     3  Ge    c     0.835020    0.694326    0.009494    0.000000
     4  Si    c     0.055143    0.988708    0.354680    0.000000
     5  Si    c     0.458992    0.978957    0.343420    0.000000
     6  Si    c     0.954205    0.987084    0.606096    0.000000
     7  Si    c     0.550152    0.974934    0.611628    0.000000
     8  Si    c     0.560512    0.966604    0.092207    0.000000
     9  Si    c     0.946307    0.981798    0.104336    0.000000
    10  Si    c     0.442489    0.976979    0.858693    0.000000
    11  Si    c     0.055473    0.974786    0.862772    0.000000
    12  Si    c     0.351171    0.676068    0.252406    0.000000
    13  Si    c     0.656513    0.668420    0.700416    0.000000
    14  Si    c     0.835472    0.708040    0.702813    0.000000
    15  Si    c     0.667265    0.267008    0.689755    0.000000
    16  Si    c     0.170432    0.703680    0.259689    0.000000
    17  Si    c     0.343403    0.271809    0.260863    0.000000
    18  Si    c     0.671586    0.256359    0.994219    0.000000
    19  Si    c     0.333542    0.265320    0.956361    0.000000
    20  Si    c     0.166325    0.687083    0.956660    0.000000
    21  Si    c     0.346811    0.663585    0.950514    0.000000
    22  Si    c     0.153127    0.286274    0.964555    0.000000
    23  Si    c     0.653265    0.649538    0.005305    0.000000
    24  Si    c     0.852908    0.289649    0.996440    0.000000
    25  O3    c     0.096799    0.175485    0.369126    0.000000
    26  O2    c     0.409201    0.799921    0.332532    0.000000
    27  O3    c     0.916196    0.178369    0.599061    0.000000
    28  O2    c     0.596434    0.792265    0.624362    0.000000
    29  O2    c     0.883357    0.847899    0.617392    0.000000
    30  O2    c     0.610932    0.136524    0.611378    0.000000
    31  O2    c     0.124468    0.847116    0.341972    0.000000
    32  O2    c     0.401994    0.146105    0.338278    0.000000
    33  O2    c     0.001835    0.944108    0.476969    0.000000
    34  O2    c     0.503462    0.976512    0.478534    0.000000
    35  O2    c     0.001292    0.984529    0.227970    0.000000
    36  O2    c     0.523239    0.993602    0.231682    0.000000
    37  O2    c     0.014451    0.969012    0.724506    0.000000
    38  O2    c     0.487988    0.997417    0.725660    0.000000
    39  O2    c     0.632153    0.103148    0.078022    0.000000
    40  O3    c     0.881168    0.832331    0.116638    0.000000
    41  O2    c     0.376737    0.126784    0.865806    0.000000
    42  O2    c     0.120125    0.821637    0.865588    0.000000
    43  O2    c     0.402173    0.784778    0.862157    0.000000
    44  O2    c     0.094879    0.166157    0.879926    0.000000
    45  O2    c     0.590870    0.766984    0.081947    0.000000
    46  O2    c     0.906034    0.171636    0.091044    0.000000
    47  O2    c     0.499138    0.008930    0.979744    0.000000
    48  O2    c     0.993793    0.931951    0.974927    0.000000
    49  O3    c     0.139914    0.512320    0.296059    0.000000
    50  O2    c     0.370380    0.473424    0.281901    0.000000
    51  O3    c     0.869791    0.515298    0.683030    0.000000
    52  O2    c     0.636473    0.465825    0.669852    0.000000
    53  O3    c     0.256152    0.249508    0.312659    0.000000
    54  O2    c     0.262444    0.717591    0.293425    0.000000
    55  O3    c     0.755368    0.253790    0.640344    0.000000
    56  O2    c     0.744921    0.709570    0.655539    0.000000
    57  O3    c     0.142503    0.236599    0.113817    0.000000
    58  O2    c     0.362245    0.715933    0.099881    0.000000
    59  O3    c     0.863622    0.225717    0.849694    0.000000
    60  O2    c     0.650120    0.704146    0.853828    0.000000
    61  O3    c     0.839257    0.767953    0.851490    0.000000
    62  O2    c     0.666101    0.213306    0.841631    0.000000
    63  O2    c     0.157897    0.741703    0.106743    0.000000
    64  O2    c     0.344605    0.222073    0.108412    0.000000
    65  O2    c     0.630723    0.443826    0.022586    0.000000
    66  O3    c     0.877669    0.489494    0.014434    0.000000
    67  O2    c     0.367075    0.460037    0.926160    0.000000
    68  O2    c     0.132224    0.490395    0.938891    0.000000
    69  O2    c     0.761878    0.268450    0.035753    0.000000
    70  O3    c     0.739170    0.682908    0.059457    0.000000
    71  O2    c     0.242188    0.253687    0.921339    0.000000
    72  O2    c     0.256540    0.695807    0.914523    0.000000
    73  O3    s     0.097843    0.166555    0.359880    0.000000
    74  O2    s     0.408014    0.805348    0.324582    0.000000
    75  O3    s     0.914572    0.168952    0.607179    0.000000
    76  O2    s     0.598150    0.798230    0.631532    0.000000
    77  O2    s     0.885697    0.847482    0.625602    0.000000
    78  O2    s     0.610653    0.133491    0.620198    0.000000
    79  O2    s     0.122231    0.846099    0.334008    0.000000
    80  O2    s     0.401595    0.141983    0.330127    0.000000
    81  O2    s     0.002580    0.954114    0.477499    0.000000
    82  O2    s     0.503720    0.976614    0.478272    0.000000
    83  O2    s     0.000872    0.984634    0.227639    0.000000
    84  O2    s     0.520301    0.988792    0.228029    0.000000
    85  O2    s     0.012481    0.971724    0.727471    0.000000
    86  O2    s     0.489691    0.992443    0.728453    0.000000
    87  O2    s     0.628859    0.105533    0.070085    0.000000
    88  O3    s     0.883892    0.835819    0.106465    0.000000
    89  O2    s     0.379014    0.126109    0.875295    0.000000
    90  O2    s     0.118376    0.822959    0.875571    0.000000
    91  O2    s     0.400347    0.791716    0.871551    0.000000
    92  O2    s     0.097025    0.158926    0.887379    0.000000
    93  O2    s     0.594409    0.775421    0.074684    0.000000
    94  O2    s     0.904601    0.164155    0.082181    0.000000
    95  O2    s     0.499707    0.000548    0.978815    0.000000
    96  O2    s     0.995527    0.941876    0.976292    0.000000
    97  O3    s     0.144721    0.513792    0.290486    0.000000
    98  O2    s     0.365443    0.474140    0.276458    0.000000
    99  O3    s     0.864753    0.516364    0.685628    0.000000
   100  O2    s     0.641849    0.466717    0.675228    0.000000
   101  O3    s     0.257120    0.255361    0.304267    0.000000
   102  O2    s     0.262190    0.711623    0.285396    0.000000
   103  O3    s     0.754162    0.258306    0.649324    0.000000
   104  O2    s     0.744862    0.704993    0.665167    0.000000
   105  O3    s     0.144989    0.246162    0.111559    0.000000
   106  O2    s     0.359432    0.706202    0.100207    0.000000
   107  O3    s     0.861529    0.237323    0.851450    0.000000
   108  O2    s     0.651131    0.694586    0.853313    0.000000
   109  O3    s     0.838544    0.756089    0.849724    0.000000
   110  O2    s     0.666806    0.223545    0.842090    0.000000
   111  O2    s     0.160133    0.731901    0.106767    0.000000
   112  O2    s     0.343299    0.231893    0.108109    0.000000
   113  O2    s     0.637236    0.445670    0.017859    0.000000
   114  O3    s     0.871721    0.485592    0.012219    0.000000
   115  O2    s     0.361389    0.461436    0.931950    0.000000
   116  O2    s     0.137998    0.489742    0.943444    0.000000
   117  O2    s     0.761511    0.269450    0.027060    0.000000
   118  O3    s     0.738200    0.680405    0.049815    0.000000
   119  O2    s     0.242581    0.258568    0.929844    0.000000
   120  O2    s     0.256531    0.691242    0.923081    0.000000
--------------------------------------------------------------------------------

  Final Cartesian lattice vectors (Angstroms) :

       17.107531   -0.041004   -0.033907
       -0.018358    7.620743    0.010027
       -0.021055    0.016101   10.298948


  Final cell parameters and derivatives :

--------------------------------------------------------------------------------
       a           17.107614 Angstrom     dE/de1(xx)     0.007542 eV/strain
       b            7.620772 Angstrom     dE/de2(yy)     0.006003 eV/strain
       c           10.298982 Angstrom     dE/de3(zz)    -0.002455 eV/strain
       alpha       89.834759 Degrees      dE/de4(yz)     0.000964 eV/strain
       beta        90.230910 Degrees      dE/de5(xz)    -0.000774 eV/strain
       gamma       90.275496 Degrees      dE/de6(xy)    -0.005569 eV/strain
--------------------------------------------------------------------------------

  Primitive cell volume =          1342.679521 Angs**3

  Density of cell =      1.948779 g/cm**3

  Non-primitive cell volume =          1342.679521 Angs**3


  Final internal derivatives :

--------------------------------------------------------------------------------
   No.  Atomic          a             b             c           Radius
        Label          (eV)          (eV)          (eV)        (eV/Angs)
--------------------------------------------------------------------------------
      1 Ge    c       0.000000      0.000000      0.000000      0.000000
      2 Ge    c      -0.001710      0.000783      0.003057      0.000000
      3 Ge    c       0.000106      0.001792     -0.003052      0.000000
      4 Si    c      -0.004221      0.002013      0.000119      0.000000
      5 Si    c      -0.005407     -0.002270     -0.000858      0.000000
      6 Si    c       0.002910     -0.001933     -0.000082      0.000000
      7 Si    c       0.010490      0.000946      0.000292      0.000000
      8 Si    c       0.004541      0.000923      0.001579      0.000000
      9 Si    c       0.001887     -0.001503      0.000421      0.000000
     10 Si    c      -0.002567     -0.002948     -0.000036      0.000000
     11 Si    c      -0.004325      0.001528     -0.002037      0.000000
     12 Si    c       0.004346      0.000996     -0.002294      0.000000
     13 Si    c      -0.000581     -0.000163      0.002216      0.000000
     14 Si    c       0.000637      0.001486      0.002484      0.000000
     15 Si    c      -0.001468     -0.001200      0.001623      0.000000
     16 Si    c       0.000737     -0.001258     -0.003420      0.000000
     17 Si    c      -0.001287      0.001063     -0.002646      0.000000
     18 Si    c      -0.001111     -0.001867     -0.001462      0.000000
     19 Si    c       0.000379      0.001064      0.003554      0.000000
     20 Si    c      -0.000784     -0.000158      0.002551      0.000000
     21 Si    c       0.004514      0.001639      0.001859      0.000000
     22 Si    c      -0.003337     -0.001534      0.003080      0.000000
     23 Si    c       0.000999     -0.000716     -0.002926      0.000000
     24 Si    c       0.000979      0.000434     -0.002457      0.000000
     25 O3    c       0.002698      0.001140     -0.000654      0.000000
     26 O2    c      -0.000530     -0.000679     -0.000283      0.000000
     27 O3    c       0.000927      0.001148     -0.001780      0.000000
     28 O2    c       0.000559     -0.001729     -0.000504      0.000000
     29 O2    c      -0.000288     -0.000549      0.000533      0.000000
     30 O2    c       0.000494      0.000914     -0.000335      0.000000
     31 O2    c       0.002902     -0.000775      0.001042      0.000000
     32 O2    c      -0.002675      0.002580      0.001253      0.000000
     33 O2    c      -0.001558     -0.000079      0.000837      0.000000
     34 O2    c      -0.006193      0.000021     -0.001388      0.000000
     35 O2    c       0.001691      0.000451      0.000577      0.000000
     36 O2    c       0.011467      0.000426     -0.001039      0.000000
     37 O2    c       0.001865      0.000070      0.001511      0.000000
     38 O2    c      -0.003677      0.001489     -0.000623      0.000000
     39 O2    c       0.001136      0.001498     -0.000624      0.000000
     40 O3    c      -0.000378     -0.000911      0.000264      0.000000
     41 O2    c      -0.003428      0.001802     -0.001222      0.000000
     42 O2    c       0.003556     -0.001613     -0.000327      0.000000
     43 O2    c      -0.002434     -0.002244      0.000409      0.000000
     44 O2    c       0.001183      0.000363      0.000381      0.000000
     45 O2    c      -0.001581     -0.001324      0.000939      0.000000
     46 O2    c      -0.002069      0.002007      0.000511      0.000000
     47 O2    c      -0.004810      0.002451      0.000938      0.000000
     48 O2    c      -0.000255     -0.000227     -0.000170      0.000000
     49 O3    c       0.000211      0.002565      0.000108      0.000000
     50 O2    c       0.000368     -0.001007      0.000248      0.000000
     51 O3    c       0.000902     -0.001110      0.000708      0.000000
     52 O2    c      -0.000851     -0.000030     -0.000170      0.000000
     53 O3    c       0.002951      0.000066      0.000456      0.000000
     54 O2    c      -0.002815      0.000133      0.000617      0.000000
     55 O3    c      -0.000304      0.000772     -0.000411      0.000000
     56 O2    c       0.002339     -0.000299     -0.000052      0.000000
     57 O3    c       0.002307      0.001652     -0.001264      0.000000
     58 O2    c      -0.001307     -0.001186      0.000449      0.000000
     59 O3    c      -0.002668      0.001514     -0.000738      0.000000
     60 O2    c       0.000533     -0.001023      0.000460      0.000000
     61 O3    c      -0.001521     -0.002103     -0.000189      0.000000
     62 O2    c       0.001064      0.001255     -0.000426      0.000000
     63 O2    c       0.001167     -0.000879      0.000769      0.000000
     64 O2    c      -0.000718      0.001035     -0.000709      0.000000
     65 O2    c      -0.001660      0.001159      0.000431      0.000000
     66 O3    c       0.001247     -0.001695     -0.000560      0.000000
     67 O2    c       0.000240     -0.002017     -0.000356      0.000000
     68 O2    c      -0.000143      0.001264     -0.000364      0.000000
     69 O2    c      -0.002721      0.000306      0.000365      0.000000
     70 O3    c       0.000214     -0.000584      0.000319      0.000000
     71 O2    c       0.003017     -0.000118     -0.000665      0.000000
     72 O2    c      -0.001072      0.000061     -0.000639      0.000000
     73 O3    s      -0.000712      0.000259     -0.000451      0.000000
     74 O2    s      -0.003908     -0.000953     -0.000629      0.000000
     75 O3    s      -0.001446     -0.000606      0.001783      0.000000
     76 O2    s       0.005359     -0.000553      0.000818      0.000000
     77 O2    s      -0.001269      0.000068      0.000648      0.000000
     78 O2    s       0.006912      0.000752      0.001202      0.000000
     79 O2    s       0.000492     -0.000489     -0.000769      0.000000
     80 O2    s      -0.005451      0.000219     -0.001473      0.000000
     81 O2    s      -0.000262     -0.000330      0.000289      0.000000
     82 O2    s       0.000557     -0.000623      0.000121      0.000000
     83 O2    s      -0.000386     -0.000399     -0.000304      0.000000
     84 O2    s       0.000011     -0.000338      0.000991      0.000000
     85 O2    s      -0.000992      0.000171     -0.000390      0.000000
     86 O2    s       0.001017      0.000460     -0.001024      0.000000
     87 O2    s       0.005355     -0.000138     -0.001134      0.000000
     88 O3    s      -0.001242     -0.000275     -0.000313      0.000000
     89 O2    s      -0.004959      0.000600      0.000579      0.000000
     90 O2    s      -0.000294      0.000261      0.000735      0.000000
     91 O2    s      -0.004076     -0.000953      0.000869      0.000000
     92 O2    s      -0.000784      0.000189      0.000589      0.000000
     93 O2    s       0.005158     -0.000635     -0.000845      0.000000
     94 O2    s      -0.000708      0.000177     -0.001175      0.000000
     95 O2    s       0.001344      0.000109      0.001302      0.000000
     96 O2    s       0.000799      0.000051     -0.000384      0.000000
     97 O3    s       0.000650     -0.000852     -0.001172      0.000000
     98 O2    s      -0.001134     -0.000077     -0.001313      0.000000
     99 O3    s      -0.001210      0.000916      0.000706      0.000000
    100 O2    s       0.001398     -0.000414      0.001473      0.000000
    101 O3    s      -0.000964      0.000091     -0.001642      0.000000
    102 O2    s      -0.000306     -0.000118     -0.001571      0.000000
    103 O3    s      -0.000059     -0.000240      0.001579      0.000000
    104 O2    s       0.000484     -0.000265      0.001299      0.000000
    105 O3    s      -0.000852     -0.000697      0.000540      0.000000
    106 O2    s      -0.000060      0.000826      0.000162      0.000000
    107 O3    s       0.001274     -0.000714      0.000245      0.000000
    108 O2    s       0.000298      0.000560      0.000066      0.000000
    109 O3    s      -0.001459      0.000800     -0.000664      0.000000
    110 O2    s       0.000265     -0.000821      0.000078      0.000000
    111 O2    s       0.000477     -0.000120     -0.000051      0.000000
    112 O2    s      -0.000283     -0.000156      0.000643      0.000000
    113 O2    s       0.001544     -0.000498     -0.001280      0.000000
    114 O3    s      -0.001090      0.000989     -0.000467      0.000000
    115 O2    s      -0.000949      0.000225      0.001189      0.000000
    116 O2    s       0.000043     -0.000058      0.000781      0.000000
    117 O2    s       0.000803     -0.000311     -0.001056      0.000000
    118 O3    s      -0.000347      0.000414     -0.001610      0.000000
    119 O2    s      -0.000325     -0.000010      0.001426      0.000000
    120 O2    s      -0.000469      0.000147      0.001454      0.000000
--------------------------------------------------------------------------------
  Maximum abs         0.011467      0.002948      0.003554      0.000000
--------------------------------------------------------------------------------


  Born effective charge tensors : 

-------------------------------------------------------------------------------
  Atom             x           y             z
-------------------------------------------------------------------------------
    1 Ge    x       3.9367      0.2864     -0.1274
            y       0.3326      4.1819     -0.2534
            z      -0.1598     -0.0615      3.4414
-------------------------------------------------------------------------------
    2 Ge    x       3.9814     -0.3177     -0.0674
            y      -0.3616      4.1862      0.3018
            z      -0.1689      0.0309      3.4210
-------------------------------------------------------------------------------
    3 Ge    x       4.0233      0.4561      0.1985
            y       0.1148      4.1510      0.3221
            z       0.2175      0.0395      3.3235
-------------------------------------------------------------------------------
    4 Si    x       3.5708      0.2983     -0.1108
            y       0.0069      3.4504      0.0874
            z      -0.5466     -0.1656      3.7858
-------------------------------------------------------------------------------
    5 Si    x       3.4151      0.0427      0.2220
            y      -0.0608      3.2465      0.0308
            z       0.4033     -0.0176      3.8460
-------------------------------------------------------------------------------
    6 Si    x       3.5848     -0.3525     -0.1647
            y      -0.0082      3.4463     -0.0543
            z      -0.4319      0.1624      3.8291
-------------------------------------------------------------------------------
    7 Si    x       3.4418     -0.0945      0.1845
            y       0.0744      3.2413     -0.0448
            z       0.4214      0.0195      3.8411
-------------------------------------------------------------------------------
    8 Si    x       3.4497     -0.1899     -0.2509
            y       0.2044      3.2365     -0.0103
            z      -0.4415      0.0678      3.1269
-------------------------------------------------------------------------------
    9 Si    x       3.7082      0.0720      0.1053
            y       0.3036      3.3962     -0.0696
            z       0.5461      0.0463      3.1231
-------------------------------------------------------------------------------
   10 Si    x       3.4770      0.1558     -0.1986
            y      -0.1338      3.2590      0.0119
            z      -0.5144     -0.0515      3.1198
-------------------------------------------------------------------------------
   11 Si    x       3.4940      0.1034      0.2415
            y      -0.1542      3.2541      0.0305
            z       0.4463     -0.0252      3.1249
-------------------------------------------------------------------------------
   12 Si    x       3.1949      0.2276      0.0706
            y       0.2372      3.4157      0.1675
            z       0.1130      0.0816      2.8268
-------------------------------------------------------------------------------
   13 Si    x       3.1900     -0.2557      0.0446
            y      -0.2531      3.4323     -0.1674
            z       0.1482     -0.0806      2.8158
-------------------------------------------------------------------------------
   14 Si    x       3.3790      0.2914     -0.0946
            y       0.0293      3.8323     -0.0316
            z      -0.1654      0.0910      3.1271
-------------------------------------------------------------------------------
   15 Si    x       3.5520      0.2876     -0.0259
            y       0.1557      3.5225      0.1881
            z       0.0535      0.0739      2.8904
-------------------------------------------------------------------------------
   16 Si    x       3.2766     -0.2470     -0.1546
            y      -0.0342      3.7516      0.0576
            z      -0.1456      0.0126      2.8973
-------------------------------------------------------------------------------
   17 Si    x       3.5322     -0.2502     -0.0297
            y      -0.1881      3.5348     -0.1907
            z       0.0509     -0.0823      2.9036
-------------------------------------------------------------------------------
   18 Si    x       3.1908      0.4096     -0.1288
            y       0.0541      3.4390     -0.1720
            z      -0.1260     -0.0844      2.7387
-------------------------------------------------------------------------------
   19 Si    x       3.2144     -0.3335     -0.1540
            y      -0.1059      3.4610      0.1880
            z      -0.1191      0.0874      2.7383
-------------------------------------------------------------------------------
   20 Si    x       3.2542     -0.3237      0.1613
            y      -0.1237      3.4339     -0.1851
            z       0.1347     -0.0475      2.7149
-------------------------------------------------------------------------------
   21 Si    x       3.2657      0.2733     -0.1260
            y       0.2479      3.4160     -0.1835
            z      -0.1353     -0.0505      2.7141
-------------------------------------------------------------------------------
   22 Si    x       3.3577      0.3005      0.0776
            y       0.2844      3.5163      0.0953
            z       0.1389     -0.0164      3.0164
-------------------------------------------------------------------------------
   23 Si    x       3.5886     -0.2397      0.0426
            y      -0.2245      3.5080      0.2200
            z      -0.0978      0.0673      2.8004
-------------------------------------------------------------------------------
   24 Si    x       3.4499     -0.2492      0.1329
            y      -0.1314      3.8053     -0.0627
            z       0.1854      0.1150      3.0383
-------------------------------------------------------------------------------
   25 O3    x      -1.9361     -0.9107      0.3348
            y      -0.8827     -2.4875      0.3053
            z       0.4180      0.3103     -1.5549
-------------------------------------------------------------------------------
   26 O2    x      -1.6821     -0.7225     -0.3281
            y      -0.6983     -1.9867     -0.3481
            z      -0.3635     -0.3466     -1.3534
-------------------------------------------------------------------------------
   27 O3    x      -1.9476      0.9201      0.3616
            y       0.8683     -2.5074     -0.3397
            z       0.4220     -0.3257     -1.5456
-------------------------------------------------------------------------------
   28 O2    x      -1.6841      0.7373     -0.3131
            y       0.7041     -2.0205      0.3461
            z      -0.3658      0.3405     -1.3345
-------------------------------------------------------------------------------
   29 O2    x      -1.8386     -0.6646      0.3262
            y      -0.7103     -1.8370      0.3282
            z       0.3770      0.2878     -1.3602
-------------------------------------------------------------------------------
   30 O2    x      -1.7324     -0.7218     -0.2898
            y      -0.7385     -1.9589     -0.3004
            z      -0.3395     -0.3087     -1.3412
-------------------------------------------------------------------------------
   31 O2    x      -1.7981      0.6696      0.3370
            y       0.7220     -1.8661     -0.3641
            z       0.3878     -0.3101     -1.3715
-------------------------------------------------------------------------------
   32 O2    x      -1.7239      0.7257     -0.3145
            y       0.7428     -1.9771      0.3191
            z      -0.3469      0.3123     -1.3406
-------------------------------------------------------------------------------
   33 O2    x      -1.6274      0.0043      0.7693
            y      -0.0074     -1.0980     -0.0013
            z       1.0065     -0.0048     -2.6403
-------------------------------------------------------------------------------
   34 O2    x      -1.5785      0.0142     -0.8381
            y      -0.0019     -1.0864      0.0061
            z      -1.0059      0.0196     -2.8545
-------------------------------------------------------------------------------
   35 O2    x      -1.7254      0.0168     -0.7182
            y       0.0086     -1.1128      0.0188
            z      -0.7007      0.0424     -2.2164
-------------------------------------------------------------------------------
   36 O2    x      -1.6792      0.0465      0.7178
            y      -0.0059     -1.1150     -0.0426
            z       0.6938     -0.0653     -2.2470
-------------------------------------------------------------------------------
   37 O2    x      -1.6895      0.0085     -0.7346
            y       0.0124     -1.1102      0.0086
            z      -0.7019      0.0007     -2.2959
-------------------------------------------------------------------------------
   38 O2    x      -1.7383     -0.0056      0.7450
            y       0.0129     -1.1146      0.0049
            z       0.7596      0.0106     -2.2304
-------------------------------------------------------------------------------
   39 O2    x      -1.7645     -0.7178      0.3451
            y      -0.6732     -1.9360      0.3809
            z       0.3439      0.3520     -1.2429
-------------------------------------------------------------------------------
   40 O3    x      -2.1661     -0.9821     -0.3357
            y      -0.9264     -2.2809     -0.3781
            z      -0.3639     -0.3342     -1.4439
-------------------------------------------------------------------------------
   41 O2    x      -1.7445      0.7166      0.3402
            y       0.6898     -1.9404     -0.3829
            z       0.3439     -0.3391     -1.2582
-------------------------------------------------------------------------------
   42 O2    x      -1.7672      0.7302     -0.3443
            y       0.6942     -1.9193      0.3460
            z      -0.3418      0.3304     -1.2542
-------------------------------------------------------------------------------
   43 O2    x      -1.6468     -0.6996      0.3276
            y      -0.6083     -2.0194      0.3429
            z       0.3597      0.3404     -1.2503
-------------------------------------------------------------------------------
   44 O2    x      -1.6957     -0.7085     -0.3411
            y      -0.6215     -2.0353     -0.3618
            z      -0.3691     -0.3544     -1.2339
-------------------------------------------------------------------------------
   45 O2    x      -1.6311      0.6850      0.3211
            y       0.5524     -2.0533     -0.3354
            z       0.3431     -0.3311     -1.2220
-------------------------------------------------------------------------------
   46 O2    x      -1.6872      0.6578     -0.3383
            y       0.5821     -1.9255      0.3667
            z      -0.3753      0.3231     -1.2763
-------------------------------------------------------------------------------
   47 O2    x      -1.8341      0.0264     -0.6215
            y       0.0117     -1.1757      0.0227
            z      -0.3628      0.0135     -1.6891
-------------------------------------------------------------------------------
   48 O2    x      -1.7898      0.0029      0.5989
            y      -0.0005     -1.2111     -0.0310
            z       0.3245     -0.0430     -1.7363
-------------------------------------------------------------------------------
   49 O3    x      -1.3360     -0.1419      0.1040
            y      -0.1763     -3.1671      0.1407
            z       0.1202      0.1194     -1.2145
-------------------------------------------------------------------------------
   50 O2    x      -1.1569     -0.0071     -0.0512
            y      -0.0305     -2.5738      0.0289
            z      -0.0700      0.0343     -1.0764
-------------------------------------------------------------------------------
   51 O3    x      -1.3857      0.1665      0.0607
            y       0.2320     -3.2013     -0.0876
            z       0.0938     -0.0463     -1.1605
-------------------------------------------------------------------------------
   52 O2    x      -1.1638      0.0238     -0.0466
            y       0.0648     -2.5600     -0.0441
            z      -0.0744     -0.0411     -1.0788
-------------------------------------------------------------------------------
   53 O3    x      -2.9950      0.0627      0.1613
            y      -0.0037     -1.3811      0.0963
            z       0.1621      0.0549     -1.2515
-------------------------------------------------------------------------------
   54 O2    x      -2.4150      0.1238      0.0305
            y       0.0725     -1.2407     -0.0617
            z       0.0257     -0.0412     -1.0860
-------------------------------------------------------------------------------
   55 O3    x      -3.0205     -0.0776      0.0937
            y      -0.0038     -1.3700     -0.0948
            z       0.1285     -0.0436     -1.2579
-------------------------------------------------------------------------------
   56 O2    x      -2.4024     -0.1451      0.0196
            y      -0.1014     -1.2535      0.0607
            z       0.0231      0.0317     -1.1002
-------------------------------------------------------------------------------
   57 O3    x      -1.3447     -0.1592     -0.0068
            y      -0.1459     -1.4464      0.0659
            z      -0.0417      0.0412     -2.6092
-------------------------------------------------------------------------------
   58 O2    x      -1.1993     -0.1291      0.0001
            y      -0.1165     -1.2729     -0.0198
            z       0.0030     -0.0274     -2.0645
-------------------------------------------------------------------------------
   59 O3    x      -1.3713      0.1736      0.0041
            y       0.1438     -1.4526     -0.0645
            z      -0.0215     -0.0489     -2.5671
-------------------------------------------------------------------------------
   60 O2    x      -1.1862      0.1085      0.0666
            y       0.0948     -1.2890      0.0323
            z       0.0667      0.0488     -2.0938
-------------------------------------------------------------------------------
   61 O3    x      -1.3411     -0.1555     -0.0476
            y      -0.0827     -1.4605     -0.0242
            z      -0.0294     -0.0283     -2.5788
-------------------------------------------------------------------------------
   62 O2    x      -1.1745     -0.1189     -0.0263
            y      -0.0550     -1.2972      0.0082
            z      -0.0346      0.0276     -2.0890
-------------------------------------------------------------------------------
   63 O2    x      -1.1961      0.1271     -0.0436
            y       0.0816     -1.2774     -0.0745
            z      -0.0494     -0.0643     -2.0729
-------------------------------------------------------------------------------
   64 O2    x      -1.1724      0.1144     -0.0615
            y       0.0742     -1.3026     -0.0011
            z      -0.0656     -0.0261     -2.0885
-------------------------------------------------------------------------------
   65 O2    x      -1.2545      0.0892      0.0740
            y       0.1734     -2.4835     -0.0408
            z       0.1060     -0.0299     -1.0279
-------------------------------------------------------------------------------
   66 O3    x      -1.4509     -0.0100     -0.0799
            y       0.0796     -3.1423     -0.0885
            z      -0.1172     -0.0494     -1.0985
-------------------------------------------------------------------------------
   67 O2    x      -1.2220     -0.0363      0.0809
            y      -0.1068     -2.5157      0.0244
            z       0.0949      0.0112     -1.0208
-------------------------------------------------------------------------------
   68 O2    x      -1.2542     -0.0551     -0.0687
            y      -0.1094     -2.5394      0.0091
            z      -0.0952     -0.0136     -1.0054
-------------------------------------------------------------------------------
   69 O2    x      -2.4710     -0.0871     -0.0393
            y      -0.0213     -1.2478      0.0487
            z      -0.0510      0.0114     -1.0577
-------------------------------------------------------------------------------
   70 O3    x      -3.0269     -0.1896     -0.1139
            y      -0.1421     -1.3840     -0.0992
            z      -0.1252     -0.0445     -1.2315
-------------------------------------------------------------------------------
   71 O2    x      -2.4412      0.0686      0.0069
            y       0.0328     -1.2530     -0.0621
            z      -0.0146     -0.0348     -1.0363
-------------------------------------------------------------------------------
   72 O2    x      -2.4391      0.0746      0.0277
            y       0.0537     -1.2308      0.0614
            z       0.0160      0.0268     -1.0438
-------------------------------------------------------------------------------




  Elastic Constant Matrix: (Units=GPa)

-------------------------------------------------------------------------------
  Indices      1         2         3         4         5         6    
-------------------------------------------------------------------------------
       1     52.9032   26.9877   30.7307   -0.8081    5.2099   -2.6242
       2     26.9877   74.8484   23.8580   -0.9123    7.9444   -0.3808
       3     30.7307   23.8580   57.0385    0.2253    2.0924   -4.4318
       4     -0.8081   -0.9123    0.2253   11.5670   -0.0727    0.3285
       5      5.2099    7.9444    2.0924   -0.0727   22.4487   -1.6021
       6     -2.6242   -0.3808   -4.4318    0.3285   -1.6021   22.0898
-------------------------------------------------------------------------------


  Elastic Compliance Matrix: (Units=1/GPa)

-------------------------------------------------------------------------------
  Indices      1         2         3         4         5         6    
-------------------------------------------------------------------------------
       1    0.030378 -0.006215 -0.013607  0.001861 -0.003542  0.000487
       2   -0.006215  0.017304 -0.003851  0.001022 -0.004429 -0.001549
       3   -0.013607 -0.003851  0.026697 -0.001870  0.002302  0.003868
       4    0.001861  0.001022 -0.001870  0.086738 -0.000442 -0.001459
       5   -0.003542 -0.004429  0.002302 -0.000442  0.046961  0.003377
       6    0.000487 -0.001549  0.003868 -0.001459  0.003377  0.046344
-------------------------------------------------------------------------------

  Mechanical properties :

-------------------------------------------------------------------------------
  Convention :                    Reuss         Voigt         Hill
-------------------------------------------------------------------------------
  Bulk  Modulus (GPa)     =      36.99176      38.66032      37.82604
  Shear Modulus (GPa)     =      16.08859      18.10201      17.09530
-------------------------------------------------------------------------------
  Velocity S-wave (km/s)  =       2.87328       3.04777       2.96181
  Velocity P-wave (km/s)  =       5.47628       5.67657       5.57732
-------------------------------------------------------------------------------
  Compressibility (1/GPa) =    0.02703304
-------------------------------------------------------------------------------
  Stress axis :                     x             y             z
-------------------------------------------------------------------------------
  Youngs Moduli (GPa)     =      32.91810      57.79162      37.45683
-------------------------------------------------------------------------------
  Poissons Ratio (x)      =                     0.35918       0.50967
  Poissons Ratio (y)      =       0.20459                     0.14425
  Poissons Ratio (z)      =       0.44792       0.22256
-------------------------------------------------------------------------------


  Piezoelectric Strain Matrix: (Units=C/m**2)

-------------------------------------------------------------------------------
  Indices      1         2         3         4         5         6    
-------------------------------------------------------------------------------
       x     0.00729   0.50482  -0.22621   0.02215  -0.00468  -0.59065
       y    -0.87185  -0.60082  -0.24142  -0.16390  -0.25949   0.06976
       z    -0.01602   0.02389  -0.09549  -0.35004  -0.15055   0.10876
-------------------------------------------------------------------------------


  Piezoelectric Stress Matrix: (Units=10**-11 C/N)

-------------------------------------------------------------------------------
  Indices      1         2         3         4         5         6    
-------------------------------------------------------------------------------
       x    -0.00680   1.05194  -1.04195   0.37374  -0.50074  -2.90746
       y    -1.88183  -0.31741   0.77106  -1.59887  -0.66842   0.21676
       z     0.05990   0.10215  -0.16949  -3.02809  -0.68168   0.46280
-------------------------------------------------------------------------------


  Static dielectric constant tensor : 

-------------------------------------------------------------------------------
              x         y         z
-------------------------------------------------------------------------------
       x     4.02484   0.03517  -0.11316
       y     0.03517   4.16198  -0.00049
       z    -0.11316  -0.00049   3.23361
--------------------------------------------------------------------------------

  High frequency dielectric constant tensor : 

-------------------------------------------------------------------------------
              x         y         z
-------------------------------------------------------------------------------
       x     1.67724  -0.00051   0.00006
       y    -0.00051   1.68354   0.00045
       z     0.00006   0.00045   1.61916
-------------------------------------------------------------------------------

  Static refractive indices : 

-------------------------------------------------------------------------------
    1 =    1.79380      2 =    2.00783      3 =    2.04238
-------------------------------------------------------------------------------

  High frequency refractive indices : 

-------------------------------------------------------------------------------
    1 =    1.27246      2 =    1.29507      3 =    1.29753
-------------------------------------------------------------------------------


  Time to end of optimisation =      13.4198 seconds


  Peak dynamic memory used =       5.01 MB 


  Timing analysis for GULP :

--------------------------------------------------------------------------------
  Task / Subroutine                                          Time (Seconds)
--------------------------------------------------------------------------------
  Calculation of reciprocal space energy and derivatives          0.8226
  Calculation of real space energy and derivatives                8.3069
  Calculation of three-body energy and derivatives                0.7716
  Calculation and manipulation of Hessian matrix                  4.1876
  Calculation of matrix inversion                                 0.0369
  Global summation overhead                                       0.0002
--------------------------------------------------------------------------------
  Total CPU time                                                 13.4198
--------------------------------------------------------------------------------


  Dump file written as c00209.vasp.grs
  CIF file written as c00209.vasp.cif


  Job Finished at 12:04.02  7th October    2025                               

