********************************************************************************
*                       GENERAL UTILITY LATTICE PROGRAM                        *
*                                 Julian Gale                                  *
*                       Curtin Institute for Computation                       *
*                    School of Molecular and Life Sciences                     *
*                    Curtin University, Western Australia                      *
********************************************************************************
* Version = 6.1.2 * Last modified =   3rd November 2022                        *
********************************************************************************
*  optimise     - perform optimisation run                                     *
*  conp         - constant pressure calculation                                *
*  property     - calculate properties for final geometry                      *
********************************************************************************

  Job Started  at 12:03.34  7th October    2025                               

  Number of CPUs =     1


  Total number of configurations input =      1

********************************************************************************
*  Input for Configuration =   1 : c00208.vasp                                 *
********************************************************************************

  Formula = Ge3Si21O48                                                  

  Number of irreducible atoms/shells =     120


  Total number atoms/shells =     120

  Dimensionality = 3               :  Bulk   



  Cartesian lattice vectors (Angstroms) :

       17.182800    0.000000    0.000000
        0.000000    7.513760    0.000000
        0.000000    0.000000   10.447700

  Cell parameters (Angstroms/Degrees):

  a =      17.1828    alpha =  90.0000
  b =       7.5138    beta  =  90.0000
  c =      10.4477    gamma =  90.0000

  Initial cell volume =        1348.875752 Angs**3

  Temperature of configuration =   0.00     K 

  Pressure of configuration =         0.000 GPa 

  Fractional coordinates of asymmetric unit :

--------------------------------------------------------------------------------
   No.  Atomic       x           y          z         Charge      Occupancy
        Label      (Frac)      (Frac)     (Frac)        (e)         (Frac)  
--------------------------------------------------------------------------------
      1 Ge    c    0.160190    0.293910    0.273440     4.00000    1.000000    
      2 Ge    c    0.839810 *  0.293910 *  0.726560 *   4.00000    1.000000    
      3 Ge    c    0.660660 *  0.294090 *  0.017440 *   4.00000    1.000000    
      4 Si    c    0.052090 *  0.000000 *  0.372270 *   4.00000    1.000000    
      5 Si    c    0.447910 *  0.000000 *  0.372270 *   4.00000    1.000000    
      6 Si    c    0.947910 *  0.000000 *  0.627730 *   4.00000    1.000000    
      7 Si    c    0.552090 *  0.000000 *  0.627730 *   4.00000    1.000000    
      8 Si    c    0.556730 *  0.000000 *  0.122130 *   4.00000    1.000000    
      9 Si    c    0.943270 *  0.000000 *  0.122130 *   4.00000    1.000000    
     10 Si    c    0.443270 *  0.000000 *  0.877870 *   4.00000    1.000000    
     11 Si    c    0.056730 *  0.000000 *  0.877870 *   4.00000    1.000000    
     12 Si    c    0.339810 *  0.706090 *  0.273440 *   4.00000    1.000000    
     13 Si    c    0.660190 *  0.706090 *  0.726560 *   4.00000    1.000000    
     14 Si    c    0.839810 *  0.706090 *  0.726560 *   4.00000    1.000000    
     15 Si    c    0.660190 *  0.293910 *  0.726560 *   4.00000    1.000000    
     16 Si    c    0.160190 *  0.706090 *  0.273440 *   4.00000    1.000000    
     17 Si    c    0.339810 *  0.293910 *  0.273440 *   4.00000    1.000000    
     18 Si    c    0.839340 *  0.705910 *  0.017440 *   4.00000    1.000000    
     19 Si    c    0.339340 *  0.294090 *  0.982560 *   4.00000    1.000000    
     20 Si    c    0.160660 *  0.705910 *  0.982560 *   4.00000    1.000000    
     21 Si    c    0.339340 *  0.705910 *  0.982560 *   4.00000    1.000000    
     22 Si    c    0.160660 *  0.294090 *  0.982560 *   4.00000    1.000000    
     23 Si    c    0.660660 *  0.705910 *  0.017440 *   4.00000    1.000000    
     24 Si    c    0.839340 *  0.294090 *  0.017440 *   4.00000    1.000000    
     25 O3    c    0.106570 *  0.174340 *  0.366200 *   1.33043    1.000000    
     26 O2    c    0.393430 *  0.825660 *  0.366200 *   0.87073    1.000000    
     27 O3    c    0.893430 *  0.174340 *  0.633800 *   1.33043    1.000000    
     28 O2    c    0.606570 *  0.825660 *  0.633800 *   0.87073    1.000000    
     29 O2    c    0.893430 *  0.825660 *  0.633800 *   0.87073    1.000000    
     30 O2    c    0.606570 *  0.174340 *  0.633800 *   0.87073    1.000000    
     31 O2    c    0.106570 *  0.825660 *  0.366200 *   0.87073    1.000000    
     32 O2    c    0.393430 *  0.174340 *  0.366200 *   0.87073    1.000000    
     33 O2    c    0.000000 *  0.000000 *  0.500000 *   0.87073    1.000000    
     34 O2    c    0.500000 *  0.000000 *  0.500000 *   0.87073    1.000000    
     35 O2    c    0.994520 *  0.000000 *  0.250840 *   0.87073    1.000000    
     36 O2    c    0.505480 *  0.000000 *  0.250840 *   0.87073    1.000000    
     37 O2    c    0.005480 *  0.000000 *  0.749160 *   0.87073    1.000000    
     38 O2    c    0.494520 *  0.000000 *  0.749160 *   0.87073    1.000000    
     39 O3    c    0.610230 *  0.175520 *  0.115390 *   1.33043    1.000000    
     40 O2    c    0.889770 *  0.824480 *  0.115390 *   0.87073    1.000000    
     41 O2    c    0.389770 *  0.175520 *  0.884610 *   0.87073    1.000000    
     42 O2    c    0.110230 *  0.824480 *  0.884610 *   0.87073    1.000000    
     43 O2    c    0.389770 *  0.824480 *  0.884610 *   0.87073    1.000000    
     44 O2    c    0.110230 *  0.175520 *  0.884610 *   0.87073    1.000000    
     45 O2    c    0.610230 *  0.824480 *  0.115390 *   0.87073    1.000000    
     46 O2    c    0.889770 *  0.175520 *  0.115390 *   0.87073    1.000000    
     47 O2    c    0.500000 *  0.000000 *  0.000000 *   0.87073    1.000000    
     48 O2    c    0.000000 *  0.000000 *  0.000000 *   0.87073    1.000000    
     49 O3    c    0.151750 *  0.500000 *  0.313330 *   1.33043    1.000000    
     50 O2    c    0.348250 *  0.500000 *  0.313330 *   0.87073    1.000000    
     51 O3    c    0.848250 *  0.500000 *  0.686670 *   1.33043    1.000000    
     52 O2    c    0.651750 *  0.500000 *  0.686670 *   0.87073    1.000000    
     53 O3    c    0.250000 *  0.234950 *  0.285720 *   1.33043    1.000000    
     54 O2    c    0.250000 *  0.765050 *  0.285720 *   0.87073    1.000000    
     55 O3    c    0.750000 *  0.234950 *  0.714280 *   1.33043    1.000000    
     56 O2    c    0.750000 *  0.765050 *  0.714280 *   0.87073    1.000000    
     57 O3    c    0.131410 *  0.268650 *  0.127790 *   1.33043    1.000000    
     58 O2    c    0.368590 *  0.731350 *  0.127790 *   0.87073    1.000000    
     59 O3    c    0.868590 *  0.268650 *  0.872210 *   1.33043    1.000000    
     60 O2    c    0.631410 *  0.731350 *  0.872210 *   0.87073    1.000000    
     61 O2    c    0.868590 *  0.731350 *  0.872210 *   0.87073    1.000000    
     62 O3    c    0.631410 *  0.268650 *  0.872210 *   1.33043    1.000000    
     63 O2    c    0.131410 *  0.731350 *  0.127790 *   0.87073    1.000000    
     64 O2    c    0.368590 *  0.268650 *  0.127790 *   0.87073    1.000000    
     65 O3    c    0.653920 *  0.500000 *  0.058200 *   1.33043    1.000000    
     66 O2    c    0.846080 *  0.500000 *  0.058200 *   0.87073    1.000000    
     67 O2    c    0.346080 *  0.500000 *  0.941800 *   0.87073    1.000000    
     68 O2    c    0.153920 *  0.500000 *  0.941800 *   0.87073    1.000000    
     69 O3    c    0.750000 *  0.231060 *  0.027050 *   1.33043    1.000000    
     70 O2    c    0.750000 *  0.768940 *  0.027050 *   0.87073    1.000000    
     71 O2    c    0.250000 *  0.231060 *  0.972950 *   0.87073    1.000000    
     72 O2    c    0.250000 *  0.768940 *  0.972950 *   0.87073    1.000000    
     73 O3    s    0.106570 *  0.174340 *  0.366200 *  -3.33043    1.000000    
     74 O2    s    0.393430 *  0.825660 *  0.366200 *  -2.87073    1.000000    
     75 O3    s    0.893430 *  0.174340 *  0.633800 *  -3.33043    1.000000    
     76 O2    s    0.606570 *  0.825660 *  0.633800 *  -2.87073    1.000000    
     77 O2    s    0.893430 *  0.825660 *  0.633800 *  -2.87073    1.000000    
     78 O2    s    0.606570 *  0.174340 *  0.633800 *  -2.87073    1.000000    
     79 O2    s    0.106570 *  0.825660 *  0.366200 *  -2.87073    1.000000    
     80 O2    s    0.393430 *  0.174340 *  0.366200 *  -2.87073    1.000000    
     81 O2    s    0.000000 *  0.000000 *  0.500000 *  -2.87073    1.000000    
     82 O2    s    0.500000 *  0.000000 *  0.500000 *  -2.87073    1.000000    
     83 O2    s    0.994520 *  0.000000 *  0.250840 *  -2.87073    1.000000    
     84 O2    s    0.505480 *  0.000000 *  0.250840 *  -2.87073    1.000000    
     85 O2    s    0.005480 *  0.000000 *  0.749160 *  -2.87073    1.000000    
     86 O2    s    0.494520 *  0.000000 *  0.749160 *  -2.87073    1.000000    
     87 O3    s    0.610230 *  0.175520 *  0.115390 *  -3.33043    1.000000    
     88 O2    s    0.889770 *  0.824480 *  0.115390 *  -2.87073    1.000000    
     89 O2    s    0.389770 *  0.175520 *  0.884610 *  -2.87073    1.000000    
     90 O2    s    0.110230 *  0.824480 *  0.884610 *  -2.87073    1.000000    
     91 O2    s    0.389770 *  0.824480 *  0.884610 *  -2.87073    1.000000    
     92 O2    s    0.110230 *  0.175520 *  0.884610 *  -2.87073    1.000000    
     93 O2    s    0.610230 *  0.824480 *  0.115390 *  -2.87073    1.000000    
     94 O2    s    0.889770 *  0.175520 *  0.115390 *  -2.87073    1.000000    
     95 O2    s    0.500000 *  0.000000 *  0.000000 *  -2.87073    1.000000    
     96 O2    s    0.000000 *  0.000000 *  0.000000 *  -2.87073    1.000000    
     97 O3    s    0.151750 *  0.500000 *  0.313330 *  -3.33043    1.000000    
     98 O2    s    0.348250 *  0.500000 *  0.313330 *  -2.87073    1.000000    
     99 O3    s    0.848250 *  0.500000 *  0.686670 *  -3.33043    1.000000    
    100 O2    s    0.651750 *  0.500000 *  0.686670 *  -2.87073    1.000000    
    101 O3    s    0.250000 *  0.234950 *  0.285720 *  -3.33043    1.000000    
    102 O2    s    0.250000 *  0.765050 *  0.285720 *  -2.87073    1.000000    
    103 O3    s    0.750000 *  0.234950 *  0.714280 *  -3.33043    1.000000    
    104 O2    s    0.750000 *  0.765050 *  0.714280 *  -2.87073    1.000000    
    105 O3    s    0.131410 *  0.268650 *  0.127790 *  -3.33043    1.000000    
    106 O2    s    0.368590 *  0.731350 *  0.127790 *  -2.87073    1.000000    
    107 O3    s    0.868590 *  0.268650 *  0.872210 *  -3.33043    1.000000    
    108 O2    s    0.631410 *  0.731350 *  0.872210 *  -2.87073    1.000000    
    109 O2    s    0.868590 *  0.731350 *  0.872210 *  -2.87073    1.000000    
    110 O3    s    0.631410 *  0.268650 *  0.872210 *  -3.33043    1.000000    
    111 O2    s    0.131410 *  0.731350 *  0.127790 *  -2.87073    1.000000    
    112 O2    s    0.368590 *  0.268650 *  0.127790 *  -2.87073    1.000000    
    113 O3    s    0.653920 *  0.500000 *  0.058200 *  -3.33043    1.000000    
    114 O2    s    0.846080 *  0.500000 *  0.058200 *  -2.87073    1.000000    
    115 O2    s    0.346080 *  0.500000 *  0.941800 *  -2.87073    1.000000    
    116 O2    s    0.153920 *  0.500000 *  0.941800 *  -2.87073    1.000000    
    117 O3    s    0.750000 *  0.231060 *  0.027050 *  -3.33043    1.000000    
    118 O2    s    0.750000 *  0.768940 *  0.027050 *  -2.87073    1.000000    
    119 O2    s    0.250000 *  0.231060 *  0.972950 *  -2.87073    1.000000    
    120 O2    s    0.250000 *  0.768940 *  0.972950 *  -2.87073    1.000000    
--------------------------------------------------------------------------------



********************************************************************************
*  General input information                                                   *
********************************************************************************

  Species output for all configurations : 

--------------------------------------------------------------------------------
  Species    Type    Atomic    Atomic    Charge       Radii (Angs)     Library
                     Number     Mass       (e)     Cova   Ionic  VDW   Symbol
--------------------------------------------------------------------------------
    Ge       Core       32      72.61   4.000000   1.170  0.000  1.750 Ge       
    Si       Core       14      28.09   4.000000   1.200  0.000  2.100 Si       
    O1       Core        8      16.00   1.733957   0.730  0.000  0.000 O1       
    O2       Core        8      16.00   0.870733   0.730  0.000  1.360 O2       
    O3       Core        8      16.00   1.330431   0.730  0.000  1.360 O3       
    O1       Shell       8       0.00  -3.733957   0.730  0.000  0.000 O1       
    O2       Shell       8       0.00  -2.870733   0.730  0.000  0.000 O2       
    O3       Shell       8       0.00  -3.330431   0.730  0.000  0.000 O3       
--------------------------------------------------------------------------------


  Lattice summation method               =    Ewald          (3-D)
                                         =    Parry          (2-D)
                                         =    Saunders et al (1-D)
  Accuracy factor for lattice sums       =   12.000


  Analytic derivatives to be used

  Time limit = Infinity

  Maximum range for interatomic potentials =    100000.000000 Angstroms

  General interatomic potentials :

--------------------------------------------------------------------------------
Atom  Types   Potential      Parameter       Value         Units   Cutoffs(Ang)
  1     2                                                            Min /  Max 
--------------------------------------------------------------------------------
Si   c O1   s Buckingham    Buckingham A     1315.2478    eV        0.000 16.000
                            Buckingham rho  0.31775900    Ang       
                            Buckingham C     10.141118    eV*Ang^6  
--------------------------------------------------------------------------------
Si   c O2   s Buckingham    Buckingham A     1315.2478    eV        0.000 16.000
                            Buckingham rho  0.31775900    Ang       
                            Buckingham C     10.141118    eV*Ang^6  
--------------------------------------------------------------------------------
Si   c O3   s Buckingham    Buckingham A     1315.2478    eV        0.000 16.000
                            Buckingham rho  0.31775900    Ang       
                            Buckingham C     10.141118    eV*Ang^6  
--------------------------------------------------------------------------------
Ge   c O1   s Buckingham    Buckingham A     1497.3996    eV        0.000 16.000
                            Buckingham rho  0.32564600    Ang       
                            Buckingham C     16.808599    eV*Ang^6  
--------------------------------------------------------------------------------
Ge   c O2   s Buckingham    Buckingham A     1497.3996    eV        0.000 16.000
                            Buckingham rho  0.32564600    Ang       
                            Buckingham C     16.808599    eV*Ang^6  
--------------------------------------------------------------------------------
Ge   c O3   s Buckingham    Buckingham A     1497.3996    eV        0.000 16.000
                            Buckingham rho  0.32564600    Ang       
                            Buckingham C     16.808599    eV*Ang^6  
--------------------------------------------------------------------------------
O1   s O1   s Buckingham    Buckingham A     22764.000    eV        0.000 16.000
                            Buckingham rho  0.14900000    Ang       
                            Buckingham C     10.937044    eV*Ang^6  
--------------------------------------------------------------------------------
O1   s O2   s Buckingham    Buckingham A     22764.000    eV        0.000 16.000
                            Buckingham rho  0.14900000    Ang       
                            Buckingham C     10.937044    eV*Ang^6  
--------------------------------------------------------------------------------
O1   s O3   s Buckingham    Buckingham A     22764.000    eV        0.000 16.000
                            Buckingham rho  0.14900000    Ang       
                            Buckingham C     10.937044    eV*Ang^6  
--------------------------------------------------------------------------------
O2   s O2   s Buckingham    Buckingham A     22764.000    eV        0.000 16.000
                            Buckingham rho  0.14900000    Ang       
                            Buckingham C     10.937044    eV*Ang^6  
--------------------------------------------------------------------------------
O2   s O3   s Buckingham    Buckingham A     22764.000    eV        0.000 16.000
                            Buckingham rho  0.14900000    Ang       
                            Buckingham C     10.937044    eV*Ang^6  
--------------------------------------------------------------------------------
O3   s O3   s Buckingham    Buckingham A     22764.000    eV        0.000 16.000
                            Buckingham rho  0.14900000    Ang       
                            Buckingham C     10.937044    eV*Ang^6  
--------------------------------------------------------------------------------
O1   c O1   s Spring (c-s)  Spring k 2       180.31577    eV*Ang^-2 0.000  0.800
                            Spring k 4       0.0000000    eV*Ang^-4 
--------------------------------------------------------------------------------
O2   c O2   s Spring (c-s)  Spring k 2       75.969800    eV*Ang^-2 0.000  0.800
                            Spring k 4       0.0000000    eV*Ang^-4 
--------------------------------------------------------------------------------
O3   c O3   s Spring (c-s)  Spring k 2       128.14270    eV*Ang^-2 0.000  0.800
                            Spring k 4       0.0000000    eV*Ang^-4 
--------------------------------------------------------------------------------

  General Three-body potentials :

--------------------------------------------------------------------------------
  Atoms       Potential      Parameter       Value         Units   Cutoffs(Ang)
  1 / 2 / 3                                                          Min /  Max 
--------------------------------------------------------------------------------
Si    core    Harmonic      Three-body cnst  1.2614000    eV*rad^-2 0.000  1.900
O1    shel                  Three-body angl  109.47000    degrees   0.000  1.900
O1    shel                  Three-body k4    0.0000000    eV*rad^-4 0.000  3.500
                            Three-body k3    0.0000000    eV*rad^-3 
--------------------------------------------------------------------------------
Si    core    Harmonic      Three-body cnst  1.2614000    eV*rad^-2 0.000  1.900
O1    shel                  Three-body angl  109.47000    degrees   0.000  1.900
õ(1   shel                  Three-body k4    0.0000000    eV*rad^-4 0.000  3.500
                            Three-body k3    0.0000000    eV*rad^-3 
--------------------------------------------------------------------------------
Si    core    Harmonic      Three-body cnst  1.2614000    eV*rad^-2 0.000  1.900
õ(1   shel                  Three-body angl  109.47000    degrees   0.000  1.900
õ(1   shel                  Three-body k4    0.0000000    eV*rad^-4 0.000  3.500
                            Three-body k3    0.0000000    eV*rad^-3 
--------------------------------------------------------------------------------
Si    core    Harmonic      Three-body cnst  1.2614000    eV*rad^-2 0.000  1.900
O1    shel                  Three-body angl  109.47000    degrees   0.000  1.900
O2    shel                  Three-body k4    0.0000000    eV*rad^-4 0.000  3.500
                            Three-body k3    0.0000000    eV*rad^-3 
--------------------------------------------------------------------------------
Si    core    Harmonic      Three-body cnst  1.2614000    eV*rad^-2 0.000  1.900
O1    shel                  Three-body angl  109.47000    degrees   0.000  1.900
õ(2   shel                  Three-body k4    0.0000000    eV*rad^-4 0.000  3.500
                            Three-body k3    0.0000000    eV*rad^-3 
--------------------------------------------------------------------------------
Si    core    Harmonic      Three-body cnst  1.2614000    eV*rad^-2 0.000  1.900
O2    shel                  Three-body angl  109.47000    degrees   0.000  1.900
õ(1   shel                  Three-body k4    0.0000000    eV*rad^-4 0.000  3.500
                            Three-body k3    0.0000000    eV*rad^-3 
--------------------------------------------------------------------------------
Si    core    Harmonic      Three-body cnst  1.2614000    eV*rad^-2 0.000  1.900
õ(1   shel                  Three-body angl  109.47000    degrees   0.000  1.900
õ(2   shel                  Three-body k4    0.0000000    eV*rad^-4 0.000  3.500
                            Three-body k3    0.0000000    eV*rad^-3 
--------------------------------------------------------------------------------
Si    core    Harmonic      Three-body cnst  1.2614000    eV*rad^-2 0.000  1.900
O2    shel                  Three-body angl  109.47000    degrees   0.000  1.900
O2    shel                  Three-body k4    0.0000000    eV*rad^-4 0.000  3.500
                            Three-body k3    0.0000000    eV*rad^-3 
--------------------------------------------------------------------------------
Si    core    Harmonic      Three-body cnst  1.2614000    eV*rad^-2 0.000  1.900
O2    shel                  Three-body angl  109.47000    degrees   0.000  1.900
õ(2   shel                  Three-body k4    0.0000000    eV*rad^-4 0.000  3.500
                            Three-body k3    0.0000000    eV*rad^-3 
--------------------------------------------------------------------------------
Si    core    Harmonic      Three-body cnst  1.2614000    eV*rad^-2 0.000  1.900
õ(2   shel                  Three-body angl  109.47000    degrees   0.000  1.900
õ(2   shel                  Three-body k4    0.0000000    eV*rad^-4 0.000  3.500
                            Three-body k3    0.0000000    eV*rad^-3 
--------------------------------------------------------------------------------

********************************************************************************
*  Output for configuration   1 : c00208.vasp                                  *
********************************************************************************


  Components of energy : 

--------------------------------------------------------------------------------
  Interatomic potentials     =         760.29124375 eV    
  Three-body potentials      =           0.01522867 eV    
  Monopole - monopole (real) =       -2676.00317478 eV    
  Monopole - monopole (recip)=       -1115.35404472 eV    
  Monopole - monopole (total)=       -3791.35721950 eV    
--------------------------------------------------------------------------------
  Total lattice energy       =       -3031.05074709 eV    
--------------------------------------------------------------------------------
  Total lattice energy       =         -292450.0632 kJ/(mole unit cells)
--------------------------------------------------------------------------------


  Number of variables =      363

  Maximum number of calculations  =          1000
  Maximum Hessian update interval =            10
  Maximum step size               =   0.100000000
  Maximum parameter tolerance     =   0.000010000
  Maximum function  tolerance     =   0.000010000
  Maximum gradient  tolerance     =   0.001000000
  Maximum gradient  component     =   0.010000000

  Symmetry not applied to optimisation

  Cell parameters to be optimised using strains

  Newton-Raphson optimiser to be used

  BFGS hessian update to be used

  Lower half triangular hessian to be used

  Minimiser to switch to RFO
  When gradient norm is less than     0.050000

  Dumpfile to be written after every cycle

  Start of bulk optimisation :

  Cycle:      0 Energy:     -3031.050747  Gnorm:      4.456877  CPU:    0.119
  ** Hessian calculated **
  Cycle:      1 Energy:     -3062.067654  Gnorm:      0.974023  CPU:    0.254
  ** Hessian calculated **
  Cycle:      2 Energy:     -3066.575174  Gnorm:      0.385839  CPU:    0.504
  ** Hessian calculated **
  Cycle:      3 Energy:     -3066.974939  Gnorm:      0.224343  CPU:    0.714
  Cycle:      4 Energy:     -3067.130616  Gnorm:      0.154737  CPU:    0.823
  Cycle:      5 Energy:     -3067.279416  Gnorm:      0.118360  CPU:    0.955
  Cycle:      6 Energy:     -3067.415993  Gnorm:      0.100033  CPU:    1.087
  Cycle:      7 Energy:     -3067.508042  Gnorm:      0.086242  CPU:    1.201
  Cycle:      8 Energy:     -3067.567501  Gnorm:      0.070819  CPU:    1.313
  Cycle:      9 Energy:     -3067.599957  Gnorm:      0.052212  CPU:    1.425
  Cycle:     10 Energy:     -3067.621165  Gnorm:      0.044378  CPU:    1.559
  ** Hessian has required structure
  Cycle:     11 Energy:     -3067.637617  Gnorm:      0.092060  CPU:    1.722
  ** Hessian has required structure
  Cycle:     12 Energy:     -3067.654288  Gnorm:      0.063669  CPU:    1.882
  ** Hessian has wrong structure
  ** Imaginary eigenvectors =   1
  ** Hessian has wrong structure
  ** Imaginary eigenvectors =   1
  Cycle:     13 Energy:     -3067.656626  Gnorm:      0.063644  CPU:    2.528
  ** Hessian has wrong structure
  ** Imaginary eigenvectors =   1
  ** Hessian has wrong structure
  ** Imaginary eigenvectors =   1
  Cycle:     14 Energy:     -3067.706048  Gnorm:      0.060330  CPU:    3.126
  ** Hessian has wrong structure
  ** Imaginary eigenvectors =   1
  Cycle:     15 Energy:     -3067.790780  Gnorm:      0.055219  CPU:    3.495
  ** Hessian has required structure
  Cycle:     16 Energy:     -3067.923980  Gnorm:      0.042695  CPU:    3.798
  ** Hessian has required structure
  Cycle:     17 Energy:     -3068.050227  Gnorm:      0.028567  CPU:    4.005
  ** Hessian has required structure
  Cycle:     18 Energy:     -3068.123559  Gnorm:      0.019534  CPU:    4.210
  ** Hessian has required structure
  Cycle:     19 Energy:     -3068.153881  Gnorm:      0.015515  CPU:    4.415
  ** Hessian has required structure
  Cycle:     20 Energy:     -3068.170815  Gnorm:      0.014366  CPU:    4.619
  ** Hessian has required structure
  Cycle:     21 Energy:     -3068.181292  Gnorm:      0.017785  CPU:    4.798
  ** Hessian has required structure
  Cycle:     22 Energy:     -3068.191442  Gnorm:      0.014846  CPU:    4.976
  ** Hessian has required structure
  Cycle:     23 Energy:     -3068.199891  Gnorm:      0.017565  CPU:    5.173
  ** Hessian has required structure
  Cycle:     24 Energy:     -3068.215173  Gnorm:      0.019187  CPU:    5.371
  ** Hessian has required structure
  Cycle:     25 Energy:     -3068.228322  Gnorm:      0.019067  CPU:    5.549
  ** Hessian has required structure
  Cycle:     26 Energy:     -3068.238889  Gnorm:      0.019839  CPU:    5.839
  ** Hessian has required structure
  Cycle:     27 Energy:     -3068.256644  Gnorm:      0.019835  CPU:    6.016
  ** Hessian has required structure
  Cycle:     28 Energy:     -3068.265703  Gnorm:      0.010527  CPU:    6.192
  ** Hessian has required structure
  Cycle:     29 Energy:     -3068.270666  Gnorm:      0.007388  CPU:    6.388
  ** Hessian has required structure
  Cycle:     30 Energy:     -3068.272166  Gnorm:      0.005056  CPU:    6.563
  ** Hessian has required structure
  Cycle:     31 Energy:     -3068.272743  Gnorm:      0.001682  CPU:    6.739
  ** Hessian has required structure
  Cycle:     32 Energy:     -3068.273030  Gnorm:      0.001861  CPU:    6.934
  ** Hessian has required structure
  Cycle:     33 Energy:     -3068.273118  Gnorm:      0.001784  CPU:    7.109
  ** Hessian has required structure
  Cycle:     34 Energy:     -3068.273224  Gnorm:      0.001682  CPU:    7.305
  ** Hessian has required structure
  Cycle:     35 Energy:     -3068.273353  Gnorm:      0.001889  CPU:    7.499
  ** Hessian has required structure
  Cycle:     36 Energy:     -3068.273598  Gnorm:      0.001697  CPU:    7.787
  ** Hessian has required structure
  Cycle:     37 Energy:     -3068.273862  Gnorm:      0.001909  CPU:    7.982
  ** Hessian has required structure
  Cycle:     38 Energy:     -3068.274102  Gnorm:      0.001630  CPU:    8.179
  ** Hessian has required structure
  Cycle:     39 Energy:     -3068.274203  Gnorm:      0.001126  CPU:    8.359
  ** Hessian has required structure
  Cycle:     40 Energy:     -3068.274281  Gnorm:      0.001214  CPU:    8.563
  ** Hessian has required structure
  Cycle:     41 Energy:     -3068.274333  Gnorm:      0.000360  CPU:    8.746
  ** Hessian has required structure
  Cycle:     42 Energy:     -3068.274344  Gnorm:      0.000282  CPU:    8.928
  ** Hessian has required structure
  Cycle:     43 Energy:     -3068.274347  Gnorm:      0.000204  CPU:    9.085
  ** Hessian has required structure
  Cycle:     44 Energy:     -3068.274349  Gnorm:      0.000168  CPU:    9.245
  ** Hessian has required structure
  Cycle:     45 Energy:     -3068.274349  Gnorm:      0.000157  CPU:    9.403
  ** Hessian has required structure
  Cycle:     46 Energy:     -3068.274349  Gnorm:      0.000157  CPU:    9.720
  ** Hessian calculated **
  Cycle:     47 Energy:     -3068.274350  Gnorm:      0.000099  CPU:    9.919
  ** Hessian has required structure
  Cycle:     48 Energy:     -3068.274350  Gnorm:      0.000162  CPU:   10.080
  ** Hessian has required structure
  Cycle:     49 Energy:     -3068.274350  Gnorm:      0.000163  CPU:   10.241
  ** Hessian has required structure
  Cycle:     50 Energy:     -3068.274350  Gnorm:      0.000138  CPU:   10.402
  ** Hessian has required structure
  Cycle:     51 Energy:     -3068.274350  Gnorm:      0.000118  CPU:   10.559
  ** Hessian has required structure
  Cycle:     52 Energy:     -3068.274350  Gnorm:      0.000108  CPU:   10.716
  ** Hessian has required structure
  Cycle:     53 Energy:     -3068.274350  Gnorm:      0.000105  CPU:   10.874
  ** Hessian has required structure
  Cycle:     54 Energy:     -3068.274350  Gnorm:      0.000102  CPU:   11.033
  ** Hessian has required structure
  Cycle:     55 Energy:     -3068.274350  Gnorm:      0.000099  CPU:   11.191
  ** Hessian has required structure
  Cycle:     56 Energy:     -3068.274350  Gnorm:      0.000099  CPU:   11.348
  ** Hessian has required structure
  Cycle:     57 Energy:     -3068.274350  Gnorm:      0.000099  CPU:   11.644
  ** Hessian has required structure
  Cycle:     58 Energy:     -3068.274350  Gnorm:      0.000099  CPU:   11.801
  ** Hessian has required structure
  Cycle:     59 Energy:     -3068.274350  Gnorm:      0.000099  CPU:   11.963
  ** Hessian has required structure
  Cycle:     60 Energy:     -3068.274350  Gnorm:      0.000099  CPU:   12.122
  ** Hessian has required structure
  Cycle:     61 Energy:     -3068.274350  Gnorm:      0.000098  CPU:   12.283
  ** Hessian has required structure
  Cycle:     62 Energy:     -3068.274350  Gnorm:      0.000098  CPU:   12.502
  ** Hessian has required structure
  Cycle:     63 Energy:     -3068.274350  Gnorm:      0.000098  CPU:   12.660
  ** Hessian has required structure
  Cycle:     64 Energy:     -3068.274350  Gnorm:      0.000098  CPU:   12.817
  ** Hessian has required structure


  **** Too many failed attempts to optimise ****

  Final energy =   -3068.27434967 eV      
  Final Gnorm  =       0.00009831

  Components of energy : 

--------------------------------------------------------------------------------
  Interatomic potentials     =         814.23623505 eV    
  Three-body potentials      =           0.18892863 eV    
  Monopole - monopole (real) =       -2207.18933990 eV    
  Monopole - monopole (recip)=       -1675.51017346 eV    
  Monopole - monopole (total)=       -3882.69951336 eV    
--------------------------------------------------------------------------------
  Total lattice energy       =       -3068.27434967 eV    
--------------------------------------------------------------------------------
  Total lattice energy       =         -296041.5719 kJ/(mole unit cells)
--------------------------------------------------------------------------------

  Final fractional coordinates of atoms :

--------------------------------------------------------------------------------
   No.  Atomic        x           y          z          Radius
        Label       (Frac)      (Frac)     (Frac)       (Angs) 
--------------------------------------------------------------------------------
     1  Ge    c     0.160190    0.293910    0.273440    0.000000
     2  Ge    c     0.831552    0.281009    0.704700    0.000000
     3  Ge    c     0.650527    0.327502    0.019451    0.000000
     4  Si    c     0.047997    0.000632    0.366913    0.000000
     5  Si    c     0.451581    0.996445    0.360189    0.000000
     6  Si    c     0.947753    0.987599    0.620987    0.000000
     7  Si    c     0.546229    0.006882    0.625512    0.000000
     8  Si    c     0.556141    0.013991    0.116177    0.000000
     9  Si    c     0.942195    0.993075    0.115977    0.000000
    10  Si    c     0.441403    0.989826    0.876065    0.000000
    11  Si    c     0.053295    0.997954    0.876123    0.000000
    12  Si    c     0.339256    0.704460    0.265242    0.000000
    13  Si    c     0.662041    0.716846    0.707955    0.000000
    14  Si    c     0.842124    0.690199    0.706056    0.000000
    15  Si    c     0.650052    0.312761    0.706554    0.000000
    16  Si    c     0.159390    0.705432    0.266726    0.000000
    17  Si    c     0.342544    0.299884    0.270279    0.000000
    18  Si    c     0.845674    0.685639    0.008811    0.000000
    19  Si    c     0.339398    0.299483    0.963769    0.000000
    20  Si    c     0.155427    0.690627    0.962348    0.000000
    21  Si    c     0.335088    0.697302    0.961034    0.000000
    22  Si    c     0.160427    0.289725    0.962352    0.000000
    23  Si    c     0.666067    0.728973    0.012530    0.000000
    24  Si    c     0.832096    0.286099    0.016346    0.000000
    25  O3    c     0.096329    0.177757    0.364795    0.000000
    26  O2    c     0.393070    0.833851    0.348704    0.000000
    27  O3    c     0.888847    0.149748    0.608815    0.000000
    28  O2    c     0.611332    0.852473    0.622407    0.000000
    29  O2    c     0.896578    0.811999    0.620576    0.000000
    30  O2    c     0.587480    0.195555    0.627343    0.000000
    31  O2    c     0.108950    0.841935    0.348648    0.000000
    32  O2    c     0.404883    0.179289    0.345823    0.000000
    33  O2    c     0.008412    0.978241    0.505476    0.000000
    34  O2    c     0.491291    0.991228    0.500581    0.000000
    35  O2    c     0.979948    0.998639    0.258679    0.000000
    36  O2    c     0.519370    0.978406    0.255286    0.000000
    37  O2    c     0.995168    0.009147    0.755530    0.000000
    38  O2    c     0.492476    0.982780    0.749294    0.000000
    39  O3    c     0.584918    0.211468    0.108265    0.000000
    40  O2    c     0.901004    0.805519    0.097987    0.000000
    41  O2    c     0.394185    0.173199    0.879604    0.000000
    42  O2    c     0.100706    0.813985    0.873256    0.000000
    43  O2    c     0.382339    0.827524    0.870841    0.000000
    44  O2    c     0.111880    0.160990    0.868344    0.000000
    45  O2    c     0.630879    0.886715    0.097677    0.000000
    46  O2    c     0.881247    0.153382    0.106698    0.000000
    47  O2    c     0.494245    0.968535    0.003878    0.000000
    48  O2    c     0.007683    0.018476    0.009785    0.000000
    49  O3    c     0.135479    0.510629    0.298547    0.000000
    50  O2    c     0.363258    0.503708    0.294800    0.000000
    51  O3    c     0.864345    0.490981    0.682247    0.000000
    52  O2    c     0.631281    0.519694    0.686542    0.000000
    53  O3    c     0.256561    0.261975    0.318474    0.000000
    54  O2    c     0.249830    0.735352    0.304268    0.000000
    55  O3    c     0.735480    0.270209    0.655154    0.000000
    56  O2    c     0.751918    0.726277    0.665988    0.000000
    57  O3    c     0.150613    0.235671    0.111399    0.000000
    58  O2    c     0.348230    0.747140    0.112543    0.000000
    59  O3    c     0.835085    0.222638    0.867000    0.000000
    60  O2    c     0.655653    0.771836    0.859314    0.000000
    61  O2    c     0.855105    0.740338    0.858492    0.000000
    62  O3    c     0.643755    0.265976    0.858037    0.000000
    63  O2    c     0.145553    0.743611    0.113299    0.000000
    64  O2    c     0.348416    0.255463    0.116473    0.000000
    65  O3    c     0.626420    0.545768    0.041777    0.000000
    66  O2    c     0.868641    0.481710    0.026650    0.000000
    67  O2    c     0.364532    0.498592    0.935982    0.000000
    68  O2    c     0.130610    0.489425    0.941018    0.000000
    69  O3    c     0.745342    0.290854    0.068885    0.000000
    70  O2    c     0.756883    0.714263    0.050822    0.000000
    71  O2    c     0.250210    0.272742    0.921226    0.000000
    72  O2    c     0.244554    0.715690    0.922027    0.000000
    73  O3    s     0.096867    0.169648    0.357277    0.000000
    74  O2    s     0.393336    0.836927    0.340477    0.000000
    75  O3    s     0.889966    0.144436    0.618108    0.000000
    76  O2    s     0.610064    0.853841    0.632187    0.000000
    77  O2    s     0.896032    0.817256    0.630103    0.000000
    78  O2    s     0.589748    0.187896    0.635541    0.000000
    79  O2    s     0.108033    0.843680    0.341201    0.000000
    80  O2    s     0.402966    0.172893    0.338913    0.000000
    81  O2    s     0.005884    0.981954    0.503038    0.000000
    82  O2    s     0.493088    0.993712    0.498694    0.000000
    83  O2    s     0.983206    0.998220    0.254359    0.000000
    84  O2    s     0.516004    0.984487    0.251083    0.000000
    85  O2    s     0.996770    0.005418    0.754873    0.000000
    86  O2    s     0.492532    0.986401    0.750351    0.000000
    87  O3    s     0.587460    0.201212    0.101695    0.000000
    88  O2    s     0.899262    0.812223    0.089951    0.000000
    89  O2    s     0.393123    0.167654    0.888715    0.000000
    90  O2    s     0.101694    0.819851    0.883340    0.000000
    91  O2    s     0.383392    0.830393    0.881554    0.000000
    92  O2    s     0.110957    0.157735    0.879489    0.000000
    93  O2    s     0.626871    0.882779    0.090129    0.000000
    94  O2    s     0.882509    0.150411    0.097719    0.000000
    95  O2    s     0.495201    0.976030    0.001946    0.000000
    96  O2    s     0.005366    0.013257    0.006772    0.000000
    97  O3    s     0.140024    0.513169    0.293163    0.000000
    98  O2    s     0.358500    0.503728    0.289035    0.000000
    99  O3    s     0.859306    0.494750    0.686596    0.000000
   100  O2    s     0.636496    0.519247    0.690883    0.000000
   101  O3    s     0.257458    0.268285    0.310074    0.000000
   102  O2    s     0.249928    0.728843    0.296067    0.000000
   103  O3    s     0.734741    0.275301    0.664279    0.000000
   104  O2    s     0.751719    0.721494    0.674638    0.000000
   105  O3    s     0.152372    0.245781    0.109702    0.000000
   106  O2    s     0.345854    0.737299    0.112618    0.000000
   107  O3    s     0.834523    0.233498    0.868484    0.000000
   108  O2    s     0.657451    0.761490    0.859312    0.000000
   109  O2    s     0.852756    0.729447    0.858747    0.000000
   110  O3    s     0.644921    0.275630    0.856340    0.000000
   111  O2    s     0.148076    0.733981    0.113143    0.000000
   112  O2    s     0.346840    0.264843    0.116232    0.000000
   113  O3    s     0.632303    0.546652    0.037093    0.000000
   114  O2    s     0.862532    0.483633    0.023698    0.000000
   115  O2    s     0.358734    0.498501    0.941624    0.000000
   116  O2    s     0.136395    0.490050    0.945541    0.000000
   117  O3    s     0.746332    0.293379    0.059525    0.000000
   118  O2    s     0.756773    0.712626    0.042035    0.000000
   119  O2    s     0.250342    0.277602    0.930338    0.000000
   120  O2    s     0.244699    0.710874    0.930692    0.000000
--------------------------------------------------------------------------------

  Final Cartesian lattice vectors (Angstroms) :

       17.200479    0.097793   -0.117162
        0.042204    7.634122   -0.025590
       -0.072616   -0.033913   10.249403


  Final cell parameters and derivatives :

--------------------------------------------------------------------------------
       a           17.201156 Angstrom     dE/de1(xx)     0.010737 eV/strain
       b            7.634282 Angstrom     dE/de2(yy)     0.010565 eV/strain
       c           10.249717 Angstrom     dE/de3(zz)     0.008140 eV/strain
       alpha       90.383862 Degrees      dE/de4(yz)     0.000813 eV/strain
       beta        90.797255 Degrees      dE/de5(xz)    -0.001194 eV/strain
       gamma       89.356214 Degrees      dE/de6(xy)    -0.000248 eV/strain
--------------------------------------------------------------------------------

  Primitive cell volume =          1345.733047 Angs**3

  Density of cell =      1.944358 g/cm**3

  Non-primitive cell volume =          1345.733047 Angs**3


  Final internal derivatives :

--------------------------------------------------------------------------------
   No.  Atomic          a             b             c           Radius
        Label          (eV)          (eV)          (eV)        (eV/Angs)
--------------------------------------------------------------------------------
      1 Ge    c       0.000000      0.000000      0.000000      0.000000
      2 Ge    c       0.000656     -0.000049     -0.001505      0.000000
      3 Ge    c      -0.002080      0.000498      0.001059      0.000000
      4 Si    c      -0.001937     -0.000057      0.001071      0.000000
      5 Si    c       0.003239      0.000438      0.003397      0.000000
      6 Si    c       0.000141     -0.000252      0.000340      0.000000
      7 Si    c       0.003259      0.000795      0.000095      0.000000
      8 Si    c      -0.003638     -0.000718      0.001930      0.000000
      9 Si    c       0.003349     -0.000057      0.002027      0.000000
     10 Si    c      -0.002328     -0.000450      0.003477      0.000000
     11 Si    c       0.000212      0.000085     -0.000341      0.000000
     12 Si    c       0.001627      0.000324     -0.001403      0.000000
     13 Si    c      -0.001364      0.000956     -0.002421      0.000000
     14 Si    c       0.000454      0.000634     -0.000895      0.000000
     15 Si    c      -0.003324     -0.000602     -0.002157      0.000000
     16 Si    c      -0.001290      0.000818     -0.000414      0.000000
     17 Si    c       0.003317     -0.000678     -0.000224      0.000000
     18 Si    c       0.002362     -0.000038      0.000133      0.000000
     19 Si    c       0.002271     -0.001638      0.000036      0.000000
     20 Si    c      -0.002364      0.001457     -0.000369      0.000000
     21 Si    c       0.003852      0.002664      0.001408      0.000000
     22 Si    c      -0.002490     -0.001592      0.000232      0.000000
     23 Si    c      -0.000962     -0.000679      0.001071      0.000000
     24 Si    c       0.002115      0.000356      0.000570      0.000000
     25 O3    c       0.002843      0.002944      0.000407      0.000000
     26 O2    c      -0.003144     -0.001458     -0.000281      0.000000
     27 O3    c      -0.001009      0.000718     -0.000993      0.000000
     28 O2    c      -0.000267     -0.000035     -0.000793      0.000000
     29 O2    c       0.000595      0.000135     -0.000042      0.000000
     30 O2    c      -0.001250      0.000057     -0.001144      0.000000
     31 O2    c       0.001910     -0.001259     -0.000065      0.000000
     32 O2    c      -0.001632      0.001146     -0.000718      0.000000
     33 O2    c       0.003937     -0.000044     -0.001418      0.000000
     34 O2    c      -0.008423     -0.000104     -0.006989      0.000000
     35 O2    c      -0.002698     -0.000160     -0.002123      0.000000
     36 O2    c       0.006861      0.000335     -0.002845      0.000000
     37 O2    c       0.000530      0.000325      0.000316      0.000000
     38 O2    c       0.002290     -0.000842     -0.003307      0.000000
     39 O3    c       0.000378      0.000640      0.001692      0.000000
     40 O2    c       0.000275     -0.000507      0.000385      0.000000
     41 O2    c      -0.002176      0.002925      0.001595      0.000000
     42 O2    c       0.002562     -0.002255      0.000685      0.000000
     43 O2    c      -0.000785     -0.000822      0.001844      0.000000
     44 O2    c       0.001382      0.000894      0.000009      0.000000
     45 O2    c       0.001973     -0.000010      0.002254      0.000000
     46 O2    c      -0.001061      0.000545      0.000467      0.000000
     47 O2    c      -0.004421     -0.001320     -0.000574      0.000000
     48 O2    c       0.001590      0.000696      0.001505      0.000000
     49 O3    c      -0.001928     -0.000105      0.000673      0.000000
     50 O2    c       0.001444     -0.000131      0.000453      0.000000
     51 O3    c      -0.000478     -0.001045     -0.000564      0.000000
     52 O2    c      -0.002248      0.000181     -0.000637      0.000000
     53 O3    c      -0.004738     -0.001146      0.001892      0.000000
     54 O2    c      -0.000864      0.000443      0.000703      0.000000
     55 O3    c       0.002490     -0.000671     -0.002362      0.000000
     56 O2    c       0.000489     -0.000005      0.000114      0.000000
     57 O3    c      -0.001222     -0.000704     -0.001514      0.000000
     58 O2    c       0.000844      0.000289     -0.000893      0.000000
     59 O3    c      -0.000432     -0.000266     -0.000744      0.000000
     60 O2    c      -0.000966     -0.000330      0.000307      0.000000
     61 O2    c       0.000636     -0.000026      0.000172      0.000000
     62 O3    c      -0.001882     -0.000321      0.000254      0.000000
     63 O2    c      -0.000654      0.000337      0.000786      0.000000
     64 O2    c      -0.000285     -0.000269      0.000412      0.000000
     65 O3    c      -0.003089      0.000184      0.001191      0.000000
     66 O2    c       0.001429     -0.000290      0.000378      0.000000
     67 O2    c       0.002703      0.000480      0.000852      0.000000
     68 O2    c      -0.003194     -0.000153      0.000186      0.000000
     69 O3    c      -0.002113     -0.000275      0.001223      0.000000
     70 O2    c      -0.000538      0.000145      0.000743      0.000000
     71 O2    c       0.001256      0.000044     -0.000247      0.000000
     72 O2    c      -0.000928      0.000011     -0.000139      0.000000
     73 O3    s      -0.002631     -0.001208     -0.000407      0.000000
     74 O2    s       0.002682      0.000745     -0.000360      0.000000
     75 O3    s       0.001633     -0.000926      0.000209      0.000000
     76 O2    s      -0.000351      0.000642      0.000495      0.000000
     77 O2    s       0.000268      0.000393     -0.000543      0.000000
     78 O2    s       0.000275     -0.000774      0.000544      0.000000
     79 O2    s      -0.001169     -0.000058      0.000702      0.000000
     80 O2    s       0.001501      0.000496      0.000050      0.000000
     81 O2    s      -0.004116     -0.000689      0.000574      0.000000
     82 O2    s       0.006826      0.000574      0.003532      0.000000
     83 O2    s      -0.000099     -0.000168      0.001375      0.000000
     84 O2    s      -0.003871      0.000183      0.001670      0.000000
     85 O2    s      -0.001705      0.000611      0.000026      0.000000
     86 O2    s      -0.002268     -0.002043     -0.000177      0.000000
     87 O3    s      -0.000525     -0.000438     -0.001435      0.000000
     88 O2    s      -0.000098      0.000519     -0.000152      0.000000
     89 O2    s       0.002782     -0.000443     -0.000902      0.000000
     90 O2    s      -0.002646      0.000324     -0.001183      0.000000
     91 O2    s      -0.000052      0.000199     -0.003676      0.000000
     92 O2    s      -0.000975     -0.000279     -0.001352      0.000000
     93 O2    s      -0.000918      0.001039     -0.001672      0.000000
     94 O2    s       0.000081     -0.000587      0.000004      0.000000
     95 O2    s       0.007792      0.000365     -0.000684      0.000000
     96 O2    s      -0.003821      0.000132     -0.000866      0.000000
     97 O3    s       0.000740     -0.000114     -0.000400      0.000000
     98 O2    s       0.000276     -0.000314      0.000152      0.000000
     99 O3    s       0.002749      0.000577     -0.000049      0.000000
    100 O2    s       0.002089     -0.000129      0.000315      0.000000
    101 O3    s       0.002442      0.000442     -0.000911      0.000000
    102 O2    s      -0.000593     -0.000337      0.000229      0.000000
    103 O3    s      -0.002420     -0.000041      0.003251      0.000000
    104 O2    s      -0.001454      0.000645      0.000449      0.000000
    105 O3    s       0.000622      0.000321      0.001782      0.000000
    106 O2    s      -0.000912     -0.000383      0.001223      0.000000
    107 O3    s       0.000528     -0.000265      0.000894      0.000000
    108 O2    s       0.000166      0.000729      0.000231      0.000000
    109 O2    s      -0.000639      0.000212      0.000377      0.000000
    110 O3    s       0.002063     -0.000128     -0.000057      0.000000
    111 O2    s      -0.000123      0.000073      0.000248      0.000000
    112 O2    s       0.000397     -0.000097      0.000546      0.000000
    113 O3    s       0.001826     -0.000305     -0.000388      0.000000
    114 O2    s      -0.000697      0.000046     -0.000314      0.000000
    115 O2    s      -0.001520     -0.000276     -0.001216      0.000000
    116 O2    s       0.000779     -0.000138     -0.000183      0.000000
    117 O3    s       0.001487     -0.000120     -0.000557      0.000000
    118 O2    s       0.000641      0.000032     -0.000929      0.000000
    119 O2    s       0.000341      0.000068      0.000153      0.000000
    120 O2    s       0.000203     -0.000018     -0.000729      0.000000
--------------------------------------------------------------------------------
  Maximum abs         0.008423      0.002944      0.006989      0.000000
--------------------------------------------------------------------------------


  Born effective charge tensors : 

-------------------------------------------------------------------------------
  Atom             x           y             z
-------------------------------------------------------------------------------
    1 Ge    x       3.9853      0.3067     -0.1494
            y       0.3231      4.1726     -0.2347
            z      -0.2110     -0.0549      3.4570
-------------------------------------------------------------------------------
    2 Ge    x       3.9614     -0.3837     -0.1223
            y      -0.2180      4.1820      0.2549
            z      -0.1828      0.0492      3.4346
-------------------------------------------------------------------------------
    3 Ge    x       4.0299      0.3309     -0.1319
            y       0.3195      4.1954     -0.2576
            z      -0.2503     -0.0484      3.3354
-------------------------------------------------------------------------------
    4 Si    x       3.6275      0.2552     -0.2716
            y       0.1411      3.4792      0.0176
            z      -0.3757     -0.1205      3.8645
-------------------------------------------------------------------------------
    5 Si    x       3.4051     -0.0383      0.2876
            y       0.0891      3.2488     -0.0129
            z       0.3566      0.0031      3.8088
-------------------------------------------------------------------------------
    6 Si    x       3.6480     -0.1044     -0.0186
            y      -0.2085      3.4243     -0.0588
            z      -0.6226      0.0463      3.7878
-------------------------------------------------------------------------------
    7 Si    x       3.4517      0.1141      0.1024
            y      -0.1103      3.2133     -0.0024
            z       0.5185     -0.0061      3.7795
-------------------------------------------------------------------------------
    8 Si    x       3.5627      0.3856     -0.2786
            y      -0.0713      3.5250      0.0169
            z      -0.4453     -0.1164      3.1863
-------------------------------------------------------------------------------
    9 Si    x       3.4935      0.1189      0.2418
            y      -0.0914      3.2455      0.0209
            z       0.3760      0.0345      3.1412
-------------------------------------------------------------------------------
   10 Si    x       3.4905     -0.0715     -0.1653
            y       0.0718      3.2684      0.0089
            z      -0.5595     -0.0051      3.0878
-------------------------------------------------------------------------------
   11 Si    x       3.5005     -0.0787      0.0676
            y       0.0716      3.2489     -0.0168
            z       0.5639     -0.0413      3.0405
-------------------------------------------------------------------------------
   12 Si    x       3.1917      0.2668      0.1144
            y       0.2074      3.4461      0.1681
            z       0.1309      0.0774      2.8355
-------------------------------------------------------------------------------
   13 Si    x       3.2287     -0.3273      0.1083
            y      -0.1567      3.4196     -0.1688
            z       0.1226     -0.0411      2.7996
-------------------------------------------------------------------------------
   14 Si    x       3.3165      0.1877     -0.1017
            y       0.1215      3.7535     -0.1285
            z      -0.1349      0.0036      2.8882
-------------------------------------------------------------------------------
   15 Si    x       3.5658      0.2327     -0.1114
            y       0.2700      3.6345      0.1509
            z       0.0200      0.0242      3.1720
-------------------------------------------------------------------------------
   16 Si    x       3.2857     -0.2021     -0.1196
            y      -0.0885      3.7573      0.0692
            z      -0.1351      0.0155      2.9031
-------------------------------------------------------------------------------
   17 Si    x       3.5270     -0.1854     -0.0516
            y      -0.2210      3.5309     -0.1914
            z       0.0598     -0.1050      2.9038
-------------------------------------------------------------------------------
   18 Si    x       3.2756      0.2823      0.1368
            y       0.2144      3.3801      0.2112
            z       0.1676      0.0274      2.7235
-------------------------------------------------------------------------------
   19 Si    x       3.2333     -0.2906     -0.1095
            y      -0.2150      3.4099      0.1670
            z      -0.1564      0.0623      2.7186
-------------------------------------------------------------------------------
   20 Si    x       3.2800     -0.2906      0.1352
            y      -0.2210      3.3985     -0.1840
            z       0.1507     -0.0381      2.6947
-------------------------------------------------------------------------------
   21 Si    x       3.2406      0.3120     -0.1507
            y       0.1603      3.4302     -0.1873
            z      -0.1199     -0.0623      2.7286
-------------------------------------------------------------------------------
   22 Si    x       3.3162      0.3489      0.1082
            y       0.1900      3.5351      0.1021
            z       0.0986     -0.0350      2.9853
-------------------------------------------------------------------------------
   23 Si    x       3.3363     -0.3015     -0.1720
            y       0.0856      3.7114      0.0860
            z      -0.1518      0.0213      2.8168
-------------------------------------------------------------------------------
   24 Si    x       3.6206     -0.3826     -0.0265
            y      -0.1396      3.6222     -0.1538
            z       0.0441      0.0159      3.0851
-------------------------------------------------------------------------------
   25 O3    x      -2.0583     -0.9576      0.4227
            y      -1.0027     -2.4680      0.4122
            z       0.4553      0.3810     -1.5485
-------------------------------------------------------------------------------
   26 O2    x      -1.7324     -0.7409     -0.3547
            y      -0.7511     -1.9712     -0.3554
            z      -0.3720     -0.3506     -1.3537
-------------------------------------------------------------------------------
   27 O3    x      -2.1123      0.9702      0.3121
            y       1.0148     -2.3812     -0.3486
            z       0.3969     -0.3044     -1.5356
-------------------------------------------------------------------------------
   28 O2    x      -1.7632      0.7377     -0.2864
            y       0.7372     -1.9268      0.3127
            z      -0.3472      0.3113     -1.3482
-------------------------------------------------------------------------------
   29 O2    x      -1.7236     -0.6891      0.2993
            y      -0.6889     -1.8972      0.3229
            z       0.3806      0.2917     -1.3764
-------------------------------------------------------------------------------
   30 O2    x      -1.6574     -0.7202     -0.2615
            y      -0.6601     -2.0396     -0.2824
            z      -0.3321     -0.2850     -1.3255
-------------------------------------------------------------------------------
   31 O2    x      -1.7624      0.6833      0.3711
            y       0.7073     -1.8822     -0.3722
            z       0.3829     -0.3358     -1.3868
-------------------------------------------------------------------------------
   32 O2    x      -1.6660      0.7086     -0.3265
            y       0.6892     -2.0103      0.3448
            z      -0.3567      0.3472     -1.3519
-------------------------------------------------------------------------------
   33 O2    x      -1.6510     -0.0499      0.7851
            y      -0.0113     -1.0848      0.0409
            z       1.0103      0.0768     -2.6893
-------------------------------------------------------------------------------
   34 O2    x      -1.6067     -0.0339     -0.8206
            y      -0.0098     -1.0848     -0.0161
            z      -1.0144     -0.0447     -2.7758
-------------------------------------------------------------------------------
   35 O2    x      -1.7142     -0.0231     -0.6949
            y       0.0200     -1.1036     -0.0113
            z      -0.6858     -0.0094     -2.2540
-------------------------------------------------------------------------------
   36 O2    x      -1.7043     -0.0462      0.6740
            y       0.0010     -1.1132      0.0382
            z       0.6739      0.0594     -2.1860
-------------------------------------------------------------------------------
   37 O2    x      -1.7263     -0.0218     -0.7261
            y      -0.0179     -1.1325     -0.0234
            z      -0.7092     -0.0440     -2.2263
-------------------------------------------------------------------------------
   38 O2    x      -1.7427     -0.0343      0.7626
            y      -0.0150     -1.1178      0.0377
            z       0.7648      0.0564     -2.2389
-------------------------------------------------------------------------------
   39 O3    x      -1.9250     -0.8959      0.4182
            y      -0.7747     -2.5943      0.4360
            z       0.4403      0.4044     -1.3993
-------------------------------------------------------------------------------
   40 O2    x      -1.6795     -0.7239     -0.3784
            y      -0.6147     -1.9997     -0.3972
            z      -0.3609     -0.3613     -1.2650
-------------------------------------------------------------------------------
   41 O2    x      -1.6843      0.7203      0.3105
            y       0.6559     -2.0054     -0.3378
            z       0.3584     -0.3205     -1.2253
-------------------------------------------------------------------------------
   42 O2    x      -1.6942      0.7237     -0.3013
            y       0.6479     -1.9862      0.3256
            z      -0.3485      0.3067     -1.2312
-------------------------------------------------------------------------------
   43 O2    x      -1.7283     -0.7289      0.3070
            y      -0.6903     -1.9508      0.3282
            z       0.3421      0.3159     -1.2486
-------------------------------------------------------------------------------
   44 O2    x      -1.7414     -0.7318     -0.2622
            y      -0.6840     -1.9519     -0.2885
            z      -0.3187     -0.2769     -1.2246
-------------------------------------------------------------------------------
   45 O2    x      -1.8045      0.6408      0.3710
            y       0.6265     -1.8386     -0.3844
            z       0.3537     -0.3357     -1.2850
-------------------------------------------------------------------------------
   46 O2    x      -1.7329      0.7209     -0.3361
            y       0.6620     -1.9604      0.3566
            z      -0.3228      0.3266     -1.2564
-------------------------------------------------------------------------------
   47 O2    x      -1.8048     -0.0414     -0.6037
            y      -0.0067     -1.1710     -0.0381
            z      -0.3530     -0.0242     -1.7362
-------------------------------------------------------------------------------
   48 O2    x      -1.8280     -0.0307      0.6401
            y      -0.0182     -1.1621      0.0102
            z       0.3637      0.0090     -1.7351
-------------------------------------------------------------------------------
   49 O3    x      -1.3228     -0.0863      0.0872
            y      -0.0768     -3.2141      0.1059
            z       0.1056      0.1149     -1.2062
-------------------------------------------------------------------------------
   50 O2    x      -1.1553      0.0433     -0.0549
            y       0.0524     -2.5847      0.0222
            z      -0.0739      0.0194     -1.0821
-------------------------------------------------------------------------------
   51 O3    x      -1.3343      0.0365      0.0713
            y      -0.0292     -3.2091     -0.0476
            z       0.0953     -0.0807     -1.1853
-------------------------------------------------------------------------------
   52 O2    x      -1.1918     -0.0854     -0.0432
            y      -0.1383     -2.5759     -0.0228
            z      -0.0702     -0.0278     -1.0676
-------------------------------------------------------------------------------
   53 O3    x      -2.9942     -0.0761      0.1146
            y      -0.0720     -1.3889      0.1049
            z       0.1090      0.0726     -1.2494
-------------------------------------------------------------------------------
   54 O2    x      -2.4266      0.0233      0.0071
            y       0.0284     -1.2326     -0.0629
            z       0.0216     -0.0392     -1.0903
-------------------------------------------------------------------------------
   55 O3    x      -2.9892      0.1502      0.0862
            y       0.1036     -1.4052     -0.1046
            z       0.0688     -0.0628     -1.2347
-------------------------------------------------------------------------------
   56 O2    x      -2.4564      0.0542      0.0101
            y       0.0195     -1.2226      0.0616
            z       0.0207      0.0247     -1.0980
-------------------------------------------------------------------------------
   57 O3    x      -1.3274     -0.1573      0.0083
            y      -0.1233     -1.4631      0.0977
            z       0.0124      0.0469     -2.5917
-------------------------------------------------------------------------------
   58 O2    x      -1.1772     -0.1266      0.0076
            y      -0.0955     -1.2796     -0.0213
            z      -0.0010     -0.0057     -2.0754
-------------------------------------------------------------------------------
   59 O3    x      -1.3006      0.1342     -0.0605
            y       0.0744     -1.4989     -0.1111
            z      -0.0187     -0.0752     -2.5921
-------------------------------------------------------------------------------
   60 O2    x      -1.2016      0.1360      0.0065
            y       0.0728     -1.2675     -0.0337
            z      -0.0154     -0.0530     -2.0817
-------------------------------------------------------------------------------
   61 O2    x      -1.2168     -0.1272     -0.0284
            y      -0.1030     -1.2701      0.0309
            z      -0.0428      0.0422     -2.0715
-------------------------------------------------------------------------------
   62 O3    x      -1.3085     -0.1421      0.0113
            y      -0.1262     -1.4668      0.0533
            z       0.0290      0.0136     -2.6432
-------------------------------------------------------------------------------
   63 O2    x      -1.2118      0.1277     -0.0244
            y       0.1012     -1.2667     -0.0484
            z      -0.0501     -0.0502     -2.0687
-------------------------------------------------------------------------------
   64 O2    x      -1.1829      0.1170     -0.0293
            y       0.1008     -1.2905      0.0025
            z      -0.0120     -0.0041     -2.0905
-------------------------------------------------------------------------------
   65 O3    x      -1.4601     -0.2075      0.1187
            y      -0.2569     -3.0876      0.0938
            z       0.1544      0.1143     -1.1535
-------------------------------------------------------------------------------
   66 O2    x      -1.2541     -0.0242     -0.0521
            y      -0.0839     -2.5422      0.0590
            z      -0.0801      0.0579     -1.0152
-------------------------------------------------------------------------------
   67 O2    x      -1.2217      0.0217      0.0768
            y       0.0345     -2.5075      0.0188
            z       0.0981      0.0006     -1.0198
-------------------------------------------------------------------------------
   68 O2    x      -1.2428      0.0101     -0.0666
            y       0.0373     -2.5285     -0.0200
            z      -0.0893     -0.0231     -1.0007
-------------------------------------------------------------------------------
   69 O3    x      -3.0502      0.1489      0.1112
            y       0.0852     -1.3892      0.0848
            z       0.0792      0.0344     -1.2073
-------------------------------------------------------------------------------
   70 O2    x      -2.4449      0.1657      0.0146
            y       0.0906     -1.2363     -0.0518
            z       0.0151     -0.0179     -1.0628
-------------------------------------------------------------------------------
   71 O2    x      -2.4191     -0.0308     -0.0262
            y      -0.0270     -1.2441     -0.0625
            z      -0.0264     -0.0320     -1.0425
-------------------------------------------------------------------------------
   72 O2    x      -2.4402     -0.0264      0.0117
            y      -0.0095     -1.2274      0.0637
            z       0.0046      0.0297     -1.0444
-------------------------------------------------------------------------------




  Elastic Constant Matrix: (Units=GPa)

-------------------------------------------------------------------------------
  Indices      1         2         3         4         5         6    
-------------------------------------------------------------------------------
       1     58.1782   35.8838   21.0205    0.0212   -3.5820    8.4361
       2     35.8838   85.8560   22.9534    0.1687   -4.1173    8.0083
       3     21.0205   22.9534   22.2535    0.0735   -0.2387    8.8808
       4      0.0212    0.1687    0.0735   11.8723    1.7210   -0.2450
       5     -3.5820   -4.1173   -0.2387    1.7210   25.6785   -3.3228
       6      8.4361    8.0083    8.8808   -0.2450   -3.3228   19.9089
-------------------------------------------------------------------------------


  Elastic Compliance Matrix: (Units=1/GPa)

-------------------------------------------------------------------------------
  Indices      1         2         3         4         5         6    
-------------------------------------------------------------------------------
       1    0.028705 -0.006381 -0.020509 -0.000241  0.002809  0.000018
       2   -0.006381  0.017700 -0.012871 -0.000426  0.002072  0.001666
       3   -0.020509 -0.012871  0.088167  0.000221 -0.007578 -0.026723
       4   -0.000241 -0.000426  0.000221  0.085076 -0.005768  0.000259
       5    0.002809  0.002072 -0.007578 -0.005768  0.041036  0.008134
       6    0.000018  0.001666 -0.026723  0.000259  0.008134  0.062832
-------------------------------------------------------------------------------

  Mechanical properties :

-------------------------------------------------------------------------------
  Convention :                    Reuss         Voigt         Hill
-------------------------------------------------------------------------------
  Bulk  Modulus (GPa)     =      18.16491      36.22258      27.19375
  Shear Modulus (GPa)     =      11.86554      17.25395      14.55974
-------------------------------------------------------------------------------
  Velocity S-wave (km/s)  =       2.47033       2.97890       2.73646
  Velocity P-wave (km/s)  =       4.18080       5.51918       4.89594
-------------------------------------------------------------------------------
  Compressibility (1/GPa) =    0.05505119
-------------------------------------------------------------------------------
  Stress axis :                     x             y             z
-------------------------------------------------------------------------------
  Youngs Moduli (GPa)     =      34.83736      56.49704      11.34205
-------------------------------------------------------------------------------
  Poissons Ratio (x)      =                     0.36049       0.23262
  Poissons Ratio (y)      =       0.22229                     0.14598
  Poissons Ratio (z)      =       0.71448       0.72716
-------------------------------------------------------------------------------


  Piezoelectric Strain Matrix: (Units=C/m**2)

-------------------------------------------------------------------------------
  Indices      1         2         3         4         5         6    
-------------------------------------------------------------------------------
       x    -0.14606   0.09296  -0.35312   0.37736  -0.26780  -0.50626
       y    -0.07872   1.23836   0.45652  -0.26086   0.44167   0.10768
       z     0.45094  -0.18373   2.39573  -0.41000   0.00686   0.20616
-------------------------------------------------------------------------------


  Piezoelectric Stress Matrix: (Units=10**-11 C/N)

-------------------------------------------------------------------------------
  Indices      1         2         3         4         5         6    
-------------------------------------------------------------------------------
       x     0.16047   0.55630  -1.36935   3.34357  -1.48256  -2.43009
       y    -1.82189   1.77514   1.96445  -2.51213   1.93909   0.01527
       z    -3.48965  -3.64318  19.86906  -3.43692  -1.29455  -5.14170
-------------------------------------------------------------------------------


  Static dielectric constant tensor : 

-------------------------------------------------------------------------------
              x         y         z
-------------------------------------------------------------------------------
       x     3.97061   0.04529  -0.07404
       y     0.04529   4.17562  -0.02821
       z    -0.07404  -0.02821   3.15660
--------------------------------------------------------------------------------

  High frequency dielectric constant tensor : 

-------------------------------------------------------------------------------
              x         y         z
-------------------------------------------------------------------------------
       x     1.67605   0.00108  -0.00068
       y     0.00108   1.68223  -0.00065
       z    -0.00068  -0.00065   1.61765
-------------------------------------------------------------------------------

  Static refractive indices : 

-------------------------------------------------------------------------------
    1 =    1.77464      2 =    1.99160      3 =    2.04622
-------------------------------------------------------------------------------

  High frequency refractive indices : 

-------------------------------------------------------------------------------
    1 =    1.27186      2 =    1.29455      3 =    1.29708
-------------------------------------------------------------------------------


  Time to end of optimisation =      13.1749 seconds


  Peak dynamic memory used =       5.01 MB 


  Timing analysis for GULP :

--------------------------------------------------------------------------------
  Task / Subroutine                                          Time (Seconds)
--------------------------------------------------------------------------------
  Calculation of reciprocal space energy and derivatives          0.7432
  Calculation of real space energy and derivatives                7.9667
  Calculation of three-body energy and derivatives                0.7488
  Calculation and manipulation of Hessian matrix                  4.0844
  Calculation of matrix inversion                                 0.0315
  Global summation overhead                                       0.0002
--------------------------------------------------------------------------------
  Total CPU time                                                 13.1749
--------------------------------------------------------------------------------


  Dump file written as c00208.vasp.grs
  CIF file written as c00208.vasp.cif


  Job Finished at 12:03.48  7th October    2025                               

