********************************************************************************
*                       GENERAL UTILITY LATTICE PROGRAM                        *
*                                 Julian Gale                                  *
*                       Curtin Institute for Computation                       *
*                    School of Molecular and Life Sciences                     *
*                    Curtin University, Western Australia                      *
********************************************************************************
* Version = 6.1.2 * Last modified =   3rd November 2022                        *
********************************************************************************
*  optimise     - perform optimisation run                                     *
*  conp         - constant pressure calculation                                *
*  property     - calculate properties for final geometry                      *
********************************************************************************

  Job Started  at 12:10.45  7th October    2025                               

  Number of CPUs =     1


  Total number of configurations input =      1

********************************************************************************
*  Input for Configuration =   1 : c00244.vasp                                 *
********************************************************************************

  Formula = Ge3Si21O48                                                  

  Number of irreducible atoms/shells =     120


  Total number atoms/shells =     120

  Dimensionality = 3               :  Bulk   



  Cartesian lattice vectors (Angstroms) :

       17.182800    0.000000    0.000000
        0.000000    7.513760    0.000000
        0.000000    0.000000   10.447700

  Cell parameters (Angstroms/Degrees):

  a =      17.1828    alpha =  90.0000
  b =       7.5138    beta  =  90.0000
  c =      10.4477    gamma =  90.0000

  Initial cell volume =        1348.875752 Angs**3

  Temperature of configuration =   0.00     K 

  Pressure of configuration =         0.000 GPa 

  Fractional coordinates of asymmetric unit :

--------------------------------------------------------------------------------
   No.  Atomic       x           y          z         Charge      Occupancy
        Label      (Frac)      (Frac)     (Frac)        (e)         (Frac)  
--------------------------------------------------------------------------------
      1 Ge    c    0.160190    0.293910    0.273440     4.00000    1.000000    
      2 Ge    c    0.839340 *  0.705910 *  0.017440 *   4.00000    1.000000    
      3 Ge    c    0.160660 *  0.294090 *  0.982560 *   4.00000    1.000000    
      4 Si    c    0.052090 *  0.000000 *  0.372270 *   4.00000    1.000000    
      5 Si    c    0.447910 *  0.000000 *  0.372270 *   4.00000    1.000000    
      6 Si    c    0.947910 *  0.000000 *  0.627730 *   4.00000    1.000000    
      7 Si    c    0.552090 *  0.000000 *  0.627730 *   4.00000    1.000000    
      8 Si    c    0.556730 *  0.000000 *  0.122130 *   4.00000    1.000000    
      9 Si    c    0.943270 *  0.000000 *  0.122130 *   4.00000    1.000000    
     10 Si    c    0.443270 *  0.000000 *  0.877870 *   4.00000    1.000000    
     11 Si    c    0.056730 *  0.000000 *  0.877870 *   4.00000    1.000000    
     12 Si    c    0.339810 *  0.706090 *  0.273440 *   4.00000    1.000000    
     13 Si    c    0.839810 *  0.293910 *  0.726560 *   4.00000    1.000000    
     14 Si    c    0.660190 *  0.706090 *  0.726560 *   4.00000    1.000000    
     15 Si    c    0.839810 *  0.706090 *  0.726560 *   4.00000    1.000000    
     16 Si    c    0.660190 *  0.293910 *  0.726560 *   4.00000    1.000000    
     17 Si    c    0.160190 *  0.706090 *  0.273440 *   4.00000    1.000000    
     18 Si    c    0.339810 *  0.293910 *  0.273440 *   4.00000    1.000000    
     19 Si    c    0.660660 *  0.294090 *  0.017440 *   4.00000    1.000000    
     20 Si    c    0.339340 *  0.294090 *  0.982560 *   4.00000    1.000000    
     21 Si    c    0.160660 *  0.705910 *  0.982560 *   4.00000    1.000000    
     22 Si    c    0.339340 *  0.705910 *  0.982560 *   4.00000    1.000000    
     23 Si    c    0.660660 *  0.705910 *  0.017440 *   4.00000    1.000000    
     24 Si    c    0.839340 *  0.294090 *  0.017440 *   4.00000    1.000000    
     25 O3    c    0.106570 *  0.174340 *  0.366200 *   1.33043    1.000000    
     26 O2    c    0.393430 *  0.825660 *  0.366200 *   0.87073    1.000000    
     27 O2    c    0.893430 *  0.174340 *  0.633800 *   0.87073    1.000000    
     28 O2    c    0.606570 *  0.825660 *  0.633800 *   0.87073    1.000000    
     29 O2    c    0.893430 *  0.825660 *  0.633800 *   0.87073    1.000000    
     30 O2    c    0.606570 *  0.174340 *  0.633800 *   0.87073    1.000000    
     31 O2    c    0.106570 *  0.825660 *  0.366200 *   0.87073    1.000000    
     32 O2    c    0.393430 *  0.174340 *  0.366200 *   0.87073    1.000000    
     33 O2    c    0.000000 *  0.000000 *  0.500000 *   0.87073    1.000000    
     34 O2    c    0.500000 *  0.000000 *  0.500000 *   0.87073    1.000000    
     35 O2    c    0.994520 *  0.000000 *  0.250840 *   0.87073    1.000000    
     36 O2    c    0.505480 *  0.000000 *  0.250840 *   0.87073    1.000000    
     37 O2    c    0.005480 *  0.000000 *  0.749160 *   0.87073    1.000000    
     38 O2    c    0.494520 *  0.000000 *  0.749160 *   0.87073    1.000000    
     39 O2    c    0.610230 *  0.175520 *  0.115390 *   0.87073    1.000000    
     40 O3    c    0.889770 *  0.824480 *  0.115390 *   1.33043    1.000000    
     41 O2    c    0.389770 *  0.175520 *  0.884610 *   0.87073    1.000000    
     42 O2    c    0.110230 *  0.824480 *  0.884610 *   0.87073    1.000000    
     43 O2    c    0.389770 *  0.824480 *  0.884610 *   0.87073    1.000000    
     44 O3    c    0.110230 *  0.175520 *  0.884610 *   1.33043    1.000000    
     45 O2    c    0.610230 *  0.824480 *  0.115390 *   0.87073    1.000000    
     46 O2    c    0.889770 *  0.175520 *  0.115390 *   0.87073    1.000000    
     47 O2    c    0.500000 *  0.000000 *  0.000000 *   0.87073    1.000000    
     48 O2    c    0.000000 *  0.000000 *  0.000000 *   0.87073    1.000000    
     49 O3    c    0.151750 *  0.500000 *  0.313330 *   1.33043    1.000000    
     50 O2    c    0.348250 *  0.500000 *  0.313330 *   0.87073    1.000000    
     51 O2    c    0.848250 *  0.500000 *  0.686670 *   0.87073    1.000000    
     52 O2    c    0.651750 *  0.500000 *  0.686670 *   0.87073    1.000000    
     53 O3    c    0.250000 *  0.234950 *  0.285720 *   1.33043    1.000000    
     54 O2    c    0.250000 *  0.765050 *  0.285720 *   0.87073    1.000000    
     55 O2    c    0.750000 *  0.234950 *  0.714280 *   0.87073    1.000000    
     56 O2    c    0.750000 *  0.765050 *  0.714280 *   0.87073    1.000000    
     57 O1    c    0.131410 *  0.268650 *  0.127790 *   1.73396    1.000000    
     58 O2    c    0.368590 *  0.731350 *  0.127790 *   0.87073    1.000000    
     59 O2    c    0.868590 *  0.268650 *  0.872210 *   0.87073    1.000000    
     60 O2    c    0.631410 *  0.731350 *  0.872210 *   0.87073    1.000000    
     61 O3    c    0.868590 *  0.731350 *  0.872210 *   1.33043    1.000000    
     62 O2    c    0.631410 *  0.268650 *  0.872210 *   0.87073    1.000000    
     63 O2    c    0.131410 *  0.731350 *  0.127790 *   0.87073    1.000000    
     64 O2    c    0.368590 *  0.268650 *  0.127790 *   0.87073    1.000000    
     65 O2    c    0.653920 *  0.500000 *  0.058200 *   0.87073    1.000000    
     66 O3    c    0.846080 *  0.500000 *  0.058200 *   1.33043    1.000000    
     67 O2    c    0.346080 *  0.500000 *  0.941800 *   0.87073    1.000000    
     68 O3    c    0.153920 *  0.500000 *  0.941800 *   1.33043    1.000000    
     69 O2    c    0.750000 *  0.231060 *  0.027050 *   0.87073    1.000000    
     70 O3    c    0.750000 *  0.768940 *  0.027050 *   1.33043    1.000000    
     71 O3    c    0.250000 *  0.231060 *  0.972950 *   1.33043    1.000000    
     72 O2    c    0.250000 *  0.768940 *  0.972950 *   0.87073    1.000000    
     73 O3    s    0.106570 *  0.174340 *  0.366200 *  -3.33043    1.000000    
     74 O2    s    0.393430 *  0.825660 *  0.366200 *  -2.87073    1.000000    
     75 O2    s    0.893430 *  0.174340 *  0.633800 *  -2.87073    1.000000    
     76 O2    s    0.606570 *  0.825660 *  0.633800 *  -2.87073    1.000000    
     77 O2    s    0.893430 *  0.825660 *  0.633800 *  -2.87073    1.000000    
     78 O2    s    0.606570 *  0.174340 *  0.633800 *  -2.87073    1.000000    
     79 O2    s    0.106570 *  0.825660 *  0.366200 *  -2.87073    1.000000    
     80 O2    s    0.393430 *  0.174340 *  0.366200 *  -2.87073    1.000000    
     81 O2    s    0.000000 *  0.000000 *  0.500000 *  -2.87073    1.000000    
     82 O2    s    0.500000 *  0.000000 *  0.500000 *  -2.87073    1.000000    
     83 O2    s    0.994520 *  0.000000 *  0.250840 *  -2.87073    1.000000    
     84 O2    s    0.505480 *  0.000000 *  0.250840 *  -2.87073    1.000000    
     85 O2    s    0.005480 *  0.000000 *  0.749160 *  -2.87073    1.000000    
     86 O2    s    0.494520 *  0.000000 *  0.749160 *  -2.87073    1.000000    
     87 O2    s    0.610230 *  0.175520 *  0.115390 *  -2.87073    1.000000    
     88 O3    s    0.889770 *  0.824480 *  0.115390 *  -3.33043    1.000000    
     89 O2    s    0.389770 *  0.175520 *  0.884610 *  -2.87073    1.000000    
     90 O2    s    0.110230 *  0.824480 *  0.884610 *  -2.87073    1.000000    
     91 O2    s    0.389770 *  0.824480 *  0.884610 *  -2.87073    1.000000    
     92 O3    s    0.110230 *  0.175520 *  0.884610 *  -3.33043    1.000000    
     93 O2    s    0.610230 *  0.824480 *  0.115390 *  -2.87073    1.000000    
     94 O2    s    0.889770 *  0.175520 *  0.115390 *  -2.87073    1.000000    
     95 O2    s    0.500000 *  0.000000 *  0.000000 *  -2.87073    1.000000    
     96 O2    s    0.000000 *  0.000000 *  0.000000 *  -2.87073    1.000000    
     97 O3    s    0.151750 *  0.500000 *  0.313330 *  -3.33043    1.000000    
     98 O2    s    0.348250 *  0.500000 *  0.313330 *  -2.87073    1.000000    
     99 O2    s    0.848250 *  0.500000 *  0.686670 *  -2.87073    1.000000    
    100 O2    s    0.651750 *  0.500000 *  0.686670 *  -2.87073    1.000000    
    101 O3    s    0.250000 *  0.234950 *  0.285720 *  -3.33043    1.000000    
    102 O2    s    0.250000 *  0.765050 *  0.285720 *  -2.87073    1.000000    
    103 O2    s    0.750000 *  0.234950 *  0.714280 *  -2.87073    1.000000    
    104 O2    s    0.750000 *  0.765050 *  0.714280 *  -2.87073    1.000000    
    105 O1    s    0.131410 *  0.268650 *  0.127790 *  -3.73396    1.000000    
    106 O2    s    0.368590 *  0.731350 *  0.127790 *  -2.87073    1.000000    
    107 O2    s    0.868590 *  0.268650 *  0.872210 *  -2.87073    1.000000    
    108 O2    s    0.631410 *  0.731350 *  0.872210 *  -2.87073    1.000000    
    109 O3    s    0.868590 *  0.731350 *  0.872210 *  -3.33043    1.000000    
    110 O2    s    0.631410 *  0.268650 *  0.872210 *  -2.87073    1.000000    
    111 O2    s    0.131410 *  0.731350 *  0.127790 *  -2.87073    1.000000    
    112 O2    s    0.368590 *  0.268650 *  0.127790 *  -2.87073    1.000000    
    113 O2    s    0.653920 *  0.500000 *  0.058200 *  -2.87073    1.000000    
    114 O3    s    0.846080 *  0.500000 *  0.058200 *  -3.33043    1.000000    
    115 O2    s    0.346080 *  0.500000 *  0.941800 *  -2.87073    1.000000    
    116 O3    s    0.153920 *  0.500000 *  0.941800 *  -3.33043    1.000000    
    117 O2    s    0.750000 *  0.231060 *  0.027050 *  -2.87073    1.000000    
    118 O3    s    0.750000 *  0.768940 *  0.027050 *  -3.33043    1.000000    
    119 O3    s    0.250000 *  0.231060 *  0.972950 *  -3.33043    1.000000    
    120 O2    s    0.250000 *  0.768940 *  0.972950 *  -2.87073    1.000000    
--------------------------------------------------------------------------------



********************************************************************************
*  General input information                                                   *
********************************************************************************

  Species output for all configurations : 

--------------------------------------------------------------------------------
  Species    Type    Atomic    Atomic    Charge       Radii (Angs)     Library
                     Number     Mass       (e)     Cova   Ionic  VDW   Symbol
--------------------------------------------------------------------------------
    Ge       Core       32      72.61   4.000000   1.170  0.000  1.750 Ge       
    Si       Core       14      28.09   4.000000   1.200  0.000  2.100 Si       
    O1       Core        8      16.00   1.733957   0.730  0.000  1.360 O1       
    O2       Core        8      16.00   0.870733   0.730  0.000  1.360 O2       
    O3       Core        8      16.00   1.330431   0.730  0.000  1.360 O3       
    O1       Shell       8       0.00  -3.733957   0.730  0.000  0.000 O1       
    O2       Shell       8       0.00  -2.870733   0.730  0.000  0.000 O2       
    O3       Shell       8       0.00  -3.330431   0.730  0.000  0.000 O3       
--------------------------------------------------------------------------------


  Lattice summation method               =    Ewald          (3-D)
                                         =    Parry          (2-D)
                                         =    Saunders et al (1-D)
  Accuracy factor for lattice sums       =   12.000


  Analytic derivatives to be used

  Time limit = Infinity

  Maximum range for interatomic potentials =    100000.000000 Angstroms

  General interatomic potentials :

--------------------------------------------------------------------------------
Atom  Types   Potential      Parameter       Value         Units   Cutoffs(Ang)
  1     2                                                            Min /  Max 
--------------------------------------------------------------------------------
Si   c O1   s Buckingham    Buckingham A     1315.2478    eV        0.000 16.000
                            Buckingham rho  0.31775900    Ang       
                            Buckingham C     10.141118    eV*Ang^6  
--------------------------------------------------------------------------------
Si   c O2   s Buckingham    Buckingham A     1315.2478    eV        0.000 16.000
                            Buckingham rho  0.31775900    Ang       
                            Buckingham C     10.141118    eV*Ang^6  
--------------------------------------------------------------------------------
Si   c O3   s Buckingham    Buckingham A     1315.2478    eV        0.000 16.000
                            Buckingham rho  0.31775900    Ang       
                            Buckingham C     10.141118    eV*Ang^6  
--------------------------------------------------------------------------------
Ge   c O1   s Buckingham    Buckingham A     1497.3996    eV        0.000 16.000
                            Buckingham rho  0.32564600    Ang       
                            Buckingham C     16.808599    eV*Ang^6  
--------------------------------------------------------------------------------
Ge   c O2   s Buckingham    Buckingham A     1497.3996    eV        0.000 16.000
                            Buckingham rho  0.32564600    Ang       
                            Buckingham C     16.808599    eV*Ang^6  
--------------------------------------------------------------------------------
Ge   c O3   s Buckingham    Buckingham A     1497.3996    eV        0.000 16.000
                            Buckingham rho  0.32564600    Ang       
                            Buckingham C     16.808599    eV*Ang^6  
--------------------------------------------------------------------------------
O1   s O1   s Buckingham    Buckingham A     22764.000    eV        0.000 16.000
                            Buckingham rho  0.14900000    Ang       
                            Buckingham C     10.937044    eV*Ang^6  
--------------------------------------------------------------------------------
O1   s O2   s Buckingham    Buckingham A     22764.000    eV        0.000 16.000
                            Buckingham rho  0.14900000    Ang       
                            Buckingham C     10.937044    eV*Ang^6  
--------------------------------------------------------------------------------
O1   s O3   s Buckingham    Buckingham A     22764.000    eV        0.000 16.000
                            Buckingham rho  0.14900000    Ang       
                            Buckingham C     10.937044    eV*Ang^6  
--------------------------------------------------------------------------------
O2   s O2   s Buckingham    Buckingham A     22764.000    eV        0.000 16.000
                            Buckingham rho  0.14900000    Ang       
                            Buckingham C     10.937044    eV*Ang^6  
--------------------------------------------------------------------------------
O2   s O3   s Buckingham    Buckingham A     22764.000    eV        0.000 16.000
                            Buckingham rho  0.14900000    Ang       
                            Buckingham C     10.937044    eV*Ang^6  
--------------------------------------------------------------------------------
O3   s O3   s Buckingham    Buckingham A     22764.000    eV        0.000 16.000
                            Buckingham rho  0.14900000    Ang       
                            Buckingham C     10.937044    eV*Ang^6  
--------------------------------------------------------------------------------
O1   c O1   s Spring (c-s)  Spring k 2       180.31577    eV*Ang^-2 0.000  0.800
                            Spring k 4       0.0000000    eV*Ang^-4 
--------------------------------------------------------------------------------
O2   c O2   s Spring (c-s)  Spring k 2       75.969800    eV*Ang^-2 0.000  0.800
                            Spring k 4       0.0000000    eV*Ang^-4 
--------------------------------------------------------------------------------
O3   c O3   s Spring (c-s)  Spring k 2       128.14270    eV*Ang^-2 0.000  0.800
                            Spring k 4       0.0000000    eV*Ang^-4 
--------------------------------------------------------------------------------

  General Three-body potentials :

--------------------------------------------------------------------------------
  Atoms       Potential      Parameter       Value         Units   Cutoffs(Ang)
  1 / 2 / 3                                                          Min /  Max 
--------------------------------------------------------------------------------
Si    core    Harmonic      Three-body cnst  1.2614000    eV*rad^-2 0.000  1.900
O1    shel                  Three-body angl  109.47000    degrees   0.000  1.900
O1    shel                  Three-body k4    0.0000000    eV*rad^-4 0.000  3.500
                            Three-body k3    0.0000000    eV*rad^-3 
--------------------------------------------------------------------------------
Si    core    Harmonic      Three-body cnst  1.2614000    eV*rad^-2 0.000  1.900
O1    shel                  Three-body angl  109.47000    degrees   0.000  1.900
õ(1   shel                  Three-body k4    0.0000000    eV*rad^-4 0.000  3.500
                            Three-body k3    0.0000000    eV*rad^-3 
--------------------------------------------------------------------------------
Si    core    Harmonic      Three-body cnst  1.2614000    eV*rad^-2 0.000  1.900
õ(1   shel                  Three-body angl  109.47000    degrees   0.000  1.900
õ(1   shel                  Three-body k4    0.0000000    eV*rad^-4 0.000  3.500
                            Three-body k3    0.0000000    eV*rad^-3 
--------------------------------------------------------------------------------
Si    core    Harmonic      Three-body cnst  1.2614000    eV*rad^-2 0.000  1.900
O1    shel                  Three-body angl  109.47000    degrees   0.000  1.900
O2    shel                  Three-body k4    0.0000000    eV*rad^-4 0.000  3.500
                            Three-body k3    0.0000000    eV*rad^-3 
--------------------------------------------------------------------------------
Si    core    Harmonic      Three-body cnst  1.2614000    eV*rad^-2 0.000  1.900
O1    shel                  Three-body angl  109.47000    degrees   0.000  1.900
õ(2   shel                  Three-body k4    0.0000000    eV*rad^-4 0.000  3.500
                            Three-body k3    0.0000000    eV*rad^-3 
--------------------------------------------------------------------------------
Si    core    Harmonic      Three-body cnst  1.2614000    eV*rad^-2 0.000  1.900
O2    shel                  Three-body angl  109.47000    degrees   0.000  1.900
õ(1   shel                  Three-body k4    0.0000000    eV*rad^-4 0.000  3.500
                            Three-body k3    0.0000000    eV*rad^-3 
--------------------------------------------------------------------------------
Si    core    Harmonic      Three-body cnst  1.2614000    eV*rad^-2 0.000  1.900
õ(1   shel                  Three-body angl  109.47000    degrees   0.000  1.900
õ(2   shel                  Three-body k4    0.0000000    eV*rad^-4 0.000  3.500
                            Three-body k3    0.0000000    eV*rad^-3 
--------------------------------------------------------------------------------
Si    core    Harmonic      Three-body cnst  1.2614000    eV*rad^-2 0.000  1.900
O2    shel                  Three-body angl  109.47000    degrees   0.000  1.900
O2    shel                  Three-body k4    0.0000000    eV*rad^-4 0.000  3.500
                            Three-body k3    0.0000000    eV*rad^-3 
--------------------------------------------------------------------------------
Si    core    Harmonic      Three-body cnst  1.2614000    eV*rad^-2 0.000  1.900
O2    shel                  Three-body angl  109.47000    degrees   0.000  1.900
õ(2   shel                  Three-body k4    0.0000000    eV*rad^-4 0.000  3.500
                            Three-body k3    0.0000000    eV*rad^-3 
--------------------------------------------------------------------------------
Si    core    Harmonic      Three-body cnst  1.2614000    eV*rad^-2 0.000  1.900
õ(2   shel                  Three-body angl  109.47000    degrees   0.000  1.900
õ(2   shel                  Three-body k4    0.0000000    eV*rad^-4 0.000  3.500
                            Three-body k3    0.0000000    eV*rad^-3 
--------------------------------------------------------------------------------

********************************************************************************
*  Output for configuration   1 : c00244.vasp                                  *
********************************************************************************


  Components of energy : 

--------------------------------------------------------------------------------
  Interatomic potentials     =         760.31794850 eV    
  Three-body potentials      =           0.01533882 eV    
  Monopole - monopole (real) =       -2676.00317478 eV    
  Monopole - monopole (recip)=       -1115.35404472 eV    
  Monopole - monopole (total)=       -3791.35721950 eV    
--------------------------------------------------------------------------------
  Total lattice energy       =       -3031.02393218 eV    
--------------------------------------------------------------------------------
  Total lattice energy       =         -292447.4760 kJ/(mole unit cells)
--------------------------------------------------------------------------------


  Number of variables =      363

  Maximum number of calculations  =          1000
  Maximum Hessian update interval =            10
  Maximum step size               =   0.100000000
  Maximum parameter tolerance     =   0.000010000
  Maximum function  tolerance     =   0.000010000
  Maximum gradient  tolerance     =   0.001000000
  Maximum gradient  component     =   0.010000000

  Symmetry not applied to optimisation

  Cell parameters to be optimised using strains

  Newton-Raphson optimiser to be used

  BFGS hessian update to be used

  Lower half triangular hessian to be used

  Minimiser to switch to RFO
  When gradient norm is less than     0.050000

  Dumpfile to be written after every cycle

  Start of bulk optimisation :

  Cycle:      0 Energy:     -3031.023932  Gnorm:      4.457332  CPU:    0.115
  ** Hessian calculated **
  Cycle:      1 Energy:     -3045.089546  Gnorm:      3.505422  CPU:    0.314
  ** Hessian calculated **
  Cycle:      2 Energy:     -3063.955111  Gnorm:      0.767513  CPU:    0.526
  ** Hessian calculated **
  Cycle:      3 Energy:     -3065.491981  Gnorm:      0.436986  CPU:    0.738
  Cycle:      4 Energy:     -3066.015492  Gnorm:      0.291752  CPU:    0.850
  Cycle:      5 Energy:     -3066.436031  Gnorm:      0.225292  CPU:    0.982
  Cycle:      6 Energy:     -3066.814799  Gnorm:      0.182773  CPU:    1.113
  Cycle:      7 Energy:     -3067.069394  Gnorm:      0.155720  CPU:    1.224
  Cycle:      8 Energy:     -3067.229472  Gnorm:      0.114923  CPU:    1.336
  Cycle:      9 Energy:     -3067.306618  Gnorm:      0.076266  CPU:    1.447
  Cycle:     10 Energy:     -3067.346611  Gnorm:      0.056806  CPU:    1.579
  Cycle:     11 Energy:     -3067.371519  Gnorm:      0.050617  CPU:    1.711
  Cycle:     12 Energy:     -3067.391995  Gnorm:      0.049029  CPU:    1.823
  ** Hessian has wrong structure
  ** Imaginary eigenvectors =   2
  ** Hessian has wrong structure
  ** Imaginary eigenvectors =   2
  Cycle:     13 Energy:     -3067.392809  Gnorm:      0.048938  CPU:    2.489
  ** Hessian has wrong structure
  ** Imaginary eigenvectors =   2
  ** Hessian has wrong structure
  ** Imaginary eigenvectors =   2
  Cycle:     14 Energy:     -3067.395463  Gnorm:      0.048809  CPU:    3.137
  ** Hessian has wrong structure
  ** Imaginary eigenvectors =   2
  ** Hessian has wrong structure
  ** Imaginary eigenvectors =   2
  Cycle:     15 Energy:     -3067.399616  Gnorm:      0.048646  CPU:    3.766
  ** Hessian has wrong structure
  ** Imaginary eigenvectors =   2
  ** Hessian has wrong structure
  ** Imaginary eigenvectors =   2
  Cycle:     16 Energy:     -3067.407744  Gnorm:      0.048426  CPU:    4.331
  ** Hessian has wrong structure
  ** Imaginary eigenvectors =   2
  ** Hessian has wrong structure
  ** Imaginary eigenvectors =   2
  Cycle:     17 Energy:     -3067.420171  Gnorm:      0.048217  CPU:    4.930
  ** Hessian has wrong structure
  ** Imaginary eigenvectors =   2
  ** Hessian has wrong structure
  ** Imaginary eigenvectors =   1
  Cycle:     18 Energy:     -3067.471560  Gnorm:      0.046628  CPU:    5.433
  ** Hessian has required structure
  Cycle:     19 Energy:     -3067.551623  Gnorm:      0.046406  CPU:    5.682
  ** Hessian has required structure
  Cycle:     20 Energy:     -3067.640686  Gnorm:      0.047060  CPU:    5.908
  ** Hessian has required structure
  Cycle:     21 Energy:     -3067.748197  Gnorm:      0.042835  CPU:    6.134
  ** Hessian has required structure
  Cycle:     22 Energy:     -3067.795328  Gnorm:      0.048498  CPU:    6.312
  ** Hessian has required structure
  Cycle:     23 Energy:     -3067.888185  Gnorm:      0.044481  CPU:    6.537
  ** Hessian has required structure
  Cycle:     24 Energy:     -3067.912842  Gnorm:      0.026886  CPU:    6.737
  ** Hessian has required structure
  Cycle:     25 Energy:     -3067.934229  Gnorm:      0.029590  CPU:    6.937
  ** Hessian has required structure
  Cycle:     26 Energy:     -3067.972566  Gnorm:      0.027977  CPU:    7.161
  ** Hessian has required structure
  Cycle:     27 Energy:     -3067.995157  Gnorm:      0.043415  CPU:    7.354
  ** Hessian has required structure
  Cycle:     28 Energy:     -3068.091841  Gnorm:      0.034493  CPU:    7.657
  ** Hessian has required structure
  Cycle:     29 Energy:     -3068.141046  Gnorm:      0.026339  CPU:    7.843
  ** Hessian has required structure
  Cycle:     30 Energy:     -3068.161808  Gnorm:      0.027676  CPU:    8.010
  ** Hessian has required structure
  Cycle:     31 Energy:     -3068.181237  Gnorm:      0.014667  CPU:    8.190
  ** Hessian has required structure
  Cycle:     32 Energy:     -3068.188458  Gnorm:      0.016860  CPU:    8.352
  ** Hessian has required structure
  Cycle:     33 Energy:     -3068.192816  Gnorm:      0.010863  CPU:    8.534
  ** Hessian has required structure
  Cycle:     34 Energy:     -3068.194871  Gnorm:      0.005737  CPU:    8.715
  ** Hessian has required structure
  Cycle:     35 Energy:     -3068.195929  Gnorm:      0.004218  CPU:    8.895
  ** Hessian has required structure
  Cycle:     36 Energy:     -3068.196326  Gnorm:      0.002339  CPU:    9.074
  ** Hessian has required structure
  Cycle:     37 Energy:     -3068.196496  Gnorm:      0.001328  CPU:    9.275
  ** Hessian has required structure
  Cycle:     38 Energy:     -3068.196633  Gnorm:      0.000703  CPU:    9.578
  ** Hessian has required structure
  Cycle:     39 Energy:     -3068.196668  Gnorm:      0.000366  CPU:    9.785
  ** Hessian has required structure
  Cycle:     40 Energy:     -3068.196678  Gnorm:      0.000187  CPU:    9.992
  ** Hessian has required structure
  Cycle:     41 Energy:     -3068.196679  Gnorm:      0.000150  CPU:   10.158
  ** Hessian has required structure
  Cycle:     42 Energy:     -3068.196680  Gnorm:      0.000117  CPU:   10.323
  ** Hessian has required structure


  **** Optimisation achieved ****


  Final energy =   -3068.19668101 eV      
  Final Gnorm  =       0.00008830

  Components of energy : 

--------------------------------------------------------------------------------
  Interatomic potentials     =         816.07158674 eV    
  Three-body potentials      =           0.21956118 eV    
  Monopole - monopole (real) =       -2203.37651966 eV    
  Monopole - monopole (recip)=       -1681.11130927 eV    
  Monopole - monopole (total)=       -3884.48782892 eV    
--------------------------------------------------------------------------------
  Total lattice energy       =       -3068.19668101 eV    
--------------------------------------------------------------------------------
  Total lattice energy       =         -296034.0780 kJ/(mole unit cells)
--------------------------------------------------------------------------------

  Final fractional coordinates of atoms :

--------------------------------------------------------------------------------
   No.  Atomic        x           y          z          Radius
        Label       (Frac)      (Frac)     (Frac)       (Angs) 
--------------------------------------------------------------------------------
     1  Ge    c     0.160190    0.293910    0.273440    0.000000
     2  Ge    c     0.838842    0.684688    0.008477    0.000000
     3  Ge    c     0.151022    0.302523    0.954172    0.000000
     4  Si    c     0.055952    0.990382    0.354673    0.000000
     5  Si    c     0.458705    0.972127    0.352805    0.000000
     6  Si    c     0.950832    0.969461    0.604094    0.000000
     7  Si    c     0.552558    0.970026    0.618924    0.000000
     8  Si    c     0.562098    0.967378    0.105734    0.000000
     9  Si    c     0.949692    0.972560    0.100838    0.000000
    10  Si    c     0.445925    0.981679    0.870586    0.000000
    11  Si    c     0.055187    0.986898    0.855118    0.000000
    12  Si    c     0.352390    0.671551    0.261152    0.000000
    13  Si    c     0.847963    0.276183    0.699020    0.000000
    14  Si    c     0.658627    0.659621    0.697617    0.000000
    15  Si    c     0.837524    0.682785    0.697406    0.000000
    16  Si    c     0.667469    0.258131    0.697642    0.000000
    17  Si    c     0.171738    0.704620    0.267282    0.000000
    18  Si    c     0.341509    0.269223    0.260262    0.000000
    19  Si    c     0.669807    0.256637    0.002658    0.000000
    20  Si    c     0.333264    0.275017    0.950521    0.000000
    21  Si    c     0.168689    0.707600    0.960746    0.000000
    22  Si    c     0.349697    0.669303    0.957298    0.000000
    23  Si    c     0.656504    0.652109    0.005867    0.000000
    24  Si    c     0.851748    0.281324    0.002079    0.000000
    25  O3    c     0.097024    0.175756    0.370278    0.000000
    26  O2    c     0.410757    0.791555    0.344356    0.000000
    27  O2    c     0.905101    0.155597    0.613030    0.000000
    28  O2    c     0.597944    0.783624    0.619817    0.000000
    29  O2    c     0.889960    0.809737    0.609287    0.000000
    30  O2    c     0.616013    0.125434    0.612451    0.000000
    31  O2    c     0.125085    0.844321    0.354815    0.000000
    32  O2    c     0.401667    0.136940    0.329159    0.000000
    33  O2    c     0.993579    0.956344    0.466596    0.000000
    34  O2    c     0.495398    0.983651    0.496056    0.000000
    35  O2    c     0.010469    0.978656    0.217677    0.000000
    36  O2    c     0.529633    0.975814    0.251336    0.000000
    37  O2    c     0.017168    0.950613    0.714690    0.000000
    38  O2    c     0.500652    0.993903    0.746672    0.000000
    39  O2    c     0.630105    0.111144    0.092510    0.000000
    40  O3    c     0.887511    0.819462    0.114710    0.000000
    41  O2    c     0.381630    0.135841    0.865880    0.000000
    42  O2    c     0.131246    0.862211    0.873828    0.000000
    43  O2    c     0.404093    0.792634    0.869820    0.000000
    44  O3    c     0.083060    0.185722    0.864874    0.000000
    45  O2    c     0.594736    0.772122    0.081717    0.000000
    46  O2    c     0.904578    0.158382    0.093955    0.000000
    47  O2    c     0.494388    0.013516    0.002835    0.000000
    48  O2    c     0.993539    0.932668    0.965297    0.000000
    49  O3    c     0.139522    0.513281    0.294886    0.000000
    50  O2    c     0.372065    0.467148    0.284423    0.000000
    51  O2    c     0.866418    0.481624    0.678939    0.000000
    52  O2    c     0.638619    0.456719    0.669349    0.000000
    53  O3    c     0.256005    0.250418    0.319454    0.000000
    54  O2    c     0.263672    0.711592    0.304693    0.000000
    55  O2    c     0.758324    0.238057    0.658778    0.000000
    56  O2    c     0.746938    0.699109    0.651933    0.000000
    57  O1    c     0.143825    0.238502    0.113630    0.000000
    58  O2    c     0.363529    0.719622    0.108787    0.000000
    59  O2    c     0.862838    0.225462    0.850526    0.000000
    60  O2    c     0.652788    0.698258    0.851833    0.000000
    61  O3    c     0.845041    0.744386    0.846302    0.000000
    62  O2    c     0.658168    0.208952    0.850312    0.000000
    63  O2    c     0.161648    0.753438    0.114349    0.000000
    64  O2    c     0.332854    0.229976    0.105321    0.000000
    65  O2    c     0.633477    0.449056    0.029889    0.000000
    66  O3    c     0.878321    0.477129    0.024979    0.000000
    67  O2    c     0.371683    0.466969    0.930355    0.000000
    68  O3    c     0.128220    0.522901    0.935630    0.000000
    69  O2    c     0.761116    0.259515    0.039345    0.000000
    70  O3    c     0.742822    0.687284    0.057535    0.000000
    71  O3    c     0.245303    0.271833    0.899066    0.000000
    72  O2    c     0.259234    0.697648    0.919994    0.000000
    73  O3    s     0.097928    0.166488    0.361011    0.000000
    74  O2    s     0.409399    0.797654    0.335942    0.000000
    75  O2    s     0.903622    0.149354    0.621539    0.000000
    76  O2    s     0.599811    0.789770    0.628291    0.000000
    77  O2    s     0.890754    0.813045    0.618456    0.000000
    78  O2    s     0.615006    0.123668    0.622661    0.000000
    79  O2    s     0.122954    0.844298    0.345203    0.000000
    80  O2    s     0.401128    0.133641    0.323904    0.000000
    81  O2    s     0.995839    0.961836    0.469583    0.000000
    82  O2    s     0.497839    0.980702    0.493801    0.000000
    83  O2    s     0.008270    0.979189    0.219016    0.000000
    84  O2    s     0.525468    0.974437    0.245926    0.000000
    85  O2    s     0.014064    0.956851    0.718265    0.000000
    86  O2    s     0.500128    0.989697    0.746764    0.000000
    87  O2    s     0.627241    0.111942    0.083766    0.000000
    88  O3    s     0.889763    0.823669    0.104376    0.000000
    89  O2    s     0.383315    0.134357    0.875824    0.000000
    90  O2    s     0.127349    0.858390    0.881502    0.000000
    91  O2    s     0.402556    0.799104    0.879551    0.000000
    92  O3    s     0.085742    0.175317    0.871089    0.000000
    93  O2    s     0.598092    0.779950    0.075795    0.000000
    94  O2    s     0.903510    0.152268    0.084364    0.000000
    95  O2    s     0.496646    0.004825    0.999777    0.000000
    96  O2    s     0.995531    0.942686    0.967823    0.000000
    97  O3    s     0.144518    0.514964    0.290325    0.000000
    98  O2    s     0.366761    0.468555    0.279371    0.000000
    99  O2    s     0.861425    0.480699    0.683002    0.000000
   100  O2    s     0.643829    0.457258    0.675363    0.000000
   101  O3    s     0.256991    0.255736    0.309870    0.000000
   102  O2    s     0.263470    0.706545    0.296082    0.000000
   103  O2    s     0.758200    0.244344    0.667222    0.000000
   104  O2    s     0.747085    0.693142    0.661500    0.000000
   105  O1    s     0.145650    0.247769    0.113541    0.000000
   106  O2    s     0.360889    0.709277    0.108870    0.000000
   107  O2    s     0.860138    0.236465    0.850217    0.000000
   108  O2    s     0.653810    0.689203    0.851527    0.000000
   109  O3    s     0.843786    0.733419    0.844746    0.000000
   110  O2    s     0.660402    0.219203    0.850417    0.000000
   111  O2    s     0.163485    0.743534    0.114313    0.000000
   112  O2    s     0.333791    0.238818    0.105333    0.000000
   113  O2    s     0.639678    0.449872    0.024504    0.000000
   114  O3    s     0.872351    0.473492    0.021251    0.000000
   115  O2    s     0.365393    0.468859    0.935340    0.000000
   116  O3    s     0.134034    0.524040    0.939561    0.000000
   117  O2    s     0.760873    0.261650    0.031210    0.000000
   118  O3    s     0.741842    0.683451    0.048168    0.000000
   119  O3    s     0.246654    0.274630    0.908751    0.000000
   120  O2    s     0.259373    0.695505    0.928560    0.000000
--------------------------------------------------------------------------------

  Final Cartesian lattice vectors (Angstroms) :

       17.103908    0.062661   -0.066859
        0.027206    7.630875    0.007992
       -0.039262    0.011726   10.216285


  Final cell parameters and derivatives :

--------------------------------------------------------------------------------
       a           17.104154 Angstrom     dE/de1(xx)    -0.000954 eV/strain
       b            7.630928 Angstrom     dE/de2(yy)     0.004109 eV/strain
       c           10.216367 Angstrom     dE/de3(zz)    -0.000007 eV/strain
       alpha       89.875018 Degrees      dE/de4(yz)    -0.000024 eV/strain
       beta        90.443915 Degrees      dE/de5(xz)    -0.000396 eV/strain
       gamma       89.586055 Degrees      dE/de6(xy)     0.000379 eV/strain
--------------------------------------------------------------------------------

  Primitive cell volume =          1333.367899 Angs**3

  Density of cell =      1.962389 g/cm**3

  Non-primitive cell volume =          1333.367899 Angs**3


  Final internal derivatives :

--------------------------------------------------------------------------------
   No.  Atomic          a             b             c           Radius
        Label          (eV)          (eV)          (eV)        (eV/Angs)
--------------------------------------------------------------------------------
      1 Ge    c       0.000000      0.000000      0.000000      0.000000
      2 Ge    c      -0.003667     -0.000876     -0.001413      0.000000
      3 Ge    c       0.005315     -0.002956     -0.002670      0.000000
      4 Si    c      -0.000330      0.000726     -0.002093      0.000000
      5 Si    c       0.002341      0.001000      0.001524      0.000000
      6 Si    c      -0.000386      0.000115      0.000388      0.000000
      7 Si    c      -0.001013      0.000018      0.000240      0.000000
      8 Si    c      -0.001394     -0.000053      0.000258      0.000000
      9 Si    c       0.000875     -0.000107     -0.000660      0.000000
     10 Si    c       0.001139     -0.000280      0.000019      0.000000
     11 Si    c      -0.000838      0.000141     -0.000312      0.000000
     12 Si    c       0.000476      0.001302     -0.001998      0.000000
     13 Si    c       0.000848      0.000304      0.000374      0.000000
     14 Si    c       0.001163      0.000827      0.000912      0.000000
     15 Si    c      -0.000370      0.000499      0.002190      0.000000
     16 Si    c      -0.000323     -0.000524     -0.000448      0.000000
     17 Si    c       0.005440      0.002366     -0.002429      0.000000
     18 Si    c       0.001603     -0.000960     -0.001249      0.000000
     19 Si    c       0.001647     -0.001261      0.000878      0.000000
     20 Si    c      -0.000820      0.000775      0.001016      0.000000
     21 Si    c       0.002410      0.000642      0.000354      0.000000
     22 Si    c      -0.001210      0.000397      0.000744      0.000000
     23 Si    c       0.005048      0.000354      0.000543      0.000000
     24 Si    c      -0.000467      0.001379     -0.000113      0.000000
     25 O3    c       0.001038      0.002810      0.001604      0.000000
     26 O2    c      -0.001058     -0.001519      0.000316      0.000000
     27 O2    c       0.000085      0.000255     -0.000181      0.000000
     28 O2    c       0.000313     -0.000341      0.000314      0.000000
     29 O2    c       0.000274      0.000003     -0.000044      0.000000
     30 O2    c      -0.000219     -0.000078     -0.000050      0.000000
     31 O2    c       0.007400     -0.000551      0.001348      0.000000
     32 O2    c      -0.001013      0.000738     -0.001325      0.000000
     33 O2    c      -0.006081     -0.001357      0.004476      0.000000
     34 O2    c      -0.002387     -0.000169     -0.002367      0.000000
     35 O2    c       0.000538     -0.000186     -0.002139      0.000000
     36 O2    c      -0.000721      0.000087     -0.000761      0.000000
     37 O2    c       0.001626     -0.000052      0.000722      0.000000
     38 O2    c       0.001080      0.000054     -0.001188      0.000000
     39 O2    c       0.000723      0.000377     -0.000349      0.000000
     40 O3    c      -0.000204     -0.000238      0.000421      0.000000
     41 O2    c      -0.001578      0.000665     -0.000301      0.000000
     42 O2    c       0.002352     -0.000055     -0.000158      0.000000
     43 O2    c      -0.000325     -0.000886     -0.000102      0.000000
     44 O3    c      -0.000038      0.000573      0.000243      0.000000
     45 O2    c      -0.000322      0.000471     -0.000275      0.000000
     46 O2    c      -0.000147      0.000282     -0.000090      0.000000
     47 O2    c       0.001361      0.000289      0.001220      0.000000
     48 O2    c      -0.000997     -0.000507      0.000775      0.000000
     49 O3    c      -0.008891     -0.000544      0.007639      0.000000
     50 O2    c       0.000932     -0.001378      0.000663      0.000000
     51 O2    c      -0.000635     -0.000845      0.000133      0.000000
     52 O2    c       0.000014      0.000532     -0.000102      0.000000
     53 O3    c       0.007405     -0.000130      0.000272      0.000000
     54 O2    c      -0.002680     -0.000420      0.000856      0.000000
     55 O2    c       0.000660      0.000151     -0.000036      0.000000
     56 O2    c      -0.001192     -0.000756      0.000947      0.000000
     57 O1    c      -0.001962     -0.001082      0.003841      0.000000
     58 O2    c      -0.002247     -0.000176      0.000327      0.000000
     59 O2    c      -0.000730      0.000143      0.000164      0.000000
     60 O2    c       0.001634     -0.000463     -0.000101      0.000000
     61 O3    c      -0.002577     -0.001322     -0.000921      0.000000
     62 O2    c       0.000018     -0.000222      0.000061      0.000000
     63 O2    c      -0.003499      0.000014     -0.002669      0.000000
     64 O2    c      -0.000686      0.001039      0.000373      0.000000
     65 O2    c      -0.000653      0.001767     -0.000623      0.000000
     66 O3    c      -0.005239     -0.000298     -0.001701      0.000000
     67 O2    c      -0.000971     -0.001003      0.000227      0.000000
     68 O3    c      -0.003407      0.001797     -0.003602      0.000000
     69 O2    c       0.002869      0.001445     -0.000082      0.000000
     70 O3    c      -0.001873     -0.002753     -0.002260      0.000000
     71 O3    c      -0.005544      0.002194      0.000807      0.000000
     72 O2    c       0.001583     -0.000770      0.000042      0.000000
     73 O3    s      -0.000062      0.001451     -0.000665      0.000000
     74 O2    s       0.001198      0.000737     -0.000374      0.000000
     75 O2    s      -0.001240      0.000363      0.000446      0.000000
     76 O2    s       0.001632     -0.000177      0.000478      0.000000
     77 O2    s      -0.001282     -0.000224      0.000361      0.000000
     78 O2    s       0.000344      0.000010      0.000048      0.000000
     79 O2    s       0.003648     -0.000134      0.002349      0.000000
     80 O2    s      -0.000928      0.000188     -0.000482      0.000000
     81 O2    s      -0.002016     -0.000459      0.000020      0.000000
     82 O2    s       0.001565      0.000384      0.000396      0.000000
     83 O2    s      -0.005201      0.000083     -0.000730      0.000000
     84 O2    s       0.000781     -0.000001      0.000744      0.000000
     85 O2    s      -0.001100     -0.000027     -0.000477      0.000000
     86 O2    s       0.000735      0.000122      0.000092      0.000000
     87 O2    s       0.000390     -0.000263      0.000228      0.000000
     88 O3    s      -0.002131     -0.000392     -0.000487      0.000000
     89 O2    s      -0.001514      0.000203      0.000530      0.000000
     90 O2    s       0.001467      0.000293     -0.000924      0.000000
     91 O2    s      -0.000913     -0.000265      0.000289      0.000000
     92 O3    s       0.000523      0.000180     -0.000786      0.000000
     93 O2    s       0.001529     -0.000575     -0.000497      0.000000
     94 O2    s      -0.002028      0.001177     -0.000101      0.000000
     95 O2    s       0.001036     -0.000272      0.000157      0.000000
     96 O2    s      -0.001313      0.000029     -0.000576      0.000000
     97 O3    s       0.002333     -0.000096      0.000395      0.000000
     98 O2    s       0.000071     -0.000628     -0.000511      0.000000
     99 O2    s      -0.001656      0.000156      0.001252      0.000000
    100 O2    s       0.001190      0.000664      0.001290      0.000000
    101 O3    s       0.000317     -0.001598      0.000100      0.000000
    102 O2    s       0.004548      0.000988     -0.000160      0.000000
    103 O2    s       0.000602      0.000558      0.000807      0.000000
    104 O2    s      -0.000331     -0.000388      0.001186      0.000000
    105 O1    s      -0.002204     -0.000289     -0.002909      0.000000
    106 O2    s      -0.000104      0.000390     -0.000940      0.000000
    107 O2    s      -0.002584      0.001394      0.000614      0.000000
    108 O2    s       0.001847     -0.001106      0.000626      0.000000
    109 O3    s      -0.000923     -0.000552      0.000609      0.000000
    110 O2    s       0.002019      0.000352     -0.000121      0.000000
    111 O2    s       0.002286      0.000891     -0.001998      0.000000
    112 O2    s      -0.002876     -0.000232      0.000120      0.000000
    113 O2    s       0.000841      0.000610     -0.001765      0.000000
    114 O3    s      -0.000990     -0.000697     -0.000807      0.000000
    115 O2    s       0.000052      0.000247      0.001289      0.000000
    116 O3    s       0.000181     -0.001028      0.000705      0.000000
    117 O2    s       0.001840      0.000711     -0.001138      0.000000
    118 O3    s      -0.000254      0.000258     -0.001109      0.000000
    119 O3    s       0.006305     -0.001992      0.000307      0.000000
    120 O2    s       0.001480      0.000785      0.000580      0.000000
--------------------------------------------------------------------------------
  Maximum abs         0.008891      0.002956      0.007639      0.000000
--------------------------------------------------------------------------------


  Born effective charge tensors : 

-------------------------------------------------------------------------------
  Atom             x           y             z
-------------------------------------------------------------------------------
    1 Ge    x       3.9813      0.3288     -0.0664
            y       0.3520      4.2145     -0.2087
            z      -0.1645     -0.0338      3.4964
-------------------------------------------------------------------------------
    2 Ge    x       3.9837      0.4117      0.1945
            y       0.1437      4.1614      0.3145
            z       0.1999      0.0704      3.3605
-------------------------------------------------------------------------------
    3 Ge    x       4.0883      0.3648      0.0953
            y       0.3687      4.2217      0.1926
            z       0.2524      0.0048      3.3815
-------------------------------------------------------------------------------
    4 Si    x       3.5998      0.3017     -0.0579
            y       0.0298      3.4489      0.0688
            z      -0.6555     -0.0874      3.7508
-------------------------------------------------------------------------------
    5 Si    x       3.4128      0.0700      0.3199
            y      -0.0592      3.2472     -0.0351
            z       0.2952      0.0650      3.8528
-------------------------------------------------------------------------------
    6 Si    x       3.4498     -0.0998     -0.2665
            y       0.0911      3.2428      0.0211
            z      -0.3853      0.0557      3.7337
-------------------------------------------------------------------------------
    7 Si    x       3.4543     -0.1179      0.0816
            y       0.0880      3.2545     -0.0106
            z       0.5689     -0.0086      3.7763
-------------------------------------------------------------------------------
    8 Si    x       3.4253     -0.1240     -0.3239
            y       0.1896      3.2472      0.0202
            z      -0.3985     -0.0052      3.1525
-------------------------------------------------------------------------------
    9 Si    x       3.6718      0.0966      0.0786
            y       0.2716      3.4184     -0.0702
            z       0.6002      0.0322      3.0971
-------------------------------------------------------------------------------
   10 Si    x       3.4765      0.1485     -0.1260
            y      -0.1147      3.2429     -0.0184
            z      -0.5746     -0.0388      3.0654
-------------------------------------------------------------------------------
   11 Si    x       3.5736      0.3606      0.3099
            y      -0.1127      3.5045     -0.0114
            z       0.4380      0.0886      3.1791
-------------------------------------------------------------------------------
   12 Si    x       3.2136      0.2401      0.0532
            y       0.2452      3.4186      0.1902
            z       0.1047      0.0669      2.8332
-------------------------------------------------------------------------------
   13 Si    x       3.2263     -0.2620     -0.0639
            y      -0.2757      3.4455      0.1986
            z      -0.1103      0.0544      2.8024
-------------------------------------------------------------------------------
   14 Si    x       3.1870     -0.2651      0.0352
            y      -0.2819      3.4644     -0.1694
            z       0.1321     -0.0819      2.8006
-------------------------------------------------------------------------------
   15 Si    x       3.2743      0.3338     -0.0712
            y       0.2105      3.5845     -0.1052
            z      -0.1258      0.0391      3.0904
-------------------------------------------------------------------------------
   16 Si    x       3.2122      0.3138      0.0999
            y       0.1843      3.4555      0.1543
            z       0.0997      0.0541      2.8038
-------------------------------------------------------------------------------
   17 Si    x       3.3347     -0.2602     -0.1554
            y      -0.0233      3.7330      0.0769
            z      -0.1617     -0.0129      2.8792
-------------------------------------------------------------------------------
   18 Si    x       3.5387     -0.2786     -0.0970
            y      -0.1778      3.5595     -0.1766
            z       0.0752     -0.1071      2.9150
-------------------------------------------------------------------------------
   19 Si    x       3.1966      0.3736     -0.1729
            y       0.0864      3.4216     -0.1869
            z      -0.1167     -0.0838      2.7590
-------------------------------------------------------------------------------
   20 Si    x       3.5884     -0.3519      0.0152
            y      -0.0951      3.5167      0.2156
            z      -0.0664      0.0935      2.8256
-------------------------------------------------------------------------------
   21 Si    x       3.3695     -0.2874      0.1743
            y       0.0821      3.7149     -0.0908
            z       0.1660     -0.0120      2.8119
-------------------------------------------------------------------------------
   22 Si    x       3.2680      0.2986     -0.1277
            y       0.2257      3.3807     -0.1816
            z      -0.1413     -0.0422      2.7301
-------------------------------------------------------------------------------
   23 Si    x       3.5738     -0.2130      0.0083
            y      -0.2064      3.4993      0.2045
            z      -0.1251      0.0891      2.8185
-------------------------------------------------------------------------------
   24 Si    x       3.3475     -0.1907      0.1662
            y      -0.0725      3.6978     -0.1312
            z       0.1844      0.0118      2.7949
-------------------------------------------------------------------------------
   25 O3    x      -1.9484     -0.9276      0.3101
            y      -0.8847     -2.4957      0.2987
            z       0.4150      0.2890     -1.5228
-------------------------------------------------------------------------------
   26 O2    x      -1.6812     -0.7227     -0.3399
            y      -0.6905     -1.9836     -0.3340
            z      -0.3541     -0.3449     -1.3631
-------------------------------------------------------------------------------
   27 O2    x      -1.6614      0.7221      0.3414
            y       0.6747     -2.0074     -0.3617
            z       0.3605     -0.3490     -1.3673
-------------------------------------------------------------------------------
   28 O2    x      -1.6673      0.7331     -0.2712
            y       0.7067     -2.0422      0.3044
            z      -0.3573      0.3047     -1.3180
-------------------------------------------------------------------------------
   29 O2    x      -1.7457     -0.7298      0.3250
            y      -0.7465     -1.9620      0.3274
            z       0.3625      0.3200     -1.3406
-------------------------------------------------------------------------------
   30 O2    x      -1.7465     -0.7276     -0.2706
            y      -0.7503     -1.9435     -0.2996
            z      -0.3431     -0.2991     -1.3406
-------------------------------------------------------------------------------
   31 O2    x      -1.8110      0.6747      0.2996
            y       0.7118     -1.8413     -0.3295
            z       0.3722     -0.2884     -1.3782
-------------------------------------------------------------------------------
   32 O2    x      -1.7404      0.7436     -0.3455
            y       0.7600     -2.0127      0.3705
            z      -0.3536      0.3383     -1.3296
-------------------------------------------------------------------------------
   33 O2    x      -1.7000     -0.0360      0.8031
            y      -0.0321     -1.0851      0.0250
            z       1.0608      0.0475     -2.6127
-------------------------------------------------------------------------------
   34 O2    x      -1.6051      0.0104     -0.8207
            y      -0.0034     -1.0891      0.0026
            z      -1.0035     -0.0002     -2.7891
-------------------------------------------------------------------------------
   35 O2    x      -1.7096     -0.0049     -0.6926
            y       0.0084     -1.1196      0.0018
            z      -0.6837     -0.0018     -2.2201
-------------------------------------------------------------------------------
   36 O2    x      -1.7022      0.0196      0.6878
            y      -0.0070     -1.1023     -0.0232
            z       0.6761     -0.0243     -2.2250
-------------------------------------------------------------------------------
   37 O2    x      -1.7007     -0.0347     -0.6842
            y       0.0085     -1.1155     -0.0371
            z      -0.6574     -0.0568     -2.1975
-------------------------------------------------------------------------------
   38 O2    x      -1.7433      0.0054      0.7587
            y       0.0071     -1.1227     -0.0164
            z       0.7535     -0.0214     -2.2259
-------------------------------------------------------------------------------
   39 O2    x      -1.7309     -0.7189      0.3750
            y      -0.6681     -1.9307      0.3933
            z       0.3412      0.3702     -1.2758
-------------------------------------------------------------------------------
   40 O3    x      -2.1260     -0.9714     -0.3243
            y      -0.9502     -2.3271     -0.3708
            z      -0.3641     -0.3158     -1.4346
-------------------------------------------------------------------------------
   41 O2    x      -1.7399      0.7174      0.2665
            y       0.6866     -1.9523     -0.3210
            z       0.3098     -0.2925     -1.2272
-------------------------------------------------------------------------------
   42 O2    x      -1.8357      0.6439     -0.3848
            y       0.6354     -1.8159      0.3788
            z      -0.3569      0.3293     -1.2838
-------------------------------------------------------------------------------
   43 O2    x      -1.6563     -0.7133      0.3046
            y      -0.6129     -2.0084      0.3297
            z       0.3546      0.3278     -1.2374
-------------------------------------------------------------------------------
   44 O3    x      -1.9468     -0.8771     -0.4109
            y      -0.7572     -2.5905     -0.4212
            z      -0.4308     -0.3925     -1.3752
-------------------------------------------------------------------------------
   45 O2    x      -1.6242      0.6803      0.3554
            y       0.5669     -2.0474     -0.3920
            z       0.3517     -0.3648     -1.2443
-------------------------------------------------------------------------------
   46 O2    x      -1.6775      0.6513     -0.3269
            y       0.6049     -1.9065      0.3591
            z      -0.3711      0.3114     -1.2806
-------------------------------------------------------------------------------
   47 O2    x      -1.8105      0.0330     -0.5875
            y       0.0240     -1.1785      0.0227
            z      -0.3354      0.0139     -1.6949
-------------------------------------------------------------------------------
   48 O2    x      -1.7392     -0.0199      0.5536
            y       0.0045     -1.2055      0.0113
            z       0.2993     -0.0163     -1.7745
-------------------------------------------------------------------------------
   49 O3    x      -1.3676     -0.1615      0.0889
            y      -0.2074     -3.1836      0.0951
            z       0.1183      0.1125     -1.1846
-------------------------------------------------------------------------------
   50 O2    x      -1.1676     -0.0158     -0.0410
            y      -0.0604     -2.5765     -0.0198
            z      -0.0704      0.0186     -1.0756
-------------------------------------------------------------------------------
   51 O2    x      -1.1874      0.0383      0.0408
            y       0.0856     -2.6049      0.0297
            z       0.0654      0.0418     -1.0520
-------------------------------------------------------------------------------
   52 O2    x      -1.1653      0.0341     -0.0525
            y       0.0716     -2.5573      0.0020
            z      -0.0781     -0.0010     -1.0660
-------------------------------------------------------------------------------
   53 O3    x      -2.9757      0.0649      0.1972
            y      -0.0082     -1.3856      0.0974
            z       0.2190      0.0569     -1.2736
-------------------------------------------------------------------------------
   54 O2    x      -2.4356      0.1348      0.0328
            y       0.0823     -1.2347     -0.0619
            z       0.0280     -0.0315     -1.0957
-------------------------------------------------------------------------------
   55 O2    x      -2.4193     -0.0618     -0.0004
            y      -0.0232     -1.2372     -0.0677
            z       0.0169     -0.0375     -1.0723
-------------------------------------------------------------------------------
   56 O2    x      -2.3850     -0.0693      0.0368
            y      -0.0431     -1.2534      0.0705
            z       0.0311      0.0436     -1.0864
-------------------------------------------------------------------------------
   57 O1    x      -1.4371     -0.1722     -0.0815
            y      -0.1528     -1.5514      0.0139
            z      -0.0944      0.0385     -2.7449
-------------------------------------------------------------------------------
   58 O2    x      -1.2023     -0.1349      0.0102
            y      -0.1127     -1.2706      0.0051
            z       0.0173     -0.0021     -2.0729
-------------------------------------------------------------------------------
   59 O2    x      -1.2246      0.1387     -0.0400
            y       0.1191     -1.2755      0.0154
            z      -0.0430      0.0126     -2.0579
-------------------------------------------------------------------------------
   60 O2    x      -1.1764      0.1084      0.0689
            y       0.0983     -1.2887      0.0071
            z       0.0640      0.0252     -2.0962
-------------------------------------------------------------------------------
   61 O3    x      -1.3145     -0.1562     -0.0599
            y      -0.1004     -1.4828     -0.0832
            z      -0.0387     -0.0862     -2.5977
-------------------------------------------------------------------------------
   62 O2    x      -1.1773     -0.1374      0.0258
            y      -0.0848     -1.2802     -0.0045
            z       0.0072      0.0061     -2.0720
-------------------------------------------------------------------------------
   63 O2    x      -1.2239      0.1358     -0.0367
            y       0.0755     -1.2558     -0.0105
            z      -0.0244      0.0043     -2.0974
-------------------------------------------------------------------------------
   64 O2    x      -1.1866      0.0978     -0.0096
            y       0.0456     -1.3142      0.0213
            z      -0.0315      0.0024     -2.1111
-------------------------------------------------------------------------------
   65 O2    x      -1.2332      0.0769      0.0816
            y       0.1304     -2.4914     -0.0042
            z       0.1044     -0.0195     -1.0353
-------------------------------------------------------------------------------
   66 O3    x      -1.4168     -0.0470     -0.1008
            y       0.0205     -3.1318     -0.0850
            z      -0.1271     -0.0706     -1.1298
-------------------------------------------------------------------------------
   67 O2    x      -1.2347     -0.0271      0.0703
            y      -0.1056     -2.4935     -0.0259
            z       0.0943     -0.0256     -1.0297
-------------------------------------------------------------------------------
   68 O3    x      -1.4823     -0.2093     -0.1059
            y      -0.2802     -3.1185     -0.0876
            z      -0.1521     -0.1277     -1.1293
-------------------------------------------------------------------------------
   69 O2    x      -2.4554     -0.0618      0.0112
            y      -0.0146     -1.2268      0.0541
            z      -0.0039      0.0193     -1.0594
-------------------------------------------------------------------------------
   70 O3    x      -3.0137     -0.1577     -0.0902
            y      -0.1209     -1.3848     -0.1029
            z      -0.0986     -0.0569     -1.2270
-------------------------------------------------------------------------------
   71 O3    x      -3.0606      0.0892     -0.0934
            y       0.0371     -1.3743     -0.0842
            z      -0.1404     -0.0369     -1.2236
-------------------------------------------------------------------------------
   72 O2    x      -2.4547      0.1502      0.0227
            y       0.1024     -1.2368      0.0456
            z      -0.0005      0.0175     -1.0611
-------------------------------------------------------------------------------




  Elastic Constant Matrix: (Units=GPa)

-------------------------------------------------------------------------------
  Indices      1         2         3         4         5         6    
-------------------------------------------------------------------------------
       1     53.9658   28.6741   26.4655   -1.2784   -2.3509    0.0103
       2     28.6741   77.0791   25.9504   -2.1706   -0.6004    1.3198
       3     26.4655   25.9504   34.6620   -0.2334   -2.2397    1.8174
       4     -1.2784   -2.1706   -0.2334   12.0561    0.8284   -0.5946
       5     -2.3509   -0.6004   -2.2397    0.8284   24.5547   -0.1748
       6      0.0103    1.3198    1.8174   -0.5946   -0.1748   24.0749
-------------------------------------------------------------------------------


  Elastic Compliance Matrix: (Units=1/GPa)

-------------------------------------------------------------------------------
  Indices      1         2         3         4         5         6    
-------------------------------------------------------------------------------
       1    0.031019 -0.004712 -0.020176  0.002075  0.000957  0.001826
       2   -0.004712  0.018180 -0.010052  0.002640 -0.001014 -0.000178
       3   -0.020176 -0.010052  0.052111 -0.003293  0.002662 -0.003436
       4    0.002075  0.002640 -0.003293  0.083879 -0.002852  0.002154
       5    0.000957 -0.001014  0.002662 -0.002852  0.041132  0.000082
       6    0.001826 -0.000178 -0.003436  0.002154  0.000082  0.041859
-------------------------------------------------------------------------------

  Mechanical properties :

-------------------------------------------------------------------------------
  Convention :                    Reuss         Voigt         Hill
-------------------------------------------------------------------------------
  Bulk  Modulus (GPa)     =      31.81657      36.43188      34.12423
  Shear Modulus (GPa)     =      14.34571      17.77827      16.06199
-------------------------------------------------------------------------------
  Velocity S-wave (km/s)  =       2.70376       3.00990       2.86093
  Velocity P-wave (km/s)  =       5.09512       5.53574       5.32000
-------------------------------------------------------------------------------
  Compressibility (1/GPa) =    0.03143016
-------------------------------------------------------------------------------
  Stress axis :                     x             y             z
-------------------------------------------------------------------------------
  Youngs Moduli (GPa)     =      32.23816      55.00507      19.18998
-------------------------------------------------------------------------------
  Poissons Ratio (x)      =                     0.25918       0.38718
  Poissons Ratio (y)      =       0.15191                     0.19289
  Poissons Ratio (z)      =       0.65045       0.55289
-------------------------------------------------------------------------------


  Piezoelectric Strain Matrix: (Units=C/m**2)

-------------------------------------------------------------------------------
  Indices      1         2         3         4         5         6    
-------------------------------------------------------------------------------
       x     0.40807   1.02254   0.12518  -0.01047  -0.03969  -0.23037
       y    -0.81341  -0.58968   0.09843  -0.09088  -0.21819   0.13508
       z     0.06979   0.21825  -0.16938  -0.09513  -0.02833  -0.05844
-------------------------------------------------------------------------------


  Piezoelectric Stress Matrix: (Units=10**-11 C/N)

-------------------------------------------------------------------------------
  Indices      1         2         3         4         5         6    
-------------------------------------------------------------------------------
       x     0.48336   1.54624  -1.12679   0.18726  -0.19345  -0.95359
       y    -2.45893  -0.79198   2.67222  -1.02778  -0.86229   0.37218
       z     0.42227   0.51294  -1.19895  -0.67455  -0.15044  -0.19828
-------------------------------------------------------------------------------


  Static dielectric constant tensor : 

-------------------------------------------------------------------------------
              x         y         z
-------------------------------------------------------------------------------
       x     3.95942   0.08600   0.00884
       y     0.08600   4.18199  -0.02219
       z     0.00884  -0.02219   3.10862
--------------------------------------------------------------------------------

  High frequency dielectric constant tensor : 

-------------------------------------------------------------------------------
              x         y         z
-------------------------------------------------------------------------------
       x     1.68246   0.00009  -0.00108
       y     0.00009   1.68909   0.00010
       z    -0.00108   0.00010   1.62328
-------------------------------------------------------------------------------

  Static refractive indices : 

-------------------------------------------------------------------------------
    1 =    1.76296      2 =    1.98251      3 =    2.05223
-------------------------------------------------------------------------------

  High frequency refractive indices : 

-------------------------------------------------------------------------------
    1 =    1.27407      2 =    1.29711      3 =    1.29965
-------------------------------------------------------------------------------


  Time to end of optimisation =      10.6954 seconds


  Peak dynamic memory used =       5.01 MB 


  Timing analysis for GULP :

--------------------------------------------------------------------------------
  Task / Subroutine                                          Time (Seconds)
--------------------------------------------------------------------------------
  Calculation of reciprocal space energy and derivatives          0.6757
  Calculation of real space energy and derivatives                6.6870
  Calculation of three-body energy and derivatives                0.6468
  Calculation and manipulation of Hessian matrix                  3.5186
  Calculation of matrix inversion                                 0.0229
  Global summation overhead                                       0.0002
--------------------------------------------------------------------------------
  Total CPU time                                                 10.6955
--------------------------------------------------------------------------------


  Dump file written as c00244.vasp.grs
  CIF file written as c00244.vasp.cif


  Job Finished at 12:10.56  7th October    2025                               

