********************************************************************************
*                       GENERAL UTILITY LATTICE PROGRAM                        *
*                                 Julian Gale                                  *
*                       Curtin Institute for Computation                       *
*                    School of Molecular and Life Sciences                     *
*                    Curtin University, Western Australia                      *
********************************************************************************
* Version = 6.1.2 * Last modified =   3rd November 2022                        *
********************************************************************************
*  optimise     - perform optimisation run                                     *
*  conp         - constant pressure calculation                                *
*  property     - calculate properties for final geometry                      *
********************************************************************************

  Job Started  at 12:03.24  7th October    2025                               

  Number of CPUs =     1


  Total number of configurations input =      1

********************************************************************************
*  Input for Configuration =   1 : c00207.vasp                                 *
********************************************************************************

  Formula = Ge3Si21O48                                                  

  Number of irreducible atoms/shells =     120


  Total number atoms/shells =     120

  Dimensionality = 3               :  Bulk   



  Cartesian lattice vectors (Angstroms) :

       17.182800    0.000000    0.000000
        0.000000    7.513760    0.000000
        0.000000    0.000000   10.447700

  Cell parameters (Angstroms/Degrees):

  a =      17.1828    alpha =  90.0000
  b =       7.5138    beta  =  90.0000
  c =      10.4477    gamma =  90.0000

  Initial cell volume =        1348.875752 Angs**3

  Temperature of configuration =   0.00     K 

  Pressure of configuration =         0.000 GPa 

  Fractional coordinates of asymmetric unit :

--------------------------------------------------------------------------------
   No.  Atomic       x           y          z         Charge      Occupancy
        Label      (Frac)      (Frac)     (Frac)        (e)         (Frac)  
--------------------------------------------------------------------------------
      1 Ge    c    0.160190    0.293910    0.273440     4.00000    1.000000    
      2 Ge    c    0.839810 *  0.293910 *  0.726560 *   4.00000    1.000000    
      3 Ge    c    0.660190 *  0.293910 *  0.726560 *   4.00000    1.000000    
      4 Si    c    0.052090 *  0.000000 *  0.372270 *   4.00000    1.000000    
      5 Si    c    0.447910 *  0.000000 *  0.372270 *   4.00000    1.000000    
      6 Si    c    0.947910 *  0.000000 *  0.627730 *   4.00000    1.000000    
      7 Si    c    0.552090 *  0.000000 *  0.627730 *   4.00000    1.000000    
      8 Si    c    0.556730 *  0.000000 *  0.122130 *   4.00000    1.000000    
      9 Si    c    0.943270 *  0.000000 *  0.122130 *   4.00000    1.000000    
     10 Si    c    0.443270 *  0.000000 *  0.877870 *   4.00000    1.000000    
     11 Si    c    0.056730 *  0.000000 *  0.877870 *   4.00000    1.000000    
     12 Si    c    0.339810 *  0.706090 *  0.273440 *   4.00000    1.000000    
     13 Si    c    0.660190 *  0.706090 *  0.726560 *   4.00000    1.000000    
     14 Si    c    0.839810 *  0.706090 *  0.726560 *   4.00000    1.000000    
     15 Si    c    0.160190 *  0.706090 *  0.273440 *   4.00000    1.000000    
     16 Si    c    0.339810 *  0.293910 *  0.273440 *   4.00000    1.000000    
     17 Si    c    0.660660 *  0.294090 *  0.017440 *   4.00000    1.000000    
     18 Si    c    0.839340 *  0.705910 *  0.017440 *   4.00000    1.000000    
     19 Si    c    0.339340 *  0.294090 *  0.982560 *   4.00000    1.000000    
     20 Si    c    0.160660 *  0.705910 *  0.982560 *   4.00000    1.000000    
     21 Si    c    0.339340 *  0.705910 *  0.982560 *   4.00000    1.000000    
     22 Si    c    0.160660 *  0.294090 *  0.982560 *   4.00000    1.000000    
     23 Si    c    0.660660 *  0.705910 *  0.017440 *   4.00000    1.000000    
     24 Si    c    0.839340 *  0.294090 *  0.017440 *   4.00000    1.000000    
     25 O3    c    0.106570 *  0.174340 *  0.366200 *   1.33043    1.000000    
     26 O2    c    0.393430 *  0.825660 *  0.366200 *   0.87073    1.000000    
     27 O3    c    0.893430 *  0.174340 *  0.633800 *   1.33043    1.000000    
     28 O2    c    0.606570 *  0.825660 *  0.633800 *   0.87073    1.000000    
     29 O2    c    0.893430 *  0.825660 *  0.633800 *   0.87073    1.000000    
     30 O3    c    0.606570 *  0.174340 *  0.633800 *   1.33043    1.000000    
     31 O2    c    0.106570 *  0.825660 *  0.366200 *   0.87073    1.000000    
     32 O2    c    0.393430 *  0.174340 *  0.366200 *   0.87073    1.000000    
     33 O2    c    0.000000 *  0.000000 *  0.500000 *   0.87073    1.000000    
     34 O2    c    0.500000 *  0.000000 *  0.500000 *   0.87073    1.000000    
     35 O2    c    0.994520 *  0.000000 *  0.250840 *   0.87073    1.000000    
     36 O2    c    0.505480 *  0.000000 *  0.250840 *   0.87073    1.000000    
     37 O2    c    0.005480 *  0.000000 *  0.749160 *   0.87073    1.000000    
     38 O2    c    0.494520 *  0.000000 *  0.749160 *   0.87073    1.000000    
     39 O2    c    0.610230 *  0.175520 *  0.115390 *   0.87073    1.000000    
     40 O2    c    0.889770 *  0.824480 *  0.115390 *   0.87073    1.000000    
     41 O2    c    0.389770 *  0.175520 *  0.884610 *   0.87073    1.000000    
     42 O2    c    0.110230 *  0.824480 *  0.884610 *   0.87073    1.000000    
     43 O2    c    0.389770 *  0.824480 *  0.884610 *   0.87073    1.000000    
     44 O2    c    0.110230 *  0.175520 *  0.884610 *   0.87073    1.000000    
     45 O2    c    0.610230 *  0.824480 *  0.115390 *   0.87073    1.000000    
     46 O2    c    0.889770 *  0.175520 *  0.115390 *   0.87073    1.000000    
     47 O2    c    0.500000 *  0.000000 *  0.000000 *   0.87073    1.000000    
     48 O2    c    0.000000 *  0.000000 *  0.000000 *   0.87073    1.000000    
     49 O3    c    0.151750 *  0.500000 *  0.313330 *   1.33043    1.000000    
     50 O2    c    0.348250 *  0.500000 *  0.313330 *   0.87073    1.000000    
     51 O3    c    0.848250 *  0.500000 *  0.686670 *   1.33043    1.000000    
     52 O3    c    0.651750 *  0.500000 *  0.686670 *   1.33043    1.000000    
     53 O3    c    0.250000 *  0.234950 *  0.285720 *   1.33043    1.000000    
     54 O2    c    0.250000 *  0.765050 *  0.285720 *   0.87073    1.000000    
     55 O1    c    0.750000 *  0.234950 *  0.714280 *   1.73396    1.000000    
     56 O2    c    0.750000 *  0.765050 *  0.714280 *   0.87073    1.000000    
     57 O3    c    0.131410 *  0.268650 *  0.127790 *   1.33043    1.000000    
     58 O2    c    0.368590 *  0.731350 *  0.127790 *   0.87073    1.000000    
     59 O3    c    0.868590 *  0.268650 *  0.872210 *   1.33043    1.000000    
     60 O2    c    0.631410 *  0.731350 *  0.872210 *   0.87073    1.000000    
     61 O2    c    0.868590 *  0.731350 *  0.872210 *   0.87073    1.000000    
     62 O3    c    0.631410 *  0.268650 *  0.872210 *   1.33043    1.000000    
     63 O2    c    0.131410 *  0.731350 *  0.127790 *   0.87073    1.000000    
     64 O2    c    0.368590 *  0.268650 *  0.127790 *   0.87073    1.000000    
     65 O2    c    0.653920 *  0.500000 *  0.058200 *   0.87073    1.000000    
     66 O2    c    0.846080 *  0.500000 *  0.058200 *   0.87073    1.000000    
     67 O2    c    0.346080 *  0.500000 *  0.941800 *   0.87073    1.000000    
     68 O2    c    0.153920 *  0.500000 *  0.941800 *   0.87073    1.000000    
     69 O2    c    0.750000 *  0.231060 *  0.027050 *   0.87073    1.000000    
     70 O2    c    0.750000 *  0.768940 *  0.027050 *   0.87073    1.000000    
     71 O2    c    0.250000 *  0.231060 *  0.972950 *   0.87073    1.000000    
     72 O2    c    0.250000 *  0.768940 *  0.972950 *   0.87073    1.000000    
     73 O3    s    0.106570 *  0.174340 *  0.366200 *  -3.33043    1.000000    
     74 O2    s    0.393430 *  0.825660 *  0.366200 *  -2.87073    1.000000    
     75 O3    s    0.893430 *  0.174340 *  0.633800 *  -3.33043    1.000000    
     76 O2    s    0.606570 *  0.825660 *  0.633800 *  -2.87073    1.000000    
     77 O2    s    0.893430 *  0.825660 *  0.633800 *  -2.87073    1.000000    
     78 O3    s    0.606570 *  0.174340 *  0.633800 *  -3.33043    1.000000    
     79 O2    s    0.106570 *  0.825660 *  0.366200 *  -2.87073    1.000000    
     80 O2    s    0.393430 *  0.174340 *  0.366200 *  -2.87073    1.000000    
     81 O2    s    0.000000 *  0.000000 *  0.500000 *  -2.87073    1.000000    
     82 O2    s    0.500000 *  0.000000 *  0.500000 *  -2.87073    1.000000    
     83 O2    s    0.994520 *  0.000000 *  0.250840 *  -2.87073    1.000000    
     84 O2    s    0.505480 *  0.000000 *  0.250840 *  -2.87073    1.000000    
     85 O2    s    0.005480 *  0.000000 *  0.749160 *  -2.87073    1.000000    
     86 O2    s    0.494520 *  0.000000 *  0.749160 *  -2.87073    1.000000    
     87 O2    s    0.610230 *  0.175520 *  0.115390 *  -2.87073    1.000000    
     88 O2    s    0.889770 *  0.824480 *  0.115390 *  -2.87073    1.000000    
     89 O2    s    0.389770 *  0.175520 *  0.884610 *  -2.87073    1.000000    
     90 O2    s    0.110230 *  0.824480 *  0.884610 *  -2.87073    1.000000    
     91 O2    s    0.389770 *  0.824480 *  0.884610 *  -2.87073    1.000000    
     92 O2    s    0.110230 *  0.175520 *  0.884610 *  -2.87073    1.000000    
     93 O2    s    0.610230 *  0.824480 *  0.115390 *  -2.87073    1.000000    
     94 O2    s    0.889770 *  0.175520 *  0.115390 *  -2.87073    1.000000    
     95 O2    s    0.500000 *  0.000000 *  0.000000 *  -2.87073    1.000000    
     96 O2    s    0.000000 *  0.000000 *  0.000000 *  -2.87073    1.000000    
     97 O3    s    0.151750 *  0.500000 *  0.313330 *  -3.33043    1.000000    
     98 O2    s    0.348250 *  0.500000 *  0.313330 *  -2.87073    1.000000    
     99 O3    s    0.848250 *  0.500000 *  0.686670 *  -3.33043    1.000000    
    100 O3    s    0.651750 *  0.500000 *  0.686670 *  -3.33043    1.000000    
    101 O3    s    0.250000 *  0.234950 *  0.285720 *  -3.33043    1.000000    
    102 O2    s    0.250000 *  0.765050 *  0.285720 *  -2.87073    1.000000    
    103 O1    s    0.750000 *  0.234950 *  0.714280 *  -3.73396    1.000000    
    104 O2    s    0.750000 *  0.765050 *  0.714280 *  -2.87073    1.000000    
    105 O3    s    0.131410 *  0.268650 *  0.127790 *  -3.33043    1.000000    
    106 O2    s    0.368590 *  0.731350 *  0.127790 *  -2.87073    1.000000    
    107 O3    s    0.868590 *  0.268650 *  0.872210 *  -3.33043    1.000000    
    108 O2    s    0.631410 *  0.731350 *  0.872210 *  -2.87073    1.000000    
    109 O2    s    0.868590 *  0.731350 *  0.872210 *  -2.87073    1.000000    
    110 O3    s    0.631410 *  0.268650 *  0.872210 *  -3.33043    1.000000    
    111 O2    s    0.131410 *  0.731350 *  0.127790 *  -2.87073    1.000000    
    112 O2    s    0.368590 *  0.268650 *  0.127790 *  -2.87073    1.000000    
    113 O2    s    0.653920 *  0.500000 *  0.058200 *  -2.87073    1.000000    
    114 O2    s    0.846080 *  0.500000 *  0.058200 *  -2.87073    1.000000    
    115 O2    s    0.346080 *  0.500000 *  0.941800 *  -2.87073    1.000000    
    116 O2    s    0.153920 *  0.500000 *  0.941800 *  -2.87073    1.000000    
    117 O2    s    0.750000 *  0.231060 *  0.027050 *  -2.87073    1.000000    
    118 O2    s    0.750000 *  0.768940 *  0.027050 *  -2.87073    1.000000    
    119 O2    s    0.250000 *  0.231060 *  0.972950 *  -2.87073    1.000000    
    120 O2    s    0.250000 *  0.768940 *  0.972950 *  -2.87073    1.000000    
--------------------------------------------------------------------------------



********************************************************************************
*  General input information                                                   *
********************************************************************************

  Species output for all configurations : 

--------------------------------------------------------------------------------
  Species    Type    Atomic    Atomic    Charge       Radii (Angs)     Library
                     Number     Mass       (e)     Cova   Ionic  VDW   Symbol
--------------------------------------------------------------------------------
    Ge       Core       32      72.61   4.000000   1.170  0.000  1.750 Ge       
    Si       Core       14      28.09   4.000000   1.200  0.000  2.100 Si       
    O1       Core        8      16.00   1.733957   0.730  0.000  1.360 O1       
    O2       Core        8      16.00   0.870733   0.730  0.000  1.360 O2       
    O3       Core        8      16.00   1.330431   0.730  0.000  1.360 O3       
    O1       Shell       8       0.00  -3.733957   0.730  0.000  0.000 O1       
    O2       Shell       8       0.00  -2.870733   0.730  0.000  0.000 O2       
    O3       Shell       8       0.00  -3.330431   0.730  0.000  0.000 O3       
--------------------------------------------------------------------------------


  Lattice summation method               =    Ewald          (3-D)
                                         =    Parry          (2-D)
                                         =    Saunders et al (1-D)
  Accuracy factor for lattice sums       =   12.000


  Analytic derivatives to be used

  Time limit = Infinity

  Maximum range for interatomic potentials =    100000.000000 Angstroms

  General interatomic potentials :

--------------------------------------------------------------------------------
Atom  Types   Potential      Parameter       Value         Units   Cutoffs(Ang)
  1     2                                                            Min /  Max 
--------------------------------------------------------------------------------
Si   c O1   s Buckingham    Buckingham A     1315.2478    eV        0.000 16.000
                            Buckingham rho  0.31775900    Ang       
                            Buckingham C     10.141118    eV*Ang^6  
--------------------------------------------------------------------------------
Si   c O2   s Buckingham    Buckingham A     1315.2478    eV        0.000 16.000
                            Buckingham rho  0.31775900    Ang       
                            Buckingham C     10.141118    eV*Ang^6  
--------------------------------------------------------------------------------
Si   c O3   s Buckingham    Buckingham A     1315.2478    eV        0.000 16.000
                            Buckingham rho  0.31775900    Ang       
                            Buckingham C     10.141118    eV*Ang^6  
--------------------------------------------------------------------------------
Ge   c O1   s Buckingham    Buckingham A     1497.3996    eV        0.000 16.000
                            Buckingham rho  0.32564600    Ang       
                            Buckingham C     16.808599    eV*Ang^6  
--------------------------------------------------------------------------------
Ge   c O2   s Buckingham    Buckingham A     1497.3996    eV        0.000 16.000
                            Buckingham rho  0.32564600    Ang       
                            Buckingham C     16.808599    eV*Ang^6  
--------------------------------------------------------------------------------
Ge   c O3   s Buckingham    Buckingham A     1497.3996    eV        0.000 16.000
                            Buckingham rho  0.32564600    Ang       
                            Buckingham C     16.808599    eV*Ang^6  
--------------------------------------------------------------------------------
O1   s O1   s Buckingham    Buckingham A     22764.000    eV        0.000 16.000
                            Buckingham rho  0.14900000    Ang       
                            Buckingham C     10.937044    eV*Ang^6  
--------------------------------------------------------------------------------
O1   s O2   s Buckingham    Buckingham A     22764.000    eV        0.000 16.000
                            Buckingham rho  0.14900000    Ang       
                            Buckingham C     10.937044    eV*Ang^6  
--------------------------------------------------------------------------------
O1   s O3   s Buckingham    Buckingham A     22764.000    eV        0.000 16.000
                            Buckingham rho  0.14900000    Ang       
                            Buckingham C     10.937044    eV*Ang^6  
--------------------------------------------------------------------------------
O2   s O2   s Buckingham    Buckingham A     22764.000    eV        0.000 16.000
                            Buckingham rho  0.14900000    Ang       
                            Buckingham C     10.937044    eV*Ang^6  
--------------------------------------------------------------------------------
O2   s O3   s Buckingham    Buckingham A     22764.000    eV        0.000 16.000
                            Buckingham rho  0.14900000    Ang       
                            Buckingham C     10.937044    eV*Ang^6  
--------------------------------------------------------------------------------
O3   s O3   s Buckingham    Buckingham A     22764.000    eV        0.000 16.000
                            Buckingham rho  0.14900000    Ang       
                            Buckingham C     10.937044    eV*Ang^6  
--------------------------------------------------------------------------------
O1   c O1   s Spring (c-s)  Spring k 2       180.31577    eV*Ang^-2 0.000  0.800
                            Spring k 4       0.0000000    eV*Ang^-4 
--------------------------------------------------------------------------------
O2   c O2   s Spring (c-s)  Spring k 2       75.969800    eV*Ang^-2 0.000  0.800
                            Spring k 4       0.0000000    eV*Ang^-4 
--------------------------------------------------------------------------------
O3   c O3   s Spring (c-s)  Spring k 2       128.14270    eV*Ang^-2 0.000  0.800
                            Spring k 4       0.0000000    eV*Ang^-4 
--------------------------------------------------------------------------------

  General Three-body potentials :

--------------------------------------------------------------------------------
  Atoms       Potential      Parameter       Value         Units   Cutoffs(Ang)
  1 / 2 / 3                                                          Min /  Max 
--------------------------------------------------------------------------------
Si    core    Harmonic      Three-body cnst  1.2614000    eV*rad^-2 0.000  1.900
O1    shel                  Three-body angl  109.47000    degrees   0.000  1.900
O1    shel                  Three-body k4    0.0000000    eV*rad^-4 0.000  3.500
                            Three-body k3    0.0000000    eV*rad^-3 
--------------------------------------------------------------------------------
Si    core    Harmonic      Three-body cnst  1.2614000    eV*rad^-2 0.000  1.900
O1    shel                  Three-body angl  109.47000    degrees   0.000  1.900
õ(1   shel                  Three-body k4    0.0000000    eV*rad^-4 0.000  3.500
                            Three-body k3    0.0000000    eV*rad^-3 
--------------------------------------------------------------------------------
Si    core    Harmonic      Three-body cnst  1.2614000    eV*rad^-2 0.000  1.900
õ(1   shel                  Three-body angl  109.47000    degrees   0.000  1.900
õ(1   shel                  Three-body k4    0.0000000    eV*rad^-4 0.000  3.500
                            Three-body k3    0.0000000    eV*rad^-3 
--------------------------------------------------------------------------------
Si    core    Harmonic      Three-body cnst  1.2614000    eV*rad^-2 0.000  1.900
O1    shel                  Three-body angl  109.47000    degrees   0.000  1.900
O2    shel                  Three-body k4    0.0000000    eV*rad^-4 0.000  3.500
                            Three-body k3    0.0000000    eV*rad^-3 
--------------------------------------------------------------------------------
Si    core    Harmonic      Three-body cnst  1.2614000    eV*rad^-2 0.000  1.900
O1    shel                  Three-body angl  109.47000    degrees   0.000  1.900
õ(2   shel                  Three-body k4    0.0000000    eV*rad^-4 0.000  3.500
                            Three-body k3    0.0000000    eV*rad^-3 
--------------------------------------------------------------------------------
Si    core    Harmonic      Three-body cnst  1.2614000    eV*rad^-2 0.000  1.900
O2    shel                  Three-body angl  109.47000    degrees   0.000  1.900
õ(1   shel                  Three-body k4    0.0000000    eV*rad^-4 0.000  3.500
                            Three-body k3    0.0000000    eV*rad^-3 
--------------------------------------------------------------------------------
Si    core    Harmonic      Three-body cnst  1.2614000    eV*rad^-2 0.000  1.900
õ(1   shel                  Three-body angl  109.47000    degrees   0.000  1.900
õ(2   shel                  Three-body k4    0.0000000    eV*rad^-4 0.000  3.500
                            Three-body k3    0.0000000    eV*rad^-3 
--------------------------------------------------------------------------------
Si    core    Harmonic      Three-body cnst  1.2614000    eV*rad^-2 0.000  1.900
O2    shel                  Three-body angl  109.47000    degrees   0.000  1.900
O2    shel                  Three-body k4    0.0000000    eV*rad^-4 0.000  3.500
                            Three-body k3    0.0000000    eV*rad^-3 
--------------------------------------------------------------------------------
Si    core    Harmonic      Three-body cnst  1.2614000    eV*rad^-2 0.000  1.900
O2    shel                  Three-body angl  109.47000    degrees   0.000  1.900
õ(2   shel                  Three-body k4    0.0000000    eV*rad^-4 0.000  3.500
                            Three-body k3    0.0000000    eV*rad^-3 
--------------------------------------------------------------------------------
Si    core    Harmonic      Three-body cnst  1.2614000    eV*rad^-2 0.000  1.900
õ(2   shel                  Three-body angl  109.47000    degrees   0.000  1.900
õ(2   shel                  Three-body k4    0.0000000    eV*rad^-4 0.000  3.500
                            Three-body k3    0.0000000    eV*rad^-3 
--------------------------------------------------------------------------------

********************************************************************************
*  Output for configuration   1 : c00207.vasp                                  *
********************************************************************************


  Components of energy : 

--------------------------------------------------------------------------------
  Interatomic potentials     =         760.26453899 eV    
  Three-body potentials      =           0.01611804 eV    
  Monopole - monopole (real) =       -2676.00317478 eV    
  Monopole - monopole (recip)=       -1115.35404472 eV    
  Monopole - monopole (total)=       -3791.35721950 eV    
--------------------------------------------------------------------------------
  Total lattice energy       =       -3031.07656247 eV    
--------------------------------------------------------------------------------
  Total lattice energy       =         -292452.5540 kJ/(mole unit cells)
--------------------------------------------------------------------------------


  Number of variables =      363

  Maximum number of calculations  =          1000
  Maximum Hessian update interval =            10
  Maximum step size               =   0.100000000
  Maximum parameter tolerance     =   0.000010000
  Maximum function  tolerance     =   0.000010000
  Maximum gradient  tolerance     =   0.001000000
  Maximum gradient  component     =   0.010000000

  Symmetry not applied to optimisation

  Cell parameters to be optimised using strains

  Newton-Raphson optimiser to be used

  BFGS hessian update to be used

  Lower half triangular hessian to be used

  Minimiser to switch to RFO
  When gradient norm is less than     0.050000

  Dumpfile to be written after every cycle

  Start of bulk optimisation :

  Cycle:      0 Energy:     -3031.076562  Gnorm:      4.445213  CPU:    0.123
  ** Hessian calculated **
  Cycle:      1 Energy:     -3043.210956  Gnorm:      3.630287  CPU:    0.327
  ** Hessian calculated **
  Cycle:      2 Energy:     -3063.658765  Gnorm:      0.784768  CPU:    0.549
  ** Hessian calculated **
  Cycle:      3 Energy:     -3065.355918  Gnorm:      0.440022  CPU:    0.774
  Cycle:      4 Energy:     -3065.953607  Gnorm:      0.277163  CPU:    0.891
  Cycle:      5 Energy:     -3066.437038  Gnorm:      0.209447  CPU:    1.024
  Cycle:      6 Energy:     -3066.866147  Gnorm:      0.177626  CPU:    1.161
  Cycle:      7 Energy:     -3067.160715  Gnorm:      0.155061  CPU:    1.277
  Cycle:      8 Energy:     -3067.350950  Gnorm:      0.125724  CPU:    1.392
  Cycle:      9 Energy:     -3067.444736  Gnorm:      0.081090  CPU:    1.508
  Cycle:     10 Energy:     -3067.497276  Gnorm:      0.060329  CPU:    1.644
  Cycle:     11 Energy:     -3067.531209  Gnorm:      0.052797  CPU:    1.780
  Cycle:     12 Energy:     -3067.559246  Gnorm:      0.051806  CPU:    1.894
  ** Hessian calculated **
  Cycle:     13 Energy:     -3067.581629  Gnorm:      0.050906  CPU:    2.134
  Cycle:     14 Energy:     -3067.618882  Gnorm:      0.049332  CPU:    2.288
  ** Hessian has wrong structure
  ** Imaginary eigenvectors =   2
  Cycle:     15 Energy:     -3067.620413  Gnorm:      0.047496  CPU:    2.632
  ** Hessian has wrong structure
  ** Imaginary eigenvectors =   2
  ** Hessian has wrong structure
  ** Imaginary eigenvectors =   2
  Cycle:     16 Energy:     -3067.628384  Gnorm:      0.047198  CPU:    3.276
  ** Hessian has wrong structure
  ** Imaginary eigenvectors =   1
  ** Hessian has wrong structure
  ** Imaginary eigenvectors =   1
  Cycle:     17 Energy:     -3067.635914  Gnorm:      0.048572  CPU:    3.945
  ** Hessian has wrong structure
  ** Imaginary eigenvectors =   1
  ** Hessian has required structure
  Cycle:     18 Energy:     -3067.871801  Gnorm:      0.037652  CPU:    4.586
  ** Hessian has required structure
  Cycle:     19 Energy:     -3068.065684  Gnorm:      0.025503  CPU:    4.786
  ** Hessian has required structure
  Cycle:     20 Energy:     -3068.151004  Gnorm:      0.020247  CPU:    4.987
  ** Hessian has required structure
  Cycle:     21 Energy:     -3068.188442  Gnorm:      0.019006  CPU:    5.186
  ** Hessian has required structure
  Cycle:     22 Energy:     -3068.200499  Gnorm:      0.020002  CPU:    5.373
  ** Hessian has required structure
  Cycle:     23 Energy:     -3068.215532  Gnorm:      0.020587  CPU:    5.562
  ** Hessian has required structure
  Cycle:     24 Energy:     -3068.224944  Gnorm:      0.014078  CPU:    5.754
  ** Hessian has required structure
  Cycle:     25 Energy:     -3068.230776  Gnorm:      0.016772  CPU:    5.944
  ** Hessian has required structure
  Cycle:     26 Energy:     -3068.237051  Gnorm:      0.014342  CPU:    6.157
  ** Hessian has required structure
  Cycle:     27 Energy:     -3068.242588  Gnorm:      0.009528  CPU:    6.349
  ** Hessian has required structure
  Cycle:     28 Energy:     -3068.250029  Gnorm:      0.007302  CPU:    6.661
  ** Hessian has required structure
  Cycle:     29 Energy:     -3068.254460  Gnorm:      0.006516  CPU:    6.847
  ** Hessian has required structure
  Cycle:     30 Energy:     -3068.255692  Gnorm:      0.004171  CPU:    7.042
  ** Hessian has required structure
  Cycle:     31 Energy:     -3068.256202  Gnorm:      0.002592  CPU:    7.247
  ** Hessian has required structure
  Cycle:     32 Energy:     -3068.256384  Gnorm:      0.002238  CPU:    7.472
  ** Hessian has required structure
  Cycle:     33 Energy:     -3068.256526  Gnorm:      0.000973  CPU:    7.678
  ** Hessian has required structure
  Cycle:     34 Energy:     -3068.256572  Gnorm:      0.000611  CPU:    7.880
  ** Hessian has required structure
  Cycle:     35 Energy:     -3068.256592  Gnorm:      0.000385  CPU:    8.103
  ** Hessian has required structure
  Cycle:     36 Energy:     -3068.256602  Gnorm:      0.000223  CPU:    8.328
  ** Hessian has required structure
  Cycle:     37 Energy:     -3068.256607  Gnorm:      0.000181  CPU:    8.529
  ** Hessian has required structure
  Cycle:     38 Energy:     -3068.256614  Gnorm:      0.000117  CPU:    8.838
  ** Hessian has required structure
  Cycle:     39 Energy:     -3068.256616  Gnorm:      0.000097  CPU:    9.014
  ** Hessian has required structure


  **** Optimisation achieved ****


  Final energy =   -3068.25661774 eV      
  Final Gnorm  =       0.00008010

  Components of energy : 

--------------------------------------------------------------------------------
  Interatomic potentials     =         813.18939546 eV    
  Three-body potentials      =           0.18801878 eV    
  Monopole - monopole (real) =       -2207.18363189 eV    
  Monopole - monopole (recip)=       -1674.45040009 eV    
  Monopole - monopole (total)=       -3881.63403199 eV    
--------------------------------------------------------------------------------
  Total lattice energy       =       -3068.25661774 eV    
--------------------------------------------------------------------------------
  Total lattice energy       =         -296039.8610 kJ/(mole unit cells)
--------------------------------------------------------------------------------

  Final fractional coordinates of atoms :

--------------------------------------------------------------------------------
   No.  Atomic        x           y          z          Radius
        Label       (Frac)      (Frac)     (Frac)       (Angs) 
--------------------------------------------------------------------------------
     1  Ge    c     0.160190    0.293910    0.273440    0.000000
     2  Ge    c     0.855255    0.306451    0.694767    0.000000
     3  Ge    c     0.665413    0.281225    0.695612    0.000000
     4  Si    c     0.052904    0.986695    0.352807    0.000000
     5  Si    c     0.456030    0.977256    0.358196    0.000000
     6  Si    c     0.959498    0.001000    0.611947    0.000000
     7  Si    c     0.550262    0.992400    0.618782    0.000000
     8  Si    c     0.564228    0.973819    0.113969    0.000000
     9  Si    c     0.947265    0.978940    0.100546    0.000000
    10  Si    c     0.449234    0.988631    0.876316    0.000000
    11  Si    c     0.063270    0.992913    0.861890    0.000000
    12  Si    c     0.349813    0.678187    0.262874    0.000000
    13  Si    c     0.660490    0.692102    0.708633    0.000000
    14  Si    c     0.840634    0.714825    0.710366    0.000000
    15  Si    c     0.169653    0.703468    0.264055    0.000000
    16  Si    c     0.342667    0.275504    0.269607    0.000000
    17  Si    c     0.667640    0.265866    0.002009    0.000000
    18  Si    c     0.839542    0.684407    0.016828    0.000000
    19  Si    c     0.339153    0.280055    0.963393    0.000000
    20  Si    c     0.170710    0.698353    0.960232    0.000000
    21  Si    c     0.350842    0.675803    0.959535    0.000000
    22  Si    c     0.159685    0.299101    0.963291    0.000000
    23  Si    c     0.659640    0.664708    0.014092    0.000000
    24  Si    c     0.851825    0.289588    0.002004    0.000000
    25  O3    c     0.093570    0.173700    0.362235    0.000000
    26  O2    c     0.406003    0.800994    0.344193    0.000000
    27  O3    c     0.921989    0.191827    0.603649    0.000000
    28  O2    c     0.604614    0.821772    0.629880    0.000000
    29  O2    c     0.888637    0.868134    0.640672    0.000000
    30  O3    c     0.605567    0.158429    0.599405    0.000000
    31  O2    c     0.122225    0.844879    0.345142    0.000000
    32  O2    c     0.401382    0.147198    0.344502    0.000000
    33  O2    c     0.999810    0.948402    0.477858    0.000000
    34  O2    c     0.491369    0.972817    0.500868    0.000000
    35  O2    c     0.998230    0.972762    0.228271    0.000000
    36  O2    c     0.526651    0.985109    0.255711    0.000000
    37  O2    c     0.025142    0.986926    0.721632    0.000000
    38  O2    c     0.500129    0.014698    0.748990    0.000000
    39  O2    c     0.629084    0.125609    0.100824    0.000000
    40  O2    c     0.887915    0.815610    0.105042    0.000000
    41  O2    c     0.385563    0.142825    0.877732    0.000000
    42  O2    c     0.125553    0.835623    0.869494    0.000000
    43  O2    c     0.406425    0.800383    0.873139    0.000000
    44  O2    c     0.104881    0.180623    0.874726    0.000000
    45  O2    c     0.603237    0.783029    0.100516    0.000000
    46  O2    c     0.899111    0.159877    0.097436    0.000000
    47  O2    c     0.499647    0.005971    0.005351    0.000000
    48  O2    c     0.999672    0.961849    0.973130    0.000000
    49  O3    c     0.139821    0.511191    0.298033    0.000000
    50  O2    c     0.368647    0.475586    0.294510    0.000000
    51  O3    c     0.864592    0.527010    0.658769    0.000000
    52  O3    c     0.646811    0.498617    0.661580    0.000000
    53  O3    c     0.254980    0.248775    0.318598    0.000000
    54  O2    c     0.260657    0.718553    0.300939    0.000000
    55  O1    c     0.761736    0.242288    0.666006    0.000000
    56  O2    c     0.749662    0.749289    0.681567    0.000000
    57  O3    c     0.146816    0.243475    0.112093    0.000000
    58  O2    c     0.363507    0.720311    0.110504    0.000000
    59  O3    c     0.880397    0.266371    0.855695    0.000000
    60  O2    c     0.643140    0.705999    0.862797    0.000000
    61  O2    c     0.855132    0.722034    0.864895    0.000000
    62  O3    c     0.641953    0.231061    0.856089    0.000000
    63  O2    c     0.159481    0.746638    0.110780    0.000000
    64  O2    c     0.345632    0.235057    0.116255    0.000000
    65  O2    c     0.642334    0.460939    0.044736    0.000000
    66  O2    c     0.866182    0.486597    0.050913    0.000000
    67  O2    c     0.372953    0.474340    0.933720    0.000000
    68  O2    c     0.137729    0.502899    0.939224    0.000000
    69  O2    c     0.760504    0.246030    0.006923    0.000000
    70  O2    c     0.748564    0.709329    0.049008    0.000000
    71  O2    c     0.249276    0.270113    0.922330    0.000000
    72  O2    c     0.261333    0.708505    0.921249    0.000000
    73  O3    s     0.095035    0.164957    0.353967    0.000000
    74  O2    s     0.405079    0.806332    0.336431    0.000000
    75  O3    s     0.920342    0.182068    0.611774    0.000000
    76  O2    s     0.605039    0.825586    0.637670    0.000000
    77  O2    s     0.890840    0.864997    0.645615    0.000000
    78  O3    s     0.604930    0.151846    0.609235    0.000000
    79  O2    s     0.120132    0.844159    0.336795    0.000000
    80  O2    s     0.400702    0.143070    0.337522    0.000000
    81  O2    s     0.001297    0.958733    0.478787    0.000000
    82  O2    s     0.494089    0.975643    0.497895    0.000000
    83  O2    s     0.998393    0.975079    0.227174    0.000000
    84  O2    s     0.523097    0.982943    0.250899    0.000000
    85  O2    s     0.022221    0.989209    0.725729    0.000000
    86  O2    s     0.499693    0.009050    0.749608    0.000000
    87  O2    s     0.626369    0.124700    0.091371    0.000000
    88  O2    s     0.888875    0.818460    0.094676    0.000000
    89  O2    s     0.387185    0.141717    0.887418    0.000000
    90  O2    s     0.123948    0.837049    0.879010    0.000000
    91  O2    s     0.404813    0.806412    0.883022    0.000000
    92  O2    s     0.106444    0.173557    0.883133    0.000000
    93  O2    s     0.605323    0.790264    0.092334    0.000000
    94  O2    s     0.899106    0.154691    0.087339    0.000000
    95  O2    s     0.501286    0.000372    0.003108    0.000000
    96  O2    s     0.000966    0.967349    0.974956    0.000000
    97  O3    s     0.144566    0.513035    0.292547    0.000000
    98  O2    s     0.363897    0.476410    0.288488    0.000000
    99  O3    s     0.861431    0.528275    0.666849    0.000000
   100  O3    s     0.649781    0.501112    0.669307    0.000000
   101  O3    s     0.256113    0.255051    0.310096    0.000000
   102  O2    s     0.260603    0.712571    0.292886    0.000000
   103  O1    s     0.761503    0.250381    0.670554    0.000000
   104  O2    s     0.749912    0.739599    0.687567    0.000000
   105  O3    s     0.149183    0.253085    0.110155    0.000000
   106  O2    s     0.360692    0.711116    0.110675    0.000000
   107  O3    s     0.875545    0.271771    0.857820    0.000000
   108  O2    s     0.646741    0.700169    0.862937    0.000000
   109  O2    s     0.851851    0.717159    0.864975    0.000000
   110  O3    s     0.646409    0.238445    0.858189    0.000000
   111  O2    s     0.161771    0.736950    0.110729    0.000000
   112  O2    s     0.344612    0.244236    0.116024    0.000000
   113  O2    s     0.646817    0.462489    0.037048    0.000000
   114  O2    s     0.861831    0.486837    0.042159    0.000000
   115  O2    s     0.367075    0.475498    0.939582    0.000000
   116  O2    s     0.143486    0.502130    0.943949    0.000000
   117  O2    s     0.760307    0.253164    0.005825    0.000000
   118  O2    s     0.748818    0.701719    0.041691    0.000000
   119  O2    s     0.249467    0.274438    0.931273    0.000000
   120  O2    s     0.261208    0.703730    0.929715    0.000000
--------------------------------------------------------------------------------

  Final Cartesian lattice vectors (Angstroms) :

       17.167349   -0.000015    0.040925
        0.000600    7.648247    0.066273
        0.023460    0.090515   10.277838


  Final cell parameters and derivatives :

--------------------------------------------------------------------------------
       a           17.167398 Angstrom     dE/de1(xx)     0.008258 eV/strain
       b            7.648535 Angstrom     dE/de2(yy)     0.006096 eV/strain
       c           10.278264 Angstrom     dE/de3(zz)     0.005680 eV/strain
       alpha       88.998954 Degrees      dE/de4(yz)     0.000241 eV/strain
       beta        89.732641 Degrees      dE/de5(xz)    -0.000405 eV/strain
       gamma       89.994371 Degrees      dE/de6(xy)    -0.000432 eV/strain
--------------------------------------------------------------------------------

  Primitive cell volume =          1349.371229 Angs**3

  Density of cell =      1.939115 g/cm**3

  Non-primitive cell volume =          1349.371229 Angs**3


  Final internal derivatives :

--------------------------------------------------------------------------------
   No.  Atomic          a             b             c           Radius
        Label          (eV)          (eV)          (eV)        (eV/Angs)
--------------------------------------------------------------------------------
      1 Ge    c       0.000000      0.000000      0.000000      0.000000
      2 Ge    c       0.001626     -0.000268     -0.001776      0.000000
      3 Ge    c      -0.001866     -0.000499     -0.003603      0.000000
      4 Si    c      -0.000805      0.000303     -0.000363      0.000000
      5 Si    c       0.000791      0.000109      0.000590      0.000000
      6 Si    c      -0.000508      0.000243     -0.000481      0.000000
      7 Si    c       0.000853     -0.000206      0.000644      0.000000
      8 Si    c       0.001014      0.000244     -0.000641      0.000000
      9 Si    c      -0.000256     -0.000168      0.000091      0.000000
     10 Si    c       0.001901     -0.000206      0.000243      0.000000
     11 Si    c       0.000341      0.000298     -0.001299      0.000000
     12 Si    c      -0.000183     -0.000271     -0.000270      0.000000
     13 Si    c      -0.000356      0.000903      0.000737      0.000000
     14 Si    c       0.002405      0.001272      0.000603      0.000000
     15 Si    c       0.000046     -0.000589     -0.001082      0.000000
     16 Si    c      -0.000886     -0.000408     -0.001591      0.000000
     17 Si    c      -0.004150     -0.000527      0.002786      0.000000
     18 Si    c       0.000517      0.000080     -0.000535      0.000000
     19 Si    c      -0.001049     -0.000238      0.002179      0.000000
     20 Si    c      -0.000656      0.000350      0.001275      0.000000
     21 Si    c       0.000274      0.000125      0.000504      0.000000
     22 Si    c       0.000676     -0.000075      0.001797      0.000000
     23 Si    c       0.001116     -0.000541      0.000409      0.000000
     24 Si    c       0.002423      0.001280      0.001345      0.000000
     25 O3    c       0.000490      0.001221      0.001332      0.000000
     26 O2    c      -0.000132     -0.000242      0.000344      0.000000
     27 O3    c      -0.000228     -0.000104      0.000284      0.000000
     28 O2    c      -0.000510      0.000189     -0.000091      0.000000
     29 O2    c      -0.002090     -0.000694      0.000140      0.000000
     30 O3    c       0.000433      0.000057      0.000248      0.000000
     31 O2    c       0.001677     -0.000732      0.000679      0.000000
     32 O2    c      -0.000182      0.000295      0.000036      0.000000
     33 O2    c      -0.002347     -0.000411      0.001810      0.000000
     34 O2    c      -0.000087      0.000186     -0.000629      0.000000
     35 O2    c       0.000307      0.000137      0.000246      0.000000
     36 O2    c       0.000856      0.000062     -0.000578      0.000000
     37 O2    c       0.002048     -0.000148      0.000416      0.000000
     38 O2    c       0.001292      0.000046     -0.001070      0.000000
     39 O2    c      -0.000652     -0.000343     -0.000195      0.000000
     40 O2    c      -0.002328     -0.001439      0.000225      0.000000
     41 O2    c      -0.001128      0.000597     -0.000763      0.000000
     42 O2    c       0.001539     -0.000895     -0.000527      0.000000
     43 O2    c      -0.000962     -0.001012     -0.000533      0.000000
     44 O2    c       0.000200      0.000528     -0.000090      0.000000
     45 O2    c      -0.000375      0.000314     -0.000119      0.000000
     46 O2    c      -0.001312      0.000940      0.001697      0.000000
     47 O2    c       0.001012      0.000043      0.000845      0.000000
     48 O2    c      -0.002113     -0.000633     -0.000549      0.000000
     49 O3    c       0.000826      0.000298     -0.000787      0.000000
     50 O2    c      -0.000306      0.000936     -0.000611      0.000000
     51 O3    c       0.001843     -0.002183     -0.002651      0.000000
     52 O3    c      -0.001038      0.000449     -0.002118      0.000000
     53 O3    c      -0.000842      0.000894     -0.000716      0.000000
     54 O2    c       0.000037     -0.000114     -0.000233      0.000000
     55 O1    c       0.005180     -0.001288     -0.001343      0.000000
     56 O2    c      -0.004337      0.000560     -0.000729      0.000000
     57 O3    c       0.002803      0.000778     -0.001841      0.000000
     58 O2    c      -0.000675     -0.000164      0.000345      0.000000
     59 O3    c       0.006062     -0.000977     -0.002059      0.000000
     60 O2    c      -0.001059      0.000056     -0.000411      0.000000
     61 O2    c       0.000983     -0.000072      0.001051      0.000000
     62 O3    c      -0.008516     -0.001754      0.001904      0.000000
     63 O2    c       0.001002     -0.000349      0.000624      0.000000
     64 O2    c      -0.001750      0.000688      0.000032      0.000000
     65 O2    c      -0.001245      0.003118      0.001550      0.000000
     66 O2    c       0.000934     -0.000048      0.001665      0.000000
     67 O2    c      -0.000523     -0.000215      0.000121      0.000000
     68 O2    c       0.000646     -0.001464      0.000113      0.000000
     69 O2    c       0.002953     -0.001430     -0.002218      0.000000
     70 O2    c      -0.004446      0.000320      0.000429      0.000000
     71 O2    c      -0.000755      0.000356      0.000651      0.000000
     72 O2    c       0.000753      0.000005     -0.000097      0.000000
     73 O3    s       0.001511      0.000741     -0.000859      0.000000
     74 O2    s      -0.000872     -0.000496     -0.000131      0.000000
     75 O3    s      -0.000484      0.000337     -0.000745      0.000000
     76 O2    s       0.000037      0.000247     -0.000350      0.000000
     77 O2    s       0.000657      0.000907     -0.000634      0.000000
     78 O3    s      -0.001456     -0.000326     -0.000711      0.000000
     79 O2    s       0.001290     -0.000959     -0.000324      0.000000
     80 O2    s      -0.001261      0.000178     -0.000415      0.000000
     81 O2    s      -0.000598     -0.000102     -0.000319      0.000000
     82 O2    s       0.000195     -0.000057      0.000285      0.000000
     83 O2    s       0.000763     -0.000430      0.000457      0.000000
     84 O2    s       0.000145     -0.000148      0.000164      0.000000
     85 O2    s       0.000109      0.000426     -0.000496      0.000000
     86 O2    s       0.000196      0.000202     -0.000230      0.000000
     87 O2    s      -0.001926     -0.000972      0.001980      0.000000
     88 O2    s      -0.000162     -0.000284      0.001291      0.000000
     89 O2    s      -0.000704      0.000822      0.000539      0.000000
     90 O2    s       0.001103     -0.000396      0.000348      0.000000
     91 O2    s      -0.000730     -0.000668      0.000249      0.000000
     92 O2    s       0.001827      0.001115      0.000384      0.000000
     93 O2    s      -0.000409      0.000177      0.000629      0.000000
     94 O2    s      -0.000066      0.000377      0.002010      0.000000
     95 O2    s       0.000553     -0.000089      0.000294      0.000000
     96 O2    s       0.002895      0.000307     -0.000306      0.000000
     97 O3    s       0.002081      0.000117     -0.001295      0.000000
     98 O2    s      -0.002183     -0.000236     -0.001555      0.000000
     99 O3    s       0.001614     -0.000051     -0.001063      0.000000
    100 O3    s      -0.001997      0.000212     -0.001606      0.000000
    101 O3    s       0.001436      0.000514     -0.001220      0.000000
    102 O2    s       0.000258     -0.001455     -0.001776      0.000000
    103 O1    s      -0.001191     -0.000752      0.000954      0.000000
    104 O2    s      -0.000779      0.001755     -0.001723      0.000000
    105 O3    s       0.000168      0.000771      0.000123      0.000000
    106 O2    s      -0.001929     -0.000898      0.000300      0.000000
    107 O3    s       0.002434      0.000206     -0.002147      0.000000
    108 O2    s      -0.001841      0.001025      0.000424      0.000000
    109 O2    s       0.003791      0.001149     -0.000174      0.000000
    110 O3    s      -0.003197     -0.000846     -0.003962      0.000000
    111 O2    s       0.001983     -0.000822      0.000319      0.000000
    112 O2    s      -0.002410      0.000747     -0.000186      0.000000
    113 O2    s      -0.005341      0.000504      0.002384      0.000000
    114 O2    s       0.005155      0.000463      0.001841      0.000000
    115 O2    s      -0.002020     -0.000122      0.001610      0.000000
    116 O2    s       0.002168     -0.000243      0.001326      0.000000
    117 O2    s       0.000542     -0.002633      0.003402      0.000000
    118 O2    s      -0.000775      0.001372      0.001681      0.000000
    119 O2    s      -0.000243      0.001122      0.001792      0.000000
    120 O2    s       0.000273     -0.000753      0.001475      0.000000
--------------------------------------------------------------------------------
  Maximum abs         0.008516      0.003118      0.003962      0.000000
--------------------------------------------------------------------------------


  Born effective charge tensors : 

-------------------------------------------------------------------------------
  Atom             x           y             z
-------------------------------------------------------------------------------
    1 Ge    x       3.9566      0.2903     -0.0993
            y       0.3583      4.1844     -0.2246
            z      -0.1729     -0.0578      3.4350
-------------------------------------------------------------------------------
    2 Ge    x       4.0190     -0.1869     -0.1477
            y      -0.3836      4.2292      0.2104
            z      -0.0473      0.1436      3.4662
-------------------------------------------------------------------------------
    3 Ge    x       4.0548      0.2583      0.1998
            y       0.2874      4.2048      0.2135
            z       0.0427      0.1101      3.4661
-------------------------------------------------------------------------------
    4 Si    x       3.5710      0.3059     -0.0708
            y       0.0075      3.4684      0.1004
            z      -0.5072     -0.0994      3.8156
-------------------------------------------------------------------------------
    5 Si    x       3.4084      0.0260      0.2723
            y      -0.0406      3.2620      0.0346
            z       0.2838      0.0108      3.8188
-------------------------------------------------------------------------------
    6 Si    x       3.5579     -0.3276     -0.2220
            y       0.0127      3.4541     -0.0788
            z      -0.3415      0.2221      3.8422
-------------------------------------------------------------------------------
    7 Si    x       3.6037      0.1340      0.0560
            y       0.1929      3.4297     -0.0817
            z       0.5868      0.1255      3.8509
-------------------------------------------------------------------------------
    8 Si    x       3.4954     -0.1557     -0.2768
            y       0.1149      3.2559      0.0015
            z      -0.4061      0.0461      3.1334
-------------------------------------------------------------------------------
    9 Si    x       3.5203     -0.0362      0.1182
            y       0.0775      3.2514     -0.0159
            z       0.5208      0.0200      3.0787
-------------------------------------------------------------------------------
   10 Si    x       3.4900      0.1318     -0.0954
            y      -0.1122      3.2741      0.0090
            z      -0.5322     -0.0754      3.0829
-------------------------------------------------------------------------------
   11 Si    x       3.5110      0.0876      0.2206
            y      -0.1120      3.2702      0.0156
            z       0.4096     -0.0036      3.1363
-------------------------------------------------------------------------------
   12 Si    x       3.1887      0.2356      0.0872
            y       0.2402      3.4251      0.1695
            z       0.1122      0.0871      2.8287
-------------------------------------------------------------------------------
   13 Si    x       3.2903     -0.1371      0.1593
            y      -0.1817      3.7298      0.0229
            z       0.1180     -0.0120      2.9441
-------------------------------------------------------------------------------
   14 Si    x       3.2879      0.2065     -0.1510
            y       0.0800      3.7524      0.0576
            z      -0.1092     -0.0464      2.9290
-------------------------------------------------------------------------------
   15 Si    x       3.2844     -0.2409     -0.1383
            y      -0.0450      3.7561      0.0670
            z      -0.1365      0.0104      2.8833
-------------------------------------------------------------------------------
   16 Si    x       3.5370     -0.2416     -0.0237
            y      -0.1936      3.5404     -0.1759
            z       0.0653     -0.0966      2.8957
-------------------------------------------------------------------------------
   17 Si    x       3.3375      0.3400     -0.1713
            y       0.1736      3.5499     -0.0664
            z       0.0384     -0.0458      3.0048
-------------------------------------------------------------------------------
   18 Si    x       3.2979      0.2719      0.1778
            y       0.1774      3.4051      0.1400
            z       0.1016      0.0995      2.7151
-------------------------------------------------------------------------------
   19 Si    x       3.2065     -0.3377     -0.1233
            y      -0.1224      3.4502      0.1766
            z      -0.1254      0.0862      2.7207
-------------------------------------------------------------------------------
   20 Si    x       3.2474     -0.3309      0.1626
            y      -0.1314      3.4297     -0.1760
            z       0.1343     -0.0539      2.7173
-------------------------------------------------------------------------------
   21 Si    x       3.2643      0.2824     -0.1135
            y       0.2423      3.4123     -0.1680
            z      -0.1242     -0.0481      2.7075
-------------------------------------------------------------------------------
   22 Si    x       3.3300      0.3084      0.0971
            y       0.2641      3.5206      0.1170
            z       0.1303     -0.0153      3.0103
-------------------------------------------------------------------------------
   23 Si    x       3.3036     -0.2154     -0.1469
            y      -0.2657      3.4126      0.1583
            z      -0.1238      0.0867      2.7221
-------------------------------------------------------------------------------
   24 Si    x       3.3710     -0.2826      0.1344
            y      -0.2693      3.4949     -0.0660
            z      -0.0347     -0.0733      2.9826
-------------------------------------------------------------------------------
   25 O3    x      -1.9650     -0.9276      0.3256
            y      -0.9142     -2.5136      0.2993
            z       0.4261      0.3111     -1.5263
-------------------------------------------------------------------------------
   26 O2    x      -1.6774     -0.7262     -0.3534
            y      -0.7010     -1.9911     -0.3726
            z      -0.3622     -0.3697     -1.3643
-------------------------------------------------------------------------------
   27 O3    x      -1.9060      0.8800      0.3733
            y       0.8671     -2.5293     -0.3184
            z       0.3924     -0.3434     -1.5511
-------------------------------------------------------------------------------
   28 O2    x      -1.7542      0.6978     -0.3242
            y       0.7111     -1.8974      0.3304
            z      -0.3765      0.3044     -1.3655
-------------------------------------------------------------------------------
   29 O2    x      -1.8403     -0.6844      0.3698
            y      -0.7344     -1.8691      0.3498
            z       0.3793      0.3215     -1.3507
-------------------------------------------------------------------------------
   30 O3    x      -2.0512     -0.9308     -0.3132
            y      -0.9936     -2.3756     -0.2930
            z      -0.3840     -0.3037     -1.5679
-------------------------------------------------------------------------------
   31 O2    x      -1.8073      0.6726      0.3146
            y       0.7277     -1.8586     -0.3427
            z       0.3698     -0.3018     -1.3611
-------------------------------------------------------------------------------
   32 O2    x      -1.7107      0.7359     -0.3308
            y       0.7428     -2.0068      0.3368
            z      -0.3480      0.3337     -1.3371
-------------------------------------------------------------------------------
   33 O2    x      -1.5592      0.0279      0.7420
            y       0.0077     -1.1069     -0.0386
            z       0.9299     -0.0867     -2.6991
-------------------------------------------------------------------------------
   34 O2    x      -1.5978     -0.0249     -0.7978
            y      -0.0171     -1.0867     -0.0223
            z      -0.9773     -0.0548     -2.7598
-------------------------------------------------------------------------------
   35 O2    x      -1.7321     -0.0102     -0.7482
            y       0.0043     -1.1156     -0.0154
            z      -0.7412     -0.0033     -2.2485
-------------------------------------------------------------------------------
   36 O2    x      -1.7483      0.0293      0.7124
            y      -0.0028     -1.1040     -0.0301
            z       0.7084     -0.0423     -2.2022
-------------------------------------------------------------------------------
   37 O2    x      -1.7067     -0.0032     -0.7081
            y      -0.0042     -1.1043     -0.0024
            z      -0.7043     -0.0307     -2.2603
-------------------------------------------------------------------------------
   38 O2    x      -1.6759     -0.0188      0.7200
            y       0.0131     -1.1366     -0.0156
            z       0.6950     -0.0104     -2.2774
-------------------------------------------------------------------------------
   39 O2    x      -1.7205     -0.6995      0.3629
            y      -0.6593     -1.9542      0.3858
            z       0.3076      0.3528     -1.2677
-------------------------------------------------------------------------------
   40 O2    x      -1.7554     -0.7401     -0.3039
            y      -0.6993     -1.9516     -0.3174
            z      -0.3334     -0.3221     -1.2381
-------------------------------------------------------------------------------
   41 O2    x      -1.7448      0.7314      0.2948
            y       0.7024     -1.9571     -0.3430
            z       0.3416     -0.3214     -1.2277
-------------------------------------------------------------------------------
   42 O2    x      -1.7423      0.7403     -0.3496
            y       0.6836     -1.9467      0.3625
            z      -0.3413      0.3444     -1.2578
-------------------------------------------------------------------------------
   43 O2    x      -1.6697     -0.7182      0.2888
            y      -0.6333     -2.0200      0.3027
            z       0.3386      0.3050     -1.2217
-------------------------------------------------------------------------------
   44 O2    x      -1.6782     -0.7130     -0.3493
            y      -0.6216     -2.0277     -0.3676
            z      -0.3632     -0.3566     -1.2478
-------------------------------------------------------------------------------
   45 O2    x      -1.6756      0.7148      0.3758
            y       0.6154     -2.0252     -0.3784
            z       0.3599     -0.3684     -1.2551
-------------------------------------------------------------------------------
   46 O2    x      -1.6629      0.7028     -0.3081
            y       0.6281     -2.0191      0.3396
            z      -0.3147      0.3317     -1.2346
-------------------------------------------------------------------------------
   47 O2    x      -1.8413      0.0288     -0.6413
            y       0.0177     -1.1683      0.0184
            z      -0.3690      0.0213     -1.7194
-------------------------------------------------------------------------------
   48 O2    x      -1.8586     -0.0315      0.6521
            y      -0.0124     -1.1638      0.0189
            z       0.3797      0.0186     -1.7197
-------------------------------------------------------------------------------
   49 O3    x      -1.3379     -0.1424      0.0942
            y      -0.1746     -3.1827      0.0990
            z       0.1158      0.0954     -1.2068
-------------------------------------------------------------------------------
   50 O2    x      -1.1528     -0.0012     -0.0548
            y      -0.0282     -2.5786      0.0128
            z      -0.0722      0.0199     -1.0838
-------------------------------------------------------------------------------
   51 O3    x      -1.2990      0.1807      0.1209
            y       0.2128     -3.1634     -0.1955
            z       0.1093     -0.1768     -1.2836
-------------------------------------------------------------------------------
   52 O3    x      -1.2709     -0.0550     -0.1040
            y      -0.0022     -3.2128     -0.1863
            z      -0.0835     -0.1705     -1.2635
-------------------------------------------------------------------------------
   53 O3    x      -2.9942      0.0365      0.1062
            y      -0.0180     -1.3833      0.0964
            z       0.1258      0.0632     -1.2495
-------------------------------------------------------------------------------
   54 O2    x      -2.4148      0.1128     -0.0017
            y       0.0700     -1.2377     -0.0616
            z       0.0028     -0.0396     -1.0857
-------------------------------------------------------------------------------
   55 O1    x      -3.2262     -0.1032      0.0016
            y      -0.0492     -1.5134     -0.0926
            z       0.0055     -0.0816     -1.2676
-------------------------------------------------------------------------------
   56 O2    x      -2.4520     -0.0751     -0.0139
            y      -0.0389     -1.2415      0.0442
            z      -0.0110      0.0521     -1.0840
-------------------------------------------------------------------------------
   57 O3    x      -1.3371     -0.1577      0.0211
            y      -0.1426     -1.4506      0.0905
            z      -0.0030      0.0656     -2.6050
-------------------------------------------------------------------------------
   58 O2    x      -1.1948     -0.1281      0.0154
            y      -0.1138     -1.2678     -0.0143
            z       0.0266     -0.0108     -2.0685
-------------------------------------------------------------------------------
   59 O3    x      -1.4075      0.1541      0.1501
            y       0.1689     -1.4096     -0.0300
            z       0.0724      0.0124     -2.5779
-------------------------------------------------------------------------------
   60 O2    x      -1.2256      0.1000      0.0210
            y       0.1104     -1.2519      0.0784
            z       0.0296      0.0821     -2.1041
-------------------------------------------------------------------------------
   61 O2    x      -1.2117     -0.1099     -0.0131
            y      -0.0861     -1.2558      0.0903
            z      -0.0271      0.0844     -2.1003
-------------------------------------------------------------------------------
   62 O3    x      -1.3804     -0.1709     -0.1474
            y      -0.1552     -1.4349     -0.0683
            z      -0.0722     -0.0111     -2.5742
-------------------------------------------------------------------------------
   63 O2    x      -1.1979      0.1301     -0.0191
            y       0.0869     -1.2709     -0.0550
            z      -0.0222     -0.0424     -2.0711
-------------------------------------------------------------------------------
   64 O2    x      -1.1688      0.1138     -0.0334
            y       0.0747     -1.2943      0.0120
            z      -0.0316     -0.0054     -2.0889
-------------------------------------------------------------------------------
   65 O2    x      -1.2248      0.0094      0.0948
            y       0.0726     -2.5454     -0.0394
            z       0.0777     -0.0095     -1.0325
-------------------------------------------------------------------------------
   66 O2    x      -1.2259      0.0679     -0.0967
            y       0.0961     -2.5035     -0.0521
            z      -0.0772     -0.0107     -1.0431
-------------------------------------------------------------------------------
   67 O2    x      -1.2284     -0.0353      0.0762
            y      -0.0958     -2.5047      0.0051
            z       0.0955     -0.0087     -1.0188
-------------------------------------------------------------------------------
   68 O2    x      -1.2483     -0.0452     -0.0739
            y      -0.0891     -2.5352     -0.0264
            z      -0.0970     -0.0356     -1.0093
-------------------------------------------------------------------------------
   69 O2    x      -2.5194     -0.0737      0.0029
            y      -0.0432     -1.2859      0.0280
            z      -0.0074      0.0311     -0.9906
-------------------------------------------------------------------------------
   70 O2    x      -2.4691     -0.0603     -0.0153
            y      -0.0316     -1.2322     -0.0588
            z       0.0011     -0.0481     -1.0329
-------------------------------------------------------------------------------
   71 O2    x      -2.4229      0.0629     -0.0375
            y       0.0287     -1.2479     -0.0630
            z      -0.0440     -0.0345     -1.0433
-------------------------------------------------------------------------------
   72 O2    x      -2.4425      0.0706     -0.0031
            y       0.0485     -1.2301      0.0589
            z      -0.0100      0.0290     -1.0415
-------------------------------------------------------------------------------




  Elastic Constant Matrix: (Units=GPa)

-------------------------------------------------------------------------------
  Indices      1         2         3         4         5         6    
-------------------------------------------------------------------------------
       1     54.1786   34.1777   23.2967    3.4133    8.9614   -2.3541
       2     34.1777   76.6590   21.2369    0.0085   11.9035    0.0417
       3     23.2967   21.2369   37.3998    2.9175    3.2065   -5.1467
       4      3.4133    0.0085    2.9175    9.6480    0.6190    0.2771
       5      8.9614   11.9035    3.2065    0.6190   21.7290    2.5999
       6     -2.3541    0.0417   -5.1467    0.2771    2.5999   19.3914
-------------------------------------------------------------------------------


  Elastic Compliance Matrix: (Units=1/GPa)

-------------------------------------------------------------------------------
  Indices      1         2         3         4         5         6    
-------------------------------------------------------------------------------
       1    0.031522 -0.009550 -0.013003 -0.006876 -0.005806  0.001273
       2   -0.009550  0.019740 -0.005435  0.005444 -0.005999 -0.001918
       3   -0.013003 -0.005435  0.039600 -0.007730  0.001660  0.008831
       4   -0.006876  0.005444 -0.007730  0.108637 -0.001594 -0.004237
       5   -0.005806 -0.005999  0.001660 -0.001594  0.052370 -0.007250
       6    0.001273 -0.001918  0.008831 -0.004237 -0.007250  0.055104
-------------------------------------------------------------------------------

  Mechanical properties :

-------------------------------------------------------------------------------
  Convention :                    Reuss         Voigt         Hill
-------------------------------------------------------------------------------
  Bulk  Modulus (GPa)     =      28.66453      36.18444      32.42449
  Shear Modulus (GPa)     =      13.34834      16.12211      14.73523
-------------------------------------------------------------------------------
  Velocity S-wave (km/s)  =       2.62369       2.88343       2.75662
  Velocity P-wave (km/s)  =       4.89495       5.45397       5.18201
-------------------------------------------------------------------------------
  Compressibility (1/GPa) =    0.03488632
-------------------------------------------------------------------------------
  Stress axis :                     x             y             z
-------------------------------------------------------------------------------
  Youngs Moduli (GPa)     =      31.72379      50.65853      25.25252
-------------------------------------------------------------------------------
  Poissons Ratio (x)      =                     0.48378       0.32837
  Poissons Ratio (y)      =       0.30296                     0.13724
  Poissons Ratio (z)      =       0.41252       0.27531
-------------------------------------------------------------------------------


  Piezoelectric Strain Matrix: (Units=C/m**2)

-------------------------------------------------------------------------------
  Indices      1         2         3         4         5         6    
-------------------------------------------------------------------------------
       x    -0.25739  -0.15923  -0.49088   0.11907  -0.01058  -0.75902
       y    -0.36724   0.15545  -0.29666  -0.17289  -0.06946   0.16343
       z    -0.50103   0.38976  -0.16844  -0.08364  -0.59941   0.04679
-------------------------------------------------------------------------------


  Piezoelectric Stress Matrix: (Units=10**-11 C/N)

-------------------------------------------------------------------------------
  Indices      1         2         3         4         5         6    
-------------------------------------------------------------------------------
       x    -0.19330   0.41499  -2.28676   2.08651   0.63940  -4.66105
       y    -0.74031   0.73500  -0.51529  -1.36996  -0.38397   0.68563
       z    -1.32103   1.64447  -0.22087  -0.14604  -3.13057   0.44057
-------------------------------------------------------------------------------


  Static dielectric constant tensor : 

-------------------------------------------------------------------------------
              x         y         z
-------------------------------------------------------------------------------
       x     3.88781   0.03081   0.00812
       y     0.03081   4.10587   0.03654
       z     0.00812   0.03654   3.20754
--------------------------------------------------------------------------------

  High frequency dielectric constant tensor : 

-------------------------------------------------------------------------------
              x         y         z
-------------------------------------------------------------------------------
       x     1.67443  -0.00022   0.00083
       y    -0.00022   1.68127   0.00180
       z     0.00083   0.00180   1.61664
-------------------------------------------------------------------------------

  Static refractive indices : 

-------------------------------------------------------------------------------
    1 =    1.79053      2 =    1.97067      3 =    2.02773
-------------------------------------------------------------------------------

  High frequency refractive indices : 

-------------------------------------------------------------------------------
    1 =    1.27145      2 =    1.29400      3 =    1.29666
-------------------------------------------------------------------------------


  Time to end of optimisation =       9.4190 seconds


  Peak dynamic memory used =       5.01 MB 


  Timing analysis for GULP :

--------------------------------------------------------------------------------
  Task / Subroutine                                          Time (Seconds)
--------------------------------------------------------------------------------
  Calculation of reciprocal space energy and derivatives          0.6088
  Calculation of real space energy and derivatives                6.0612
  Calculation of three-body energy and derivatives                0.6001
  Calculation and manipulation of Hessian matrix                  2.7393
  Calculation of matrix inversion                                 0.0333
  Global summation overhead                                       0.0001
--------------------------------------------------------------------------------
  Total CPU time                                                  9.4190
--------------------------------------------------------------------------------


  Dump file written as c00207.vasp.grs
  CIF file written as c00207.vasp.cif


  Job Finished at 12:03.34  7th October    2025                               

