********************************************************************************
*                       GENERAL UTILITY LATTICE PROGRAM                        *
*                                 Julian Gale                                  *
*                       Curtin Institute for Computation                       *
*                    School of Molecular and Life Sciences                     *
*                    Curtin University, Western Australia                      *
********************************************************************************
* Version = 6.1.2 * Last modified =   3rd November 2022                        *
********************************************************************************
*  optimise     - perform optimisation run                                     *
*  conp         - constant pressure calculation                                *
*  property     - calculate properties for final geometry                      *
********************************************************************************

  Job Started  at 12:04.30  7th October    2025                               

  Number of CPUs =     1


  Total number of configurations input =      1

********************************************************************************
*  Input for Configuration =   1 : c00213.vasp                                 *
********************************************************************************

  Formula = Ge3Si21O48                                                  

  Number of irreducible atoms/shells =     120


  Total number atoms/shells =     120

  Dimensionality = 3               :  Bulk   



  Cartesian lattice vectors (Angstroms) :

       17.182800    0.000000    0.000000
        0.000000    7.513760    0.000000
        0.000000    0.000000   10.447700

  Cell parameters (Angstroms/Degrees):

  a =      17.1828    alpha =  90.0000
  b =       7.5138    beta  =  90.0000
  c =      10.4477    gamma =  90.0000

  Initial cell volume =        1348.875752 Angs**3

  Temperature of configuration =   0.00     K 

  Pressure of configuration =         0.000 GPa 

  Fractional coordinates of asymmetric unit :

--------------------------------------------------------------------------------
   No.  Atomic       x           y          z         Charge      Occupancy
        Label      (Frac)      (Frac)     (Frac)        (e)         (Frac)  
--------------------------------------------------------------------------------
      1 Ge    c    0.160190    0.293910    0.273440     4.00000    1.000000    
      2 Ge    c    0.660190 *  0.706090 *  0.726560 *   4.00000    1.000000    
      3 Ge    c    0.660190 *  0.293910 *  0.726560 *   4.00000    1.000000    
      4 Si    c    0.052090 *  0.000000 *  0.372270 *   4.00000    1.000000    
      5 Si    c    0.447910 *  0.000000 *  0.372270 *   4.00000    1.000000    
      6 Si    c    0.947910 *  0.000000 *  0.627730 *   4.00000    1.000000    
      7 Si    c    0.552090 *  0.000000 *  0.627730 *   4.00000    1.000000    
      8 Si    c    0.556730 *  0.000000 *  0.122130 *   4.00000    1.000000    
      9 Si    c    0.943270 *  0.000000 *  0.122130 *   4.00000    1.000000    
     10 Si    c    0.443270 *  0.000000 *  0.877870 *   4.00000    1.000000    
     11 Si    c    0.056730 *  0.000000 *  0.877870 *   4.00000    1.000000    
     12 Si    c    0.339810 *  0.706090 *  0.273440 *   4.00000    1.000000    
     13 Si    c    0.839810 *  0.293910 *  0.726560 *   4.00000    1.000000    
     14 Si    c    0.839810 *  0.706090 *  0.726560 *   4.00000    1.000000    
     15 Si    c    0.160190 *  0.706090 *  0.273440 *   4.00000    1.000000    
     16 Si    c    0.339810 *  0.293910 *  0.273440 *   4.00000    1.000000    
     17 Si    c    0.660660 *  0.294090 *  0.017440 *   4.00000    1.000000    
     18 Si    c    0.839340 *  0.705910 *  0.017440 *   4.00000    1.000000    
     19 Si    c    0.339340 *  0.294090 *  0.982560 *   4.00000    1.000000    
     20 Si    c    0.160660 *  0.705910 *  0.982560 *   4.00000    1.000000    
     21 Si    c    0.339340 *  0.705910 *  0.982560 *   4.00000    1.000000    
     22 Si    c    0.160660 *  0.294090 *  0.982560 *   4.00000    1.000000    
     23 Si    c    0.660660 *  0.705910 *  0.017440 *   4.00000    1.000000    
     24 Si    c    0.839340 *  0.294090 *  0.017440 *   4.00000    1.000000    
     25 O3    c    0.106570 *  0.174340 *  0.366200 *   1.33043    1.000000    
     26 O2    c    0.393430 *  0.825660 *  0.366200 *   0.87073    1.000000    
     27 O2    c    0.893430 *  0.174340 *  0.633800 *   0.87073    1.000000    
     28 O3    c    0.606570 *  0.825660 *  0.633800 *   1.33043    1.000000    
     29 O2    c    0.893430 *  0.825660 *  0.633800 *   0.87073    1.000000    
     30 O3    c    0.606570 *  0.174340 *  0.633800 *   1.33043    1.000000    
     31 O2    c    0.106570 *  0.825660 *  0.366200 *   0.87073    1.000000    
     32 O2    c    0.393430 *  0.174340 *  0.366200 *   0.87073    1.000000    
     33 O2    c    0.000000 *  0.000000 *  0.500000 *   0.87073    1.000000    
     34 O2    c    0.500000 *  0.000000 *  0.500000 *   0.87073    1.000000    
     35 O2    c    0.994520 *  0.000000 *  0.250840 *   0.87073    1.000000    
     36 O2    c    0.505480 *  0.000000 *  0.250840 *   0.87073    1.000000    
     37 O2    c    0.005480 *  0.000000 *  0.749160 *   0.87073    1.000000    
     38 O2    c    0.494520 *  0.000000 *  0.749160 *   0.87073    1.000000    
     39 O2    c    0.610230 *  0.175520 *  0.115390 *   0.87073    1.000000    
     40 O2    c    0.889770 *  0.824480 *  0.115390 *   0.87073    1.000000    
     41 O2    c    0.389770 *  0.175520 *  0.884610 *   0.87073    1.000000    
     42 O2    c    0.110230 *  0.824480 *  0.884610 *   0.87073    1.000000    
     43 O2    c    0.389770 *  0.824480 *  0.884610 *   0.87073    1.000000    
     44 O2    c    0.110230 *  0.175520 *  0.884610 *   0.87073    1.000000    
     45 O2    c    0.610230 *  0.824480 *  0.115390 *   0.87073    1.000000    
     46 O2    c    0.889770 *  0.175520 *  0.115390 *   0.87073    1.000000    
     47 O2    c    0.500000 *  0.000000 *  0.000000 *   0.87073    1.000000    
     48 O2    c    0.000000 *  0.000000 *  0.000000 *   0.87073    1.000000    
     49 O3    c    0.151750 *  0.500000 *  0.313330 *   1.33043    1.000000    
     50 O2    c    0.348250 *  0.500000 *  0.313330 *   0.87073    1.000000    
     51 O2    c    0.848250 *  0.500000 *  0.686670 *   0.87073    1.000000    
     52 O1    c    0.651750 *  0.500000 *  0.686670 *   1.73396    1.000000    
     53 O3    c    0.250000 *  0.234950 *  0.285720 *   1.33043    1.000000    
     54 O2    c    0.250000 *  0.765050 *  0.285720 *   0.87073    1.000000    
     55 O3    c    0.750000 *  0.234950 *  0.714280 *   1.33043    1.000000    
     56 O3    c    0.750000 *  0.765050 *  0.714280 *   1.33043    1.000000    
     57 O3    c    0.131410 *  0.268650 *  0.127790 *   1.33043    1.000000    
     58 O2    c    0.368590 *  0.731350 *  0.127790 *   0.87073    1.000000    
     59 O2    c    0.868590 *  0.268650 *  0.872210 *   0.87073    1.000000    
     60 O3    c    0.631410 *  0.731350 *  0.872210 *   1.33043    1.000000    
     61 O2    c    0.868590 *  0.731350 *  0.872210 *   0.87073    1.000000    
     62 O3    c    0.631410 *  0.268650 *  0.872210 *   1.33043    1.000000    
     63 O2    c    0.131410 *  0.731350 *  0.127790 *   0.87073    1.000000    
     64 O2    c    0.368590 *  0.268650 *  0.127790 *   0.87073    1.000000    
     65 O2    c    0.653920 *  0.500000 *  0.058200 *   0.87073    1.000000    
     66 O2    c    0.846080 *  0.500000 *  0.058200 *   0.87073    1.000000    
     67 O2    c    0.346080 *  0.500000 *  0.941800 *   0.87073    1.000000    
     68 O2    c    0.153920 *  0.500000 *  0.941800 *   0.87073    1.000000    
     69 O2    c    0.750000 *  0.231060 *  0.027050 *   0.87073    1.000000    
     70 O2    c    0.750000 *  0.768940 *  0.027050 *   0.87073    1.000000    
     71 O2    c    0.250000 *  0.231060 *  0.972950 *   0.87073    1.000000    
     72 O2    c    0.250000 *  0.768940 *  0.972950 *   0.87073    1.000000    
     73 O3    s    0.106570 *  0.174340 *  0.366200 *  -3.33043    1.000000    
     74 O2    s    0.393430 *  0.825660 *  0.366200 *  -2.87073    1.000000    
     75 O2    s    0.893430 *  0.174340 *  0.633800 *  -2.87073    1.000000    
     76 O3    s    0.606570 *  0.825660 *  0.633800 *  -3.33043    1.000000    
     77 O2    s    0.893430 *  0.825660 *  0.633800 *  -2.87073    1.000000    
     78 O3    s    0.606570 *  0.174340 *  0.633800 *  -3.33043    1.000000    
     79 O2    s    0.106570 *  0.825660 *  0.366200 *  -2.87073    1.000000    
     80 O2    s    0.393430 *  0.174340 *  0.366200 *  -2.87073    1.000000    
     81 O2    s    0.000000 *  0.000000 *  0.500000 *  -2.87073    1.000000    
     82 O2    s    0.500000 *  0.000000 *  0.500000 *  -2.87073    1.000000    
     83 O2    s    0.994520 *  0.000000 *  0.250840 *  -2.87073    1.000000    
     84 O2    s    0.505480 *  0.000000 *  0.250840 *  -2.87073    1.000000    
     85 O2    s    0.005480 *  0.000000 *  0.749160 *  -2.87073    1.000000    
     86 O2    s    0.494520 *  0.000000 *  0.749160 *  -2.87073    1.000000    
     87 O2    s    0.610230 *  0.175520 *  0.115390 *  -2.87073    1.000000    
     88 O2    s    0.889770 *  0.824480 *  0.115390 *  -2.87073    1.000000    
     89 O2    s    0.389770 *  0.175520 *  0.884610 *  -2.87073    1.000000    
     90 O2    s    0.110230 *  0.824480 *  0.884610 *  -2.87073    1.000000    
     91 O2    s    0.389770 *  0.824480 *  0.884610 *  -2.87073    1.000000    
     92 O2    s    0.110230 *  0.175520 *  0.884610 *  -2.87073    1.000000    
     93 O2    s    0.610230 *  0.824480 *  0.115390 *  -2.87073    1.000000    
     94 O2    s    0.889770 *  0.175520 *  0.115390 *  -2.87073    1.000000    
     95 O2    s    0.500000 *  0.000000 *  0.000000 *  -2.87073    1.000000    
     96 O2    s    0.000000 *  0.000000 *  0.000000 *  -2.87073    1.000000    
     97 O3    s    0.151750 *  0.500000 *  0.313330 *  -3.33043    1.000000    
     98 O2    s    0.348250 *  0.500000 *  0.313330 *  -2.87073    1.000000    
     99 O2    s    0.848250 *  0.500000 *  0.686670 *  -2.87073    1.000000    
    100 O1    s    0.651750 *  0.500000 *  0.686670 *  -3.73396    1.000000    
    101 O3    s    0.250000 *  0.234950 *  0.285720 *  -3.33043    1.000000    
    102 O2    s    0.250000 *  0.765050 *  0.285720 *  -2.87073    1.000000    
    103 O3    s    0.750000 *  0.234950 *  0.714280 *  -3.33043    1.000000    
    104 O3    s    0.750000 *  0.765050 *  0.714280 *  -3.33043    1.000000    
    105 O3    s    0.131410 *  0.268650 *  0.127790 *  -3.33043    1.000000    
    106 O2    s    0.368590 *  0.731350 *  0.127790 *  -2.87073    1.000000    
    107 O2    s    0.868590 *  0.268650 *  0.872210 *  -2.87073    1.000000    
    108 O3    s    0.631410 *  0.731350 *  0.872210 *  -3.33043    1.000000    
    109 O2    s    0.868590 *  0.731350 *  0.872210 *  -2.87073    1.000000    
    110 O3    s    0.631410 *  0.268650 *  0.872210 *  -3.33043    1.000000    
    111 O2    s    0.131410 *  0.731350 *  0.127790 *  -2.87073    1.000000    
    112 O2    s    0.368590 *  0.268650 *  0.127790 *  -2.87073    1.000000    
    113 O2    s    0.653920 *  0.500000 *  0.058200 *  -2.87073    1.000000    
    114 O2    s    0.846080 *  0.500000 *  0.058200 *  -2.87073    1.000000    
    115 O2    s    0.346080 *  0.500000 *  0.941800 *  -2.87073    1.000000    
    116 O2    s    0.153920 *  0.500000 *  0.941800 *  -2.87073    1.000000    
    117 O2    s    0.750000 *  0.231060 *  0.027050 *  -2.87073    1.000000    
    118 O2    s    0.750000 *  0.768940 *  0.027050 *  -2.87073    1.000000    
    119 O2    s    0.250000 *  0.231060 *  0.972950 *  -2.87073    1.000000    
    120 O2    s    0.250000 *  0.768940 *  0.972950 *  -2.87073    1.000000    
--------------------------------------------------------------------------------



********************************************************************************
*  General input information                                                   *
********************************************************************************

  Species output for all configurations : 

--------------------------------------------------------------------------------
  Species    Type    Atomic    Atomic    Charge       Radii (Angs)     Library
                     Number     Mass       (e)     Cova   Ionic  VDW   Symbol
--------------------------------------------------------------------------------
    Ge       Core       32      72.61   4.000000   1.170  0.000  1.750 Ge       
    Si       Core       14      28.09   4.000000   1.200  0.000  2.100 Si       
    O1       Core        8      16.00   1.733957   0.730  0.000  1.360 O1       
    O2       Core        8      16.00   0.870733   0.730  0.000  1.360 O2       
    O3       Core        8      16.00   1.330431   0.730  0.000  1.360 O3       
    O1       Shell       8       0.00  -3.733957   0.730  0.000  0.000 O1       
    O2       Shell       8       0.00  -2.870733   0.730  0.000  0.000 O2       
    O3       Shell       8       0.00  -3.330431   0.730  0.000  0.000 O3       
--------------------------------------------------------------------------------


  Lattice summation method               =    Ewald          (3-D)
                                         =    Parry          (2-D)
                                         =    Saunders et al (1-D)
  Accuracy factor for lattice sums       =   12.000


  Analytic derivatives to be used

  Time limit = Infinity

  Maximum range for interatomic potentials =    100000.000000 Angstroms

  General interatomic potentials :

--------------------------------------------------------------------------------
Atom  Types   Potential      Parameter       Value         Units   Cutoffs(Ang)
  1     2                                                            Min /  Max 
--------------------------------------------------------------------------------
Si   c O1   s Buckingham    Buckingham A     1315.2478    eV        0.000 16.000
                            Buckingham rho  0.31775900    Ang       
                            Buckingham C     10.141118    eV*Ang^6  
--------------------------------------------------------------------------------
Si   c O2   s Buckingham    Buckingham A     1315.2478    eV        0.000 16.000
                            Buckingham rho  0.31775900    Ang       
                            Buckingham C     10.141118    eV*Ang^6  
--------------------------------------------------------------------------------
Si   c O3   s Buckingham    Buckingham A     1315.2478    eV        0.000 16.000
                            Buckingham rho  0.31775900    Ang       
                            Buckingham C     10.141118    eV*Ang^6  
--------------------------------------------------------------------------------
Ge   c O1   s Buckingham    Buckingham A     1497.3996    eV        0.000 16.000
                            Buckingham rho  0.32564600    Ang       
                            Buckingham C     16.808599    eV*Ang^6  
--------------------------------------------------------------------------------
Ge   c O2   s Buckingham    Buckingham A     1497.3996    eV        0.000 16.000
                            Buckingham rho  0.32564600    Ang       
                            Buckingham C     16.808599    eV*Ang^6  
--------------------------------------------------------------------------------
Ge   c O3   s Buckingham    Buckingham A     1497.3996    eV        0.000 16.000
                            Buckingham rho  0.32564600    Ang       
                            Buckingham C     16.808599    eV*Ang^6  
--------------------------------------------------------------------------------
O1   s O1   s Buckingham    Buckingham A     22764.000    eV        0.000 16.000
                            Buckingham rho  0.14900000    Ang       
                            Buckingham C     10.937044    eV*Ang^6  
--------------------------------------------------------------------------------
O1   s O2   s Buckingham    Buckingham A     22764.000    eV        0.000 16.000
                            Buckingham rho  0.14900000    Ang       
                            Buckingham C     10.937044    eV*Ang^6  
--------------------------------------------------------------------------------
O1   s O3   s Buckingham    Buckingham A     22764.000    eV        0.000 16.000
                            Buckingham rho  0.14900000    Ang       
                            Buckingham C     10.937044    eV*Ang^6  
--------------------------------------------------------------------------------
O2   s O2   s Buckingham    Buckingham A     22764.000    eV        0.000 16.000
                            Buckingham rho  0.14900000    Ang       
                            Buckingham C     10.937044    eV*Ang^6  
--------------------------------------------------------------------------------
O2   s O3   s Buckingham    Buckingham A     22764.000    eV        0.000 16.000
                            Buckingham rho  0.14900000    Ang       
                            Buckingham C     10.937044    eV*Ang^6  
--------------------------------------------------------------------------------
O3   s O3   s Buckingham    Buckingham A     22764.000    eV        0.000 16.000
                            Buckingham rho  0.14900000    Ang       
                            Buckingham C     10.937044    eV*Ang^6  
--------------------------------------------------------------------------------
O1   c O1   s Spring (c-s)  Spring k 2       180.31577    eV*Ang^-2 0.000  0.800
                            Spring k 4       0.0000000    eV*Ang^-4 
--------------------------------------------------------------------------------
O2   c O2   s Spring (c-s)  Spring k 2       75.969800    eV*Ang^-2 0.000  0.800
                            Spring k 4       0.0000000    eV*Ang^-4 
--------------------------------------------------------------------------------
O3   c O3   s Spring (c-s)  Spring k 2       128.14270    eV*Ang^-2 0.000  0.800
                            Spring k 4       0.0000000    eV*Ang^-4 
--------------------------------------------------------------------------------

  General Three-body potentials :

--------------------------------------------------------------------------------
  Atoms       Potential      Parameter       Value         Units   Cutoffs(Ang)
  1 / 2 / 3                                                          Min /  Max 
--------------------------------------------------------------------------------
Si    core    Harmonic      Three-body cnst  1.2614000    eV*rad^-2 0.000  1.900
O1    shel                  Three-body angl  109.47000    degrees   0.000  1.900
O1    shel                  Three-body k4    0.0000000    eV*rad^-4 0.000  3.500
                            Three-body k3    0.0000000    eV*rad^-3 
--------------------------------------------------------------------------------
Si    core    Harmonic      Three-body cnst  1.2614000    eV*rad^-2 0.000  1.900
O1    shel                  Three-body angl  109.47000    degrees   0.000  1.900
õ(1   shel                  Three-body k4    0.0000000    eV*rad^-4 0.000  3.500
                            Three-body k3    0.0000000    eV*rad^-3 
--------------------------------------------------------------------------------
Si    core    Harmonic      Three-body cnst  1.2614000    eV*rad^-2 0.000  1.900
õ(1   shel                  Three-body angl  109.47000    degrees   0.000  1.900
õ(1   shel                  Three-body k4    0.0000000    eV*rad^-4 0.000  3.500
                            Three-body k3    0.0000000    eV*rad^-3 
--------------------------------------------------------------------------------
Si    core    Harmonic      Three-body cnst  1.2614000    eV*rad^-2 0.000  1.900
O1    shel                  Three-body angl  109.47000    degrees   0.000  1.900
O2    shel                  Three-body k4    0.0000000    eV*rad^-4 0.000  3.500
                            Three-body k3    0.0000000    eV*rad^-3 
--------------------------------------------------------------------------------
Si    core    Harmonic      Three-body cnst  1.2614000    eV*rad^-2 0.000  1.900
O1    shel                  Three-body angl  109.47000    degrees   0.000  1.900
õ(2   shel                  Three-body k4    0.0000000    eV*rad^-4 0.000  3.500
                            Three-body k3    0.0000000    eV*rad^-3 
--------------------------------------------------------------------------------
Si    core    Harmonic      Three-body cnst  1.2614000    eV*rad^-2 0.000  1.900
O2    shel                  Three-body angl  109.47000    degrees   0.000  1.900
õ(1   shel                  Three-body k4    0.0000000    eV*rad^-4 0.000  3.500
                            Three-body k3    0.0000000    eV*rad^-3 
--------------------------------------------------------------------------------
Si    core    Harmonic      Three-body cnst  1.2614000    eV*rad^-2 0.000  1.900
õ(1   shel                  Three-body angl  109.47000    degrees   0.000  1.900
õ(2   shel                  Three-body k4    0.0000000    eV*rad^-4 0.000  3.500
                            Three-body k3    0.0000000    eV*rad^-3 
--------------------------------------------------------------------------------
Si    core    Harmonic      Three-body cnst  1.2614000    eV*rad^-2 0.000  1.900
O2    shel                  Three-body angl  109.47000    degrees   0.000  1.900
O2    shel                  Three-body k4    0.0000000    eV*rad^-4 0.000  3.500
                            Three-body k3    0.0000000    eV*rad^-3 
--------------------------------------------------------------------------------
Si    core    Harmonic      Three-body cnst  1.2614000    eV*rad^-2 0.000  1.900
O2    shel                  Three-body angl  109.47000    degrees   0.000  1.900
õ(2   shel                  Three-body k4    0.0000000    eV*rad^-4 0.000  3.500
                            Three-body k3    0.0000000    eV*rad^-3 
--------------------------------------------------------------------------------
Si    core    Harmonic      Three-body cnst  1.2614000    eV*rad^-2 0.000  1.900
õ(2   shel                  Three-body angl  109.47000    degrees   0.000  1.900
õ(2   shel                  Three-body k4    0.0000000    eV*rad^-4 0.000  3.500
                            Three-body k3    0.0000000    eV*rad^-3 
--------------------------------------------------------------------------------

********************************************************************************
*  Output for configuration   1 : c00213.vasp                                  *
********************************************************************************


  Components of energy : 

--------------------------------------------------------------------------------
  Interatomic potentials     =         760.26453899 eV    
  Three-body potentials      =           0.01597859 eV    
  Monopole - monopole (real) =       -2676.00317478 eV    
  Monopole - monopole (recip)=       -1115.35404472 eV    
  Monopole - monopole (total)=       -3791.35721950 eV    
--------------------------------------------------------------------------------
  Total lattice energy       =       -3031.07670192 eV    
--------------------------------------------------------------------------------
  Total lattice energy       =         -292452.5675 kJ/(mole unit cells)
--------------------------------------------------------------------------------


  Number of variables =      363

  Maximum number of calculations  =          1000
  Maximum Hessian update interval =            10
  Maximum step size               =   0.100000000
  Maximum parameter tolerance     =   0.000010000
  Maximum function  tolerance     =   0.000010000
  Maximum gradient  tolerance     =   0.001000000
  Maximum gradient  component     =   0.010000000

  Symmetry not applied to optimisation

  Cell parameters to be optimised using strains

  Newton-Raphson optimiser to be used

  BFGS hessian update to be used

  Lower half triangular hessian to be used

  Minimiser to switch to RFO
  When gradient norm is less than     0.050000

  Dumpfile to be written after every cycle

  Start of bulk optimisation :

  Cycle:      0 Energy:     -3031.076702  Gnorm:      4.456911  CPU:    0.124
  ** Hessian calculated **
  Cycle:      1 Energy:     -3061.984077  Gnorm:      0.975545  CPU:    0.265
  ** Hessian calculated **
  Cycle:      2 Energy:     -3064.474536  Gnorm:      0.561214  CPU:    0.482
  Cycle:      3 Energy:     -3065.300639  Gnorm:      0.370990  CPU:    0.594
  Cycle:      4 Energy:     -3065.955550  Gnorm:      0.281121  CPU:    0.725
  Cycle:      5 Energy:     -3066.541648  Gnorm:      0.225744  CPU:    0.857
  Cycle:      6 Energy:     -3066.940965  Gnorm:      0.185221  CPU:    0.968
  Cycle:      7 Energy:     -3067.189995  Gnorm:      0.142865  CPU:    1.078
  Cycle:      8 Energy:     -3067.306878  Gnorm:      0.088349  CPU:    1.187
  Cycle:      9 Energy:     -3067.365958  Gnorm:      0.064684  CPU:    1.316
  Cycle:     10 Energy:     -3067.401238  Gnorm:      0.057765  CPU:    1.447
  Cycle:     11 Energy:     -3067.429677  Gnorm:      0.056079  CPU:    1.560
  ** Hessian calculated **
  Cycle:     12 Energy:     -3067.440918  Gnorm:      0.049628  CPU:    1.793
  ** Hessian has required structure
  Cycle:     13 Energy:     -3067.457250  Gnorm:      0.053404  CPU:    1.994
  ** Hessian has required structure
  Cycle:     14 Energy:     -3067.477126  Gnorm:      0.059599  CPU:    2.192
  ** Hessian has required structure
  Cycle:     15 Energy:     -3067.492222  Gnorm:      0.093842  CPU:    2.369
  ** Hessian has required structure
  Cycle:     16 Energy:     -3067.512212  Gnorm:      0.103430  CPU:    2.546
  ** Hessian has required structure
  Cycle:     17 Energy:     -3067.526642  Gnorm:      0.098184  CPU:    2.706
  ** Hessian has required structure
  Cycle:     18 Energy:     -3067.544625  Gnorm:      0.098099  CPU:    2.862
  ** Hessian has required structure
  Cycle:     19 Energy:     -3067.549494  Gnorm:      0.112926  CPU:    3.019
  ** Hessian has required structure
  Cycle:     20 Energy:     -3067.559656  Gnorm:      0.140646  CPU:    3.177
  ** Hessian has required structure
  Cycle:     21 Energy:     -3067.568841  Gnorm:      0.104136  CPU:    3.335
  ** Hessian has wrong structure
  ** Imaginary eigenvectors =   3
  Cycle:     22 Energy:     -3067.616537  Gnorm:      0.103591  CPU:    3.768
  ** Hessian has wrong structure
  ** Imaginary eigenvectors =   1
  ** Hessian has required structure
  Cycle:     23 Energy:     -3067.874400  Gnorm:      0.061048  CPU:    4.406
  ** Hessian has required structure
  Cycle:     24 Energy:     -3067.996332  Gnorm:      0.033146  CPU:    4.623
  ** Hessian has required structure
  Cycle:     25 Energy:     -3068.048302  Gnorm:      0.018808  CPU:    4.845
  ** Hessian has required structure
  Cycle:     26 Energy:     -3068.059438  Gnorm:      0.024185  CPU:    5.043
  ** Hessian has required structure
  Cycle:     27 Energy:     -3068.089326  Gnorm:      0.021035  CPU:    5.233
  ** Hessian has required structure
  Cycle:     28 Energy:     -3068.097281  Gnorm:      0.017025  CPU:    5.424
  ** Hessian has required structure
  Cycle:     29 Energy:     -3068.106221  Gnorm:      0.016715  CPU:    5.652
  ** Hessian has required structure
  Cycle:     30 Energy:     -3068.121228  Gnorm:      0.018430  CPU:    5.838
  ** Hessian has required structure
  Cycle:     31 Energy:     -3068.134415  Gnorm:      0.023721  CPU:    6.029
  ** Hessian has required structure
  Cycle:     32 Energy:     -3068.149973  Gnorm:      0.022064  CPU:    6.202
  ** Hessian has required structure
  Cycle:     33 Energy:     -3068.172054  Gnorm:      0.015107  CPU:    6.473
  ** Hessian has required structure
  Cycle:     34 Energy:     -3068.179933  Gnorm:      0.009453  CPU:    6.660
  ** Hessian has required structure
  Cycle:     35 Energy:     -3068.182941  Gnorm:      0.007354  CPU:    6.829
  ** Hessian has required structure
  Cycle:     36 Energy:     -3068.185043  Gnorm:      0.004069  CPU:    7.017
  ** Hessian has required structure
  Cycle:     37 Energy:     -3068.185800  Gnorm:      0.003461  CPU:    7.187
  ** Hessian has required structure
  Cycle:     38 Energy:     -3068.186112  Gnorm:      0.001487  CPU:    7.357
  ** Hessian has required structure
  Cycle:     39 Energy:     -3068.186245  Gnorm:      0.001971  CPU:    7.548
  ** Hessian has required structure
  Cycle:     40 Energy:     -3068.186359  Gnorm:      0.001006  CPU:    7.753
  ** Hessian has required structure
  Cycle:     41 Energy:     -3068.186403  Gnorm:      0.000648  CPU:    7.958
  ** Hessian has required structure
  Cycle:     42 Energy:     -3068.186431  Gnorm:      0.000492  CPU:    8.162
  ** Hessian has required structure
  Cycle:     43 Energy:     -3068.186448  Gnorm:      0.000298  CPU:    8.435
  ** Hessian has required structure
  Cycle:     44 Energy:     -3068.186455  Gnorm:      0.000181  CPU:    8.615
  ** Hessian has required structure
  Cycle:     45 Energy:     -3068.186409  Gnorm:      0.002196  CPU:    8.848
  ** Hessian has required structure
  Cycle:     46 Energy:     -3068.186445  Gnorm:      0.001098  CPU:    9.154
  ** Hessian has required structure
  Cycle:     47 Energy:     -3068.186456  Gnorm:      0.000440  CPU:    9.385
  ** Hessian has required structure
  Cycle:     48 Energy:     -3068.186457  Gnorm:      0.000308  CPU:    9.548
  ** Hessian has required structure
  Cycle:     49 Energy:     -3068.186458  Gnorm:      0.000215  CPU:    9.713
  ** Hessian has required structure
  Cycle:     50 Energy:     -3068.186458  Gnorm:      0.000151  CPU:    9.876
  ** Hessian has required structure
  Cycle:     51 Energy:     -3068.186458  Gnorm:      0.000106  CPU:   10.039
  ** Hessian has required structure
  Cycle:     52 Energy:     -3068.186458  Gnorm:      0.000074  CPU:   10.205
  ** Hessian has required structure


  **** Optimisation achieved ****


  Final energy =   -3068.18645830 eV      
  Final Gnorm  =       0.00005173

  Components of energy : 

--------------------------------------------------------------------------------
  Interatomic potentials     =         814.73216249 eV    
  Three-body potentials      =           0.20100168 eV    
  Monopole - monopole (real) =       -2205.10362071 eV    
  Monopole - monopole (recip)=       -1678.01600176 eV    
  Monopole - monopole (total)=       -3883.11962246 eV    
--------------------------------------------------------------------------------
  Total lattice energy       =       -3068.18645830 eV    
--------------------------------------------------------------------------------
  Total lattice energy       =         -296033.0917 kJ/(mole unit cells)
--------------------------------------------------------------------------------

  Final fractional coordinates of atoms :

--------------------------------------------------------------------------------
   No.  Atomic        x           y          z          Radius
        Label       (Frac)      (Frac)     (Frac)       (Angs) 
--------------------------------------------------------------------------------
     1  Ge    c     0.160190    0.293910    0.273440    0.000000
     2  Ge    c     0.658066    0.658256    0.705660    0.000000
     3  Ge    c     0.673667    0.238102    0.709265    0.000000
     4  Si    c     0.052535    0.989910    0.352554    0.000000
     5  Si    c     0.455367    0.980783    0.366445    0.000000
     6  Si    c     0.959946    0.976989    0.616699    0.000000
     7  Si    c     0.552213    0.958326    0.621825    0.000000
     8  Si    c     0.566283    0.972209    0.124302    0.000000
     9  Si    c     0.950804    0.983525    0.096668    0.000000
    10  Si    c     0.454640    0.976106    0.883702    0.000000
    11  Si    c     0.067660    0.976584    0.858754    0.000000
    12  Si    c     0.350325    0.677788    0.268126    0.000000
    13  Si    c     0.855460    0.284335    0.707094    0.000000
    14  Si    c     0.841287    0.688176    0.706452    0.000000
    15  Si    c     0.170373    0.704579    0.265295    0.000000
    16  Si    c     0.342628    0.274269    0.273490    0.000000
    17  Si    c     0.674518    0.258047    0.018452    0.000000
    18  Si    c     0.839184    0.690503    0.013426    0.000000
    19  Si    c     0.342403    0.268187    0.966431    0.000000
    20  Si    c     0.175070    0.688391    0.960759    0.000000
    21  Si    c     0.354912    0.665478    0.963964    0.000000
    22  Si    c     0.163100    0.287300    0.962557    0.000000
    23  Si    c     0.660370    0.662249    0.014762    0.000000
    24  Si    c     0.853216    0.295289    0.013968    0.000000
    25  O3    c     0.092872    0.178144    0.362738    0.000000
    26  O2    c     0.405828    0.802488    0.352327    0.000000
    27  O2    c     0.919556    0.166868    0.631896    0.000000
    28  O3    c     0.589367    0.766877    0.616151    0.000000
    29  O2    c     0.896785    0.822917    0.631725    0.000000
    30  O3    c     0.624482    0.091026    0.613388    0.000000
    31  O2    c     0.122564    0.848844    0.346973    0.000000
    32  O2    c     0.400540    0.149270    0.350258    0.000000
    33  O2    c     0.996162    0.956226    0.473764    0.000000
    34  O2    c     0.489220    0.987779    0.510876    0.000000
    35  O2    c     0.001231    0.968642    0.224164    0.000000
    36  O2    c     0.527631    0.983139    0.266462    0.000000
    37  O2    c     0.029865    0.959442    0.717868    0.000000
    38  O2    c     0.510258    0.997321    0.760535    0.000000
    39  O2    c     0.629398    0.128861    0.116331    0.000000
    40  O2    c     0.884510    0.833878    0.098821    0.000000
    41  O2    c     0.390112    0.128615    0.880577    0.000000
    42  O2    c     0.130569    0.821368    0.868553    0.000000
    43  O2    c     0.412677    0.785712    0.879063    0.000000
    44  O2    c     0.108709    0.166377    0.871708    0.000000
    45  O2    c     0.605224    0.780426    0.108326    0.000000
    46  O2    c     0.911545    0.175680    0.095308    0.000000
    47  O2    c     0.501922    0.003039    0.015673    0.000000
    48  O2    c     0.002382    0.950092    0.968557    0.000000
    49  O3    c     0.139669    0.512732    0.296746    0.000000
    50  O2    c     0.368914    0.475695    0.298761    0.000000
    51  O2    c     0.871186    0.489693    0.679619    0.000000
    52  O1    c     0.637916    0.442629    0.684519    0.000000
    53  O3    c     0.254459    0.249995    0.320725    0.000000
    54  O2    c     0.260946    0.719339    0.304970    0.000000
    55  O3    c     0.770302    0.233221    0.660260    0.000000
    56  O3    c     0.753318    0.705339    0.659071    0.000000
    57  O3    c     0.148586    0.235783    0.111287    0.000000
    58  O2    c     0.365682    0.716147    0.115771    0.000000
    59  O2    c     0.861200    0.246906    0.861400    0.000000
    60  O3    c     0.647760    0.721689    0.867922    0.000000
    61  O2    c     0.843833    0.733608    0.860487    0.000000
    62  O3    c     0.667016    0.185061    0.872560    0.000000
    63  O2    c     0.162759    0.743902    0.111403    0.000000
    64  O2    c     0.347103    0.227393    0.119686    0.000000
    65  O2    c     0.639476    0.455615    0.027588    0.000000
    66  O2    c     0.875600    0.498535    0.039532    0.000000
    67  O2    c     0.376622    0.462254    0.938445    0.000000
    68  O2    c     0.142372    0.491313    0.939511    0.000000
    69  O2    c     0.764766    0.261401    0.060346    0.000000
    70  O2    c     0.749337    0.693266    0.058180    0.000000
    71  O2    c     0.253053    0.255967    0.923034    0.000000
    72  O2    c     0.266091    0.698116    0.922842    0.000000
    73  O3    s     0.094421    0.168805    0.354319    0.000000
    74  O2    s     0.404942    0.807843    0.344291    0.000000
    75  O2    s     0.916852    0.159364    0.638523    0.000000
    76  O3    s     0.591244    0.777331    0.623960    0.000000
    77  O2    s     0.897438    0.824731    0.638573    0.000000
    78  O3    s     0.621515    0.090383    0.622376    0.000000
    79  O2    s     0.120501    0.847590    0.338338    0.000000
    80  O2    s     0.400020    0.144766    0.343358    0.000000
    81  O2    s     0.998540    0.962586    0.476215    0.000000
    82  O2    s     0.492561    0.983607    0.507048    0.000000
    83  O2    s     0.001033    0.972835    0.223429    0.000000
    84  O2    s     0.523965    0.981617    0.261480    0.000000
    85  O2    s     0.026385    0.963393    0.722768    0.000000
    86  O2    s     0.508277    0.990705    0.760090    0.000000
    87  O2    s     0.627579    0.126219    0.106469    0.000000
    88  O2    s     0.886581    0.833953    0.088932    0.000000
    89  O2    s     0.391701    0.127889    0.890704    0.000000
    90  O2    s     0.128784    0.823178    0.877991    0.000000
    91  O2    s     0.410775    0.792434    0.888816    0.000000
    92  O2    s     0.110247    0.159301    0.880268    0.000000
    93  O2    s     0.607036    0.787951    0.099907    0.000000
    94  O2    s     0.909292    0.168494    0.086455    0.000000
    95  O2    s     0.503826    0.996549    0.013001    0.000000
    96  O2    s     0.003929    0.956863    0.970626    0.000000
    97  O3    s     0.144541    0.514362    0.291595    0.000000
    98  O2    s     0.364141    0.476351    0.292781    0.000000
    99  O2    s     0.866406    0.488766    0.685355    0.000000
   100  O1    s     0.642463    0.443944    0.688247    0.000000
   101  O3    s     0.255753    0.255929    0.312213    0.000000
   102  O2    s     0.261022    0.713246    0.296739    0.000000
   103  O3    s     0.771275    0.238821    0.668982    0.000000
   104  O3    s     0.754631    0.700005    0.667408    0.000000
   105  O3    s     0.150960    0.245552    0.109376    0.000000
   106  O2    s     0.362899    0.706724    0.115804    0.000000
   107  O2    s     0.859739    0.256062    0.861634    0.000000
   108  O3    s     0.649818    0.710802    0.869898    0.000000
   109  O2    s     0.843055    0.724107    0.860727    0.000000
   110  O3    s     0.668294    0.196567    0.874140    0.000000
   111  O2    s     0.164901    0.733846    0.111337    0.000000
   112  O2    s     0.346117    0.236781    0.119456    0.000000
   113  O2    s     0.645238    0.456771    0.025318    0.000000
   114  O2    s     0.869445    0.497024    0.034092    0.000000
   115  O2    s     0.370727    0.463676    0.944112    0.000000
   116  O2    s     0.148011    0.490659    0.944187    0.000000
   117  O2    s     0.764696    0.264821    0.050853    0.000000
   118  O2    s     0.749631    0.689532    0.048635    0.000000
   119  O2    s     0.253187    0.260781    0.932063    0.000000
   120  O2    s     0.265899    0.693417    0.931462    0.000000
--------------------------------------------------------------------------------

  Final Cartesian lattice vectors (Angstroms) :

       17.168229   -0.020603    0.086131
       -0.009004    7.623333   -0.046511
        0.051778   -0.063387   10.244833


  Final cell parameters and derivatives :

--------------------------------------------------------------------------------
       a           17.168457 Angstrom     dE/de1(xx)    -0.000384 eV/strain
       b            7.623480 Angstrom     dE/de2(yy)    -0.003406 eV/strain
       c           10.245160 Angstrom     dE/de3(zz)     0.009614 eV/strain
       alpha       90.704393 Degrees      dE/de4(yz)    -0.000138 eV/strain
       beta        89.422570 Degrees      dE/de5(xz)     0.000812 eV/strain
       gamma       90.138182 Degrees      dE/de6(xy)     0.001298 eV/strain
--------------------------------------------------------------------------------

  Primitive cell volume =          1340.748339 Angs**3

  Density of cell =      1.951586 g/cm**3

  Non-primitive cell volume =          1340.748339 Angs**3


  Final internal derivatives :

--------------------------------------------------------------------------------
   No.  Atomic          a             b             c           Radius
        Label          (eV)          (eV)          (eV)        (eV/Angs)
--------------------------------------------------------------------------------
      1 Ge    c       0.000000      0.000000      0.000000      0.000000
      2 Ge    c       0.000475     -0.000752     -0.001706      0.000000
      3 Ge    c       0.001015      0.001126     -0.001682      0.000000
      4 Si    c       0.004459     -0.000116      0.000094      0.000000
      5 Si    c      -0.003130      0.000406     -0.001669      0.000000
      6 Si    c      -0.003664      0.000666      0.000752      0.000000
      7 Si    c       0.003268     -0.000864      0.000607      0.000000
      8 Si    c       0.003166     -0.000669     -0.000559      0.000000
      9 Si    c      -0.003404      0.000619     -0.001060      0.000000
     10 Si    c      -0.003914      0.000292     -0.000126      0.000000
     11 Si    c       0.003400     -0.000204      0.001395      0.000000
     12 Si    c      -0.001543     -0.000738      0.001733      0.000000
     13 Si    c       0.000051      0.000248     -0.002105      0.000000
     14 Si    c      -0.000369     -0.000833     -0.001796      0.000000
     15 Si    c      -0.000318     -0.000185      0.002139      0.000000
     16 Si    c      -0.000379      0.000386      0.001755      0.000000
     17 Si    c       0.000307      0.001034      0.001522      0.000000
     18 Si    c      -0.000524     -0.000892      0.001751      0.000000
     19 Si    c       0.000390      0.000190     -0.002108      0.000000
     20 Si    c       0.000659     -0.000530     -0.001667      0.000000
     21 Si    c      -0.000678     -0.000864     -0.001806      0.000000
     22 Si    c       0.001446      0.000891     -0.001853      0.000000
     23 Si    c       0.000001     -0.000420      0.002160      0.000000
     24 Si    c      -0.000268      0.000471      0.001747      0.000000
     25 O3    c      -0.001149     -0.000586     -0.000030      0.000000
     26 O2    c       0.000905      0.000468      0.000215      0.000000
     27 O2    c       0.000100     -0.000469      0.000312      0.000000
     28 O3    c      -0.001313      0.001127      0.000087      0.000000
     29 O2    c       0.000362      0.000166     -0.000004      0.000000
     30 O3    c      -0.000690     -0.000451     -0.000237      0.000000
     31 O2    c      -0.000847      0.000195     -0.000431      0.000000
     32 O2    c       0.000995     -0.000610      0.000014      0.000000
     33 O2    c      -0.000389     -0.000289     -0.000572      0.000000
     34 O2    c      -0.000253      0.000198      0.000978      0.000000
     35 O2    c       0.000370     -0.000275      0.000108      0.000000
     36 O2    c      -0.000647      0.000063      0.001066      0.000000
     37 O2    c       0.000114     -0.000208     -0.001124      0.000000
     38 O2    c       0.000334      0.000274      0.000262      0.000000
     39 O2    c      -0.000763     -0.000388      0.000231      0.000000
     40 O2    c       0.000591      0.000307      0.000148      0.000000
     41 O2    c       0.000931     -0.000341      0.000462      0.000000
     42 O2    c      -0.001466      0.000696     -0.000169      0.000000
     43 O2    c       0.000778      0.000420     -0.000015      0.000000
     44 O2    c      -0.001065     -0.000577     -0.000273      0.000000
     45 O2    c      -0.000507      0.000595     -0.000225      0.000000
     46 O2    c       0.000814     -0.000648     -0.000018      0.000000
     47 O2    c       0.000079      0.000342      0.000630      0.000000
     48 O2    c      -0.000062     -0.000233     -0.000397      0.000000
     49 O3    c       0.000781     -0.000480     -0.000504      0.000000
     50 O2    c      -0.000457      0.000141     -0.000387      0.000000
     51 O2    c      -0.000700      0.000218      0.000499      0.000000
     52 O1    c       0.001543     -0.000159      0.000863      0.000000
     53 O3    c       0.000398      0.000019     -0.000554      0.000000
     54 O2    c       0.000751     -0.000048     -0.000370      0.000000
     55 O3    c      -0.000870      0.000080      0.000651      0.000000
     56 O3    c      -0.000307     -0.000032      0.000540      0.000000
     57 O3    c      -0.001225     -0.001056      0.000295      0.000000
     58 O2    c       0.000881      0.000631     -0.000028      0.000000
     59 O2    c       0.000384     -0.000574      0.000216      0.000000
     60 O3    c      -0.001085      0.001121     -0.000627      0.000000
     61 O2    c       0.000162      0.000642     -0.000120      0.000000
     62 O3    c      -0.000422     -0.001150      0.000056      0.000000
     63 O2    c      -0.000632      0.000621     -0.000365      0.000000
     64 O2    c       0.000260     -0.000610      0.000208      0.000000
     65 O2    c       0.000783     -0.000271     -0.000111      0.000000
     66 O2    c      -0.000732      0.000165     -0.000388      0.000000
     67 O2    c      -0.000551      0.000405      0.000346      0.000000
     68 O2    c       0.000483     -0.000237      0.000283      0.000000
     69 O2    c       0.000399     -0.000022     -0.000306      0.000000
     70 O2    c       0.000616      0.000060     -0.000320      0.000000
     71 O2    c      -0.000764      0.000014      0.000363      0.000000
     72 O2    c      -0.000333      0.000012      0.000341      0.000000
     73 O3    s       0.000949      0.000278      0.000539      0.000000
     74 O2    s      -0.000316     -0.000151      0.000393      0.000000
     75 O2    s      -0.000152      0.000273     -0.000474      0.000000
     76 O3    s       0.000664     -0.000688     -0.000526      0.000000
     77 O2    s      -0.000309     -0.000134     -0.000390      0.000000
     78 O3    s       0.000593      0.000362     -0.000522      0.000000
     79 O2    s       0.000624     -0.000089      0.000724      0.000000
     80 O2    s      -0.000243      0.000211      0.000370      0.000000
     81 O2    s      -0.000074      0.000164      0.000189      0.000000
     82 O2    s      -0.000154     -0.000112     -0.000376      0.000000
     83 O2    s      -0.000082      0.000125      0.000159      0.000000
     84 O2    s       0.000476     -0.000068     -0.000080      0.000000
     85 O2    s       0.000287      0.000186      0.000202      0.000000
     86 O2    s      -0.000381     -0.000130     -0.000248      0.000000
     87 O2    s       0.000581      0.000197      0.000469      0.000000
     88 O2    s      -0.000568     -0.000231      0.000531      0.000000
     89 O2    s      -0.000667      0.000164     -0.000780      0.000000
     90 O2    s       0.000692     -0.000240     -0.000362      0.000000
     91 O2    s      -0.000602     -0.000147     -0.000593      0.000000
     92 O2    s       0.000620      0.000205     -0.000389      0.000000
     93 O2    s       0.000285     -0.000265      0.000573      0.000000
     94 O2    s      -0.000554      0.000349      0.000466      0.000000
     95 O2    s      -0.000063     -0.000235     -0.000111      0.000000
     96 O2    s       0.000039      0.000170     -0.000071      0.000000
     97 O3    s      -0.000204      0.000169      0.000635      0.000000
     98 O2    s      -0.000092     -0.000007      0.000555      0.000000
     99 O2    s      -0.000037     -0.000081     -0.000389      0.000000
    100 O1    s      -0.000436      0.000090     -0.000707      0.000000
    101 O3    s      -0.000245      0.000149      0.000856      0.000000
    102 O2    s      -0.000098     -0.000152      0.000687      0.000000
    103 O3    s       0.000323      0.000246     -0.000854      0.000000
    104 O3    s       0.000178     -0.000307     -0.000811      0.000000
    105 O3    s       0.000524      0.000567     -0.000020      0.000000
    106 O2    s      -0.000175     -0.000275      0.000060      0.000000
    107 O2    s      -0.000123      0.000307     -0.000147      0.000000
    108 O3    s       0.000572     -0.000650      0.000089      0.000000
    109 O2    s       0.000073     -0.000357     -0.000021      0.000000
    110 O3    s       0.000065      0.000757     -0.000188      0.000000
    111 O2    s       0.000096     -0.000212      0.000086      0.000000
    112 O2    s       0.000149      0.000226      0.000042      0.000000
    113 O2    s       0.000112      0.000033      0.000093      0.000000
    114 O2    s      -0.000139     -0.000084      0.000450      0.000000
    115 O2    s      -0.000113     -0.000053     -0.000478      0.000000
    116 O2    s       0.000218      0.000012     -0.000353      0.000000
    117 O2    s      -0.000157      0.000239      0.000538      0.000000
    118 O2    s      -0.000102     -0.000239      0.000635      0.000000
    119 O2    s       0.000068      0.000162     -0.000705      0.000000
    120 O2    s       0.000083     -0.000179     -0.000626      0.000000
--------------------------------------------------------------------------------
  Maximum abs         0.004459      0.001150      0.002160      0.000000
--------------------------------------------------------------------------------


  Born effective charge tensors : 

-------------------------------------------------------------------------------
  Atom             x           y             z
-------------------------------------------------------------------------------
    1 Ge    x       3.9590      0.2820     -0.0901
            y       0.3546      4.1819     -0.2412
            z      -0.1778     -0.0595      3.4393
-------------------------------------------------------------------------------
    2 Ge    x       4.0340     -0.2040      0.1189
            y      -0.3067      4.1976     -0.2231
            z       0.2320      0.0085      3.4741
-------------------------------------------------------------------------------
    3 Ge    x       3.9941      0.3584      0.1545
            y       0.1207      4.2119      0.2050
            z       0.1814      0.0189      3.4735
-------------------------------------------------------------------------------
    4 Si    x       3.5740      0.3166     -0.0653
            y       0.0139      3.4705      0.0426
            z      -0.5644     -0.1175      3.8358
-------------------------------------------------------------------------------
    5 Si    x       3.4145      0.0307      0.2782
            y      -0.0545      3.2430     -0.0279
            z       0.2714      0.0239      3.7750
-------------------------------------------------------------------------------
    6 Si    x       3.4043     -0.1120     -0.2629
            y       0.1271      3.2160     -0.0015
            z      -0.2804      0.0588      3.8046
-------------------------------------------------------------------------------
    7 Si    x       3.7592     -0.1920      0.0296
            y       0.1752      3.5798     -0.0267
            z       0.6971     -0.0872      3.8742
-------------------------------------------------------------------------------
    8 Si    x       3.5121     -0.1153     -0.2678
            y       0.1233      3.2435      0.0117
            z      -0.3870      0.0085      3.1262
-------------------------------------------------------------------------------
    9 Si    x       3.5029     -0.1498      0.1160
            y       0.1301      3.2570     -0.0206
            z       0.5285     -0.0410      3.0759
-------------------------------------------------------------------------------
   10 Si    x       3.4855      0.1304     -0.0487
            y      -0.1288      3.2550     -0.0124
            z      -0.5467     -0.0723      3.0487
-------------------------------------------------------------------------------
   11 Si    x       3.5130      0.1063      0.2602
            y      -0.1267      3.2479     -0.0061
            z       0.4177      0.0163      3.1299
-------------------------------------------------------------------------------
   12 Si    x       3.1832      0.2328      0.0938
            y       0.2334      3.4120      0.1665
            z       0.1073      0.0750      2.8263
-------------------------------------------------------------------------------
   13 Si    x       3.5257     -0.1304      0.0437
            y      -0.2167      3.5211      0.1967
            z      -0.0652      0.0960      2.9086
-------------------------------------------------------------------------------
   14 Si    x       3.5677      0.2621      0.0184
            y       0.1399      3.5294     -0.1751
            z      -0.0594     -0.1007      2.9128
-------------------------------------------------------------------------------
   15 Si    x       3.2894     -0.2438     -0.1334
            y      -0.0383      3.7529      0.0633
            z      -0.1444     -0.0001      2.8824
-------------------------------------------------------------------------------
   16 Si    x       3.5434     -0.2431     -0.0095
            y      -0.1895      3.5397     -0.1923
            z       0.0670     -0.1020      2.8972
-------------------------------------------------------------------------------
   17 Si    x       3.3360      0.3821     -0.1407
            y       0.1407      3.5636     -0.1224
            z      -0.1388      0.0699      2.9876
-------------------------------------------------------------------------------
   18 Si    x       3.2301      0.3668      0.1079
            y       0.1049      3.4457      0.1582
            z       0.1285      0.0622      2.7127
-------------------------------------------------------------------------------
   19 Si    x       3.2150     -0.3341     -0.1092
            y      -0.1250      3.4501      0.1589
            z      -0.1216      0.0641      2.7100
-------------------------------------------------------------------------------
   20 Si    x       3.2480     -0.3237      0.1778
            y      -0.1255      3.4320     -0.1945
            z       0.1419     -0.0624      2.7273
-------------------------------------------------------------------------------
   21 Si    x       3.2711      0.2755     -0.1048
            y       0.2527      3.4075     -0.1774
            z      -0.1287     -0.0516      2.7049
-------------------------------------------------------------------------------
   22 Si    x       3.3366      0.3096      0.0942
            y       0.2724      3.5202      0.1131
            z       0.1249     -0.0256      3.0108
-------------------------------------------------------------------------------
   23 Si    x       3.3632     -0.3180     -0.0749
            y      -0.2722      3.5352      0.1296
            z      -0.1296     -0.0669      2.9944
-------------------------------------------------------------------------------
   24 Si    x       3.2619     -0.2828      0.0744
            y      -0.2473      3.4174     -0.1770
            z       0.1462     -0.0605      2.7042
-------------------------------------------------------------------------------
   25 O3    x      -1.9625     -0.9164      0.3269
            y      -0.9098     -2.5086      0.3175
            z       0.4366      0.3237     -1.5297
-------------------------------------------------------------------------------
   26 O2    x      -1.6657     -0.7146     -0.3524
            y      -0.6839     -1.9775     -0.3613
            z      -0.3489     -0.3531     -1.3610
-------------------------------------------------------------------------------
   27 O2    x      -1.6508      0.7055      0.3243
            y       0.6505     -2.0175     -0.3357
            z       0.3308     -0.3293     -1.3460
-------------------------------------------------------------------------------
   28 O3    x      -1.9596      0.8770     -0.3392
            y       0.8740     -2.4079      0.3463
            z      -0.4672      0.3272     -1.5580
-------------------------------------------------------------------------------
   29 O2    x      -1.7591     -0.7317      0.3387
            y      -0.7545     -1.9618      0.3485
            z       0.3636      0.3484     -1.3454
-------------------------------------------------------------------------------
   30 O3    x      -2.2595     -0.9168     -0.3201
            y      -0.9745     -2.1526     -0.3521
            z      -0.4060     -0.3138     -1.5668
-------------------------------------------------------------------------------
   31 O2    x      -1.8195      0.6739      0.2989
            y       0.7281     -1.8531     -0.3182
            z       0.3630     -0.2820     -1.3550
-------------------------------------------------------------------------------
   32 O2    x      -1.7086      0.7237     -0.3535
            y       0.7400     -1.9972      0.3745
            z      -0.3585      0.3500     -1.3512
-------------------------------------------------------------------------------
   33 O2    x      -1.5676     -0.0203      0.7707
            y      -0.0244     -1.0916      0.0246
            z       0.9504      0.0292     -2.7536
-------------------------------------------------------------------------------
   34 O2    x      -1.6033      0.0676     -0.7552
            y       0.0289     -1.0897      0.0580
            z      -0.9540      0.0946     -2.6892
-------------------------------------------------------------------------------
   35 O2    x      -1.6991      0.0219     -0.7402
            y       0.0116     -1.1225      0.0146
            z      -0.7185      0.0347     -2.2720
-------------------------------------------------------------------------------
   36 O2    x      -1.7772      0.0276      0.7090
            y      -0.0093     -1.0976     -0.0143
            z       0.7014     -0.0313     -2.1730
-------------------------------------------------------------------------------
   37 O2    x      -1.7525      0.0073     -0.7077
            y       0.0226     -1.1010      0.0077
            z      -0.7169     -0.0156     -2.1920
-------------------------------------------------------------------------------
   38 O2    x      -1.6510     -0.0013      0.6819
            y      -0.0011     -1.1508     -0.0292
            z       0.6436     -0.0147     -2.2881
-------------------------------------------------------------------------------
   39 O2    x      -1.7603     -0.7316      0.3624
            y      -0.6687     -1.9236      0.3665
            z       0.3435      0.3382     -1.2714
-------------------------------------------------------------------------------
   40 O2    x      -1.7702     -0.7325     -0.2748
            y      -0.7005     -1.9422     -0.3159
            z      -0.3238     -0.3029     -1.2158
-------------------------------------------------------------------------------
   41 O2    x      -1.7584      0.7283      0.2616
            y       0.7100     -1.9447     -0.3071
            z       0.3212     -0.2872     -1.2100
-------------------------------------------------------------------------------
   42 O2    x      -1.7433      0.7264     -0.3784
            y       0.6825     -1.9289      0.3912
            z      -0.3596      0.3581     -1.2789
-------------------------------------------------------------------------------
   43 O2    x      -1.6819     -0.7079      0.2893
            y      -0.6342     -2.0109      0.3056
            z       0.3489      0.3030     -1.2214
-------------------------------------------------------------------------------
   44 O2    x      -1.6707     -0.7080     -0.3478
            y      -0.6152     -2.0245     -0.3617
            z      -0.3541     -0.3432     -1.2479
-------------------------------------------------------------------------------
   45 O2    x      -1.6758      0.7179      0.3599
            y       0.5951     -2.0184     -0.3739
            z       0.3506     -0.3458     -1.2547
-------------------------------------------------------------------------------
   46 O2    x      -1.6792      0.7151     -0.2985
            y       0.6234     -2.0251      0.3202
            z      -0.3569      0.3186     -1.2128
-------------------------------------------------------------------------------
   47 O2    x      -1.8291      0.0191     -0.6463
            y       0.0178     -1.1672      0.0101
            z      -0.3632      0.0123     -1.7349
-------------------------------------------------------------------------------
   48 O2    x      -1.8525      0.0080      0.6380
            y      -0.0043     -1.1636     -0.0052
            z       0.3706     -0.0119     -1.7126
-------------------------------------------------------------------------------
   49 O3    x      -1.3427     -0.1475      0.0913
            y      -0.1793     -3.1808      0.1139
            z       0.1170      0.1102     -1.2018
-------------------------------------------------------------------------------
   50 O2    x      -1.1531     -0.0042     -0.0560
            y      -0.0325     -2.5717      0.0268
            z      -0.0700      0.0360     -1.0827
-------------------------------------------------------------------------------
   51 O2    x      -1.1565      0.0588      0.0511
            y       0.1245     -2.5780      0.0134
            z       0.0690      0.0178     -1.0990
-------------------------------------------------------------------------------
   52 O1    x      -1.4453      0.0929     -0.0876
            y       0.1622     -3.3670      0.0353
            z      -0.1181      0.0280     -1.2704
-------------------------------------------------------------------------------
   53 O3    x      -2.9983      0.0442      0.0790
            y      -0.0154     -1.3834      0.0990
            z       0.1101      0.0630     -1.2473
-------------------------------------------------------------------------------
   54 O2    x      -2.4111      0.1192     -0.0240
            y       0.0740     -1.2380     -0.0582
            z      -0.0107     -0.0344     -1.0867
-------------------------------------------------------------------------------
   55 O3    x      -3.0043     -0.2394     -0.0753
            y      -0.2002     -1.3938     -0.1021
            z      -0.1043     -0.0684     -1.2559
-------------------------------------------------------------------------------
   56 O3    x      -3.0539     -0.0759     -0.1068
            y       0.0172     -1.3601      0.0911
            z      -0.1269      0.0505     -1.2655
-------------------------------------------------------------------------------
   57 O3    x      -1.3447     -0.1606      0.0406
            y      -0.1466     -1.4520      0.0791
            z       0.0204      0.0494     -2.6001
-------------------------------------------------------------------------------
   58 O2    x      -1.1962     -0.1276      0.0297
            y      -0.1136     -1.2695     -0.0173
            z       0.0448     -0.0182     -2.0642
-------------------------------------------------------------------------------
   59 O2    x      -1.1887      0.1113      0.0241
            y       0.1029     -1.2831     -0.0207
            z       0.0157     -0.0095     -2.0939
-------------------------------------------------------------------------------
   60 O3    x      -1.3635      0.1623     -0.0441
            y       0.1449     -1.4476      0.1295
            z      -0.0304      0.0750     -2.5936
-------------------------------------------------------------------------------
   61 O2    x      -1.1775     -0.1146      0.0335
            y      -0.0612     -1.2915      0.0180
            z       0.0164     -0.0041     -2.0930
-------------------------------------------------------------------------------
   62 O3    x      -1.3385     -0.1603     -0.0150
            y      -0.0984     -1.4769     -0.1828
            z      -0.0042     -0.1323     -2.5664
-------------------------------------------------------------------------------
   63 O2    x      -1.1954      0.1295     -0.0063
            y       0.0849     -1.2759     -0.0574
            z      -0.0037     -0.0508     -2.0693
-------------------------------------------------------------------------------
   64 O2    x      -1.1704      0.1138     -0.0218
            y       0.0743     -1.2979      0.0096
            z      -0.0155     -0.0124     -2.0836
-------------------------------------------------------------------------------
   65 O2    x      -1.2775      0.0566      0.0469
            y       0.1159     -2.5695      0.0245
            z       0.0801      0.0230     -0.9947
-------------------------------------------------------------------------------
   66 O2    x      -1.2416      0.0518     -0.0670
            y       0.1128     -2.4966      0.0133
            z      -0.0988      0.0096     -1.0156
-------------------------------------------------------------------------------
   67 O2    x      -1.2303     -0.0374      0.0723
            y      -0.1013     -2.5050      0.0224
            z       0.0947      0.0097     -1.0153
-------------------------------------------------------------------------------
   68 O2    x      -1.2421     -0.0486     -0.0740
            y      -0.0988     -2.5381     -0.0096
            z      -0.0952     -0.0161     -1.0100
-------------------------------------------------------------------------------
   69 O2    x      -2.4375     -0.1073      0.0490
            y      -0.0733     -1.2481      0.0668
            z       0.0458      0.0284     -1.0498
-------------------------------------------------------------------------------
   70 O2    x      -2.4367     -0.0937      0.0367
            y      -0.0329     -1.2471     -0.0589
            z       0.0538     -0.0200     -1.0467
-------------------------------------------------------------------------------
   71 O2    x      -2.4207      0.0629     -0.0588
            y       0.0297     -1.2493     -0.0592
            z      -0.0604     -0.0291     -1.0441
-------------------------------------------------------------------------------
   72 O2    x      -2.4398      0.0713     -0.0253
            y       0.0488     -1.2313      0.0649
            z      -0.0260      0.0325     -1.0459
-------------------------------------------------------------------------------




  Elastic Constant Matrix: (Units=GPa)

-------------------------------------------------------------------------------
  Indices      1         2         3         4         5         6    
-------------------------------------------------------------------------------
       1     48.5335   21.2007   23.5532   -2.4827    1.7269   -2.9526
       2     21.2007   66.4087   23.8051   -3.1388    1.5132   -1.5992
       3     23.5532   23.8051   35.1693   -0.8878    0.0963   -2.9537
       4     -2.4827   -3.1388   -0.8878   11.3205   -0.6330    0.4210
       5      1.7269    1.5132    0.0963   -0.6330   22.7393   -3.7479
       6     -2.9526   -1.5992   -2.9537    0.4210   -3.7479   22.9908
-------------------------------------------------------------------------------


  Elastic Compliance Matrix: (Units=1/GPa)

-------------------------------------------------------------------------------
  Indices      1         2         3         4         5         6    
-------------------------------------------------------------------------------
       1    0.031387 -0.003014 -0.018777  0.004436 -0.001810  0.001033
       2   -0.003014  0.020439 -0.011772  0.004049 -0.001089 -0.000729
       3   -0.018777 -0.011772  0.049181 -0.003518  0.002490  0.003558
       4    0.004436  0.004049 -0.003518  0.090289  0.001763 -0.000967
       5   -0.001810 -0.001089  0.002490  0.001763  0.045443  0.007387
       6    0.001033 -0.000729  0.003558 -0.000967  0.007387  0.045257
-------------------------------------------------------------------------------

  Mechanical properties :

-------------------------------------------------------------------------------
  Convention :                    Reuss         Voigt         Hill
-------------------------------------------------------------------------------
  Bulk  Modulus (GPa)     =      29.51504      31.91441      30.71472
  Shear Modulus (GPa)     =      13.87288      16.84694      15.35991
-------------------------------------------------------------------------------
  Velocity S-wave (km/s)  =       2.66618       2.93810       2.80544
  Velocity P-wave (km/s)  =       4.96000       5.27854       5.12175
-------------------------------------------------------------------------------
  Compressibility (1/GPa) =    0.03388103
-------------------------------------------------------------------------------
  Stress axis :                     x             y             z
-------------------------------------------------------------------------------
  Youngs Moduli (GPa)     =      31.85999      48.92612      20.33320
-------------------------------------------------------------------------------
  Poissons Ratio (x)      =                     0.14745       0.38179
  Poissons Ratio (y)      =       0.09602                     0.23937
  Poissons Ratio (z)      =       0.59823       0.57598
-------------------------------------------------------------------------------


  Piezoelectric Strain Matrix: (Units=C/m**2)

-------------------------------------------------------------------------------
  Indices      1         2         3         4         5         6    
-------------------------------------------------------------------------------
       x     0.62909   0.62819  -0.26571   0.10948  -0.14468  -0.10271
       y     0.34515   0.60503   0.20969  -0.02435   0.04202   0.32490
       z     0.23162   0.36050  -0.07309  -0.07759  -0.27773   0.21581
-------------------------------------------------------------------------------


  Piezoelectric Stress Matrix: (Units=10**-11 C/N)

-------------------------------------------------------------------------------
  Indices      1         2         3         4         5         6    
-------------------------------------------------------------------------------
       x     2.34830   1.47474  -3.33862   1.59979  -0.96248  -0.65772
       y     0.52239   0.84760  -0.19441   0.08046   0.35052   1.56992
       z     0.79375   0.73616  -1.18385  -0.49592  -1.21571   0.75065
-------------------------------------------------------------------------------


  Static dielectric constant tensor : 

-------------------------------------------------------------------------------
              x         y         z
-------------------------------------------------------------------------------
       x     3.94800   0.01441   0.01904
       y     0.01441   4.14267  -0.07032
       z     0.01904  -0.07032   3.11537
--------------------------------------------------------------------------------

  High frequency dielectric constant tensor : 

-------------------------------------------------------------------------------
              x         y         z
-------------------------------------------------------------------------------
       x     1.67907  -0.00046   0.00062
       y    -0.00046   1.68458  -0.00147
       z     0.00062  -0.00147   1.61970
-------------------------------------------------------------------------------

  Static refractive indices : 

-------------------------------------------------------------------------------
    1 =    1.76355      2 =    1.98686      3 =    2.03674
-------------------------------------------------------------------------------

  High frequency refractive indices : 

-------------------------------------------------------------------------------
    1 =    1.27266      2 =    1.29578      3 =    1.29794
-------------------------------------------------------------------------------


  Time to end of optimisation =      10.5765 seconds


  Peak dynamic memory used =       5.01 MB 


  Timing analysis for GULP :

--------------------------------------------------------------------------------
  Task / Subroutine                                          Time (Seconds)
--------------------------------------------------------------------------------
  Calculation of reciprocal space energy and derivatives          0.5809
  Calculation of real space energy and derivatives                6.4173
  Calculation of three-body energy and derivatives                0.6412
  Calculation and manipulation of Hessian matrix                  3.1310
  Calculation of matrix inversion                                 0.0241
  Global summation overhead                                       0.0002
--------------------------------------------------------------------------------
  Total CPU time                                                 10.5765
--------------------------------------------------------------------------------


  Dump file written as c00213.vasp.grs
  CIF file written as c00213.vasp.cif


  Job Finished at 12:04.41  7th October    2025                               

