********************************************************************************
*                       GENERAL UTILITY LATTICE PROGRAM                        *
*                                 Julian Gale                                  *
*                       Curtin Institute for Computation                       *
*                    School of Molecular and Life Sciences                     *
*                    Curtin University, Western Australia                      *
********************************************************************************
* Version = 6.1.2 * Last modified =   3rd November 2022                        *
********************************************************************************
*  optimise     - perform optimisation run                                     *
*  conp         - constant pressure calculation                                *
*  property     - calculate properties for final geometry                      *
********************************************************************************

  Job Started  at 11:40.09 22nd October    2025                               

  Number of CPUs =     1


  Total number of configurations input =      1

********************************************************************************
*  Input for Configuration =   1 : c00059.vasp                                 *
********************************************************************************

  Formula = Ge8Si4O24                                                   

  Number of irreducible atoms/shells =      60


  Total number atoms/shells =      60

  Dimensionality = 3               :  Bulk   



  Cartesian lattice vectors (Angstroms) :

        9.086940    0.000000    0.000000
        0.000000    7.554810    0.000000
       -3.295144    0.000000    9.944380

  Cell parameters (Angstroms/Degrees):

  a =       9.0869    alpha =  90.0000
  b =       7.5548    beta  = 108.3330
  c =      10.4761    gamma =  90.0000

  Initial cell volume =         682.682735 Angs**3

  Temperature of configuration =   0.00     K 

  Pressure of configuration =         0.000 GPa 

  Fractional coordinates of asymmetric unit :

--------------------------------------------------------------------------------
   No.  Atomic       x           y          z         Charge      Occupancy
        Label      (Frac)      (Frac)     (Frac)        (e)         (Frac)  
--------------------------------------------------------------------------------
      1 Ge    c    0.313820    0.296860    0.309830     4.00000    1.000000    
      2 Ge    c    0.686180 *  0.296860 *  0.690170 *   4.00000    1.000000    
      3 Ge    c    0.686180 *  0.703140 *  0.690170 *   4.00000    1.000000    
      4 Ge    c    0.331050 *  0.296920 *  0.607380 *   4.00000    1.000000    
      5 Ge    c    0.879680 *  0.000000 *  0.350160 *   4.00000    1.000000    
      6 Ge    c    0.120320 *  0.000000 *  0.649840 *   4.00000    1.000000    
      7 Ge    c    0.093070 *  0.000000 *  0.158230 *   4.00000    1.000000    
      8 Ge    c    0.906930 *  0.000000 *  0.841770 *   4.00000    1.000000    
      9 Si    c    0.313820 *  0.703140 *  0.309830 *   4.00000    1.000000    
     10 Si    c    0.668950 *  0.296920 *  0.392620 *   4.00000    1.000000    
     11 Si    c    0.668950 *  0.703080 *  0.392620 *   4.00000    1.000000    
     12 Si    c    0.331050 *  0.703080 *  0.607380 *   4.00000    1.000000    
     13 O1    c    0.268740 *  0.279030 *  0.446100 *   1.73396    1.000000    
     14 O3    c    0.731260 *  0.279030 *  0.553900 *   1.33043    1.000000    
     15 O3    c    0.731260 *  0.720970 *  0.553900 *   1.33043    1.000000    
     16 O2    c    0.268740 *  0.720970 *  0.446100 *   0.87073    1.000000    
     17 O3    c    0.295480 *  0.500000 *  0.260860 *   1.33043    1.000000    
     18 O1    c    0.704520 *  0.500000 *  0.739140 *   1.73396    1.000000    
     19 O3    c    0.490600 *  0.234690 *  0.337530 *   1.33043    1.000000    
     20 O1    c    0.509400 *  0.234690 *  0.662470 *   1.73396    1.000000    
     21 O3    c    0.509400 *  0.765310 *  0.662470 *   1.33043    1.000000    
     22 O2    c    0.490600 *  0.765310 *  0.337530 *   0.87073    1.000000    
     23 O1    c    0.200440 *  0.174000 *  0.194980 *   1.73396    1.000000    
     24 O1    c    0.799560 *  0.174000 *  0.805020 *   1.73396    1.000000    
     25 O1    c    0.799560 *  0.826000 *  0.805020 *   1.73396    1.000000    
     26 O3    c    0.200440 *  0.826000 *  0.194980 *   1.33043    1.000000    
     27 O3    c    0.317860 *  0.500000 *  0.649090 *   1.33043    1.000000    
     28 O2    c    0.682140 *  0.500000 *  0.350910 *   0.87073    1.000000    
     29 O1    c    0.227920 *  0.173870 *  0.671620 *   1.73396    1.000000    
     30 O3    c    0.772080 *  0.173870 *  0.328380 *   1.33043    1.000000    
     31 O3    c    0.772080 *  0.826130 *  0.328380 *   1.33043    1.000000    
     32 O3    c    0.227920 *  0.826130 *  0.671620 *   1.33043    1.000000    
     33 O1    c    0.000000 *  0.000000 *  0.500000 *   1.73396    1.000000    
     34 O1    c    0.971960 *  0.000000 *  0.241930 *   1.73396    1.000000    
     35 O1    c    0.028040 *  0.000000 *  0.758070 *   1.73396    1.000000    
     36 O1    c    0.000000 *  0.000000 *  0.000000 *   1.73396    1.000000    
     37 O1    s    0.268740 *  0.279030 *  0.446100 *  -3.73396    1.000000    
     38 O3    s    0.731260 *  0.279030 *  0.553900 *  -3.33043    1.000000    
     39 O3    s    0.731260 *  0.720970 *  0.553900 *  -3.33043    1.000000    
     40 O2    s    0.268740 *  0.720970 *  0.446100 *  -2.87073    1.000000    
     41 O3    s    0.295480 *  0.500000 *  0.260860 *  -3.33043    1.000000    
     42 O1    s    0.704520 *  0.500000 *  0.739140 *  -3.73396    1.000000    
     43 O3    s    0.490600 *  0.234690 *  0.337530 *  -3.33043    1.000000    
     44 O1    s    0.509400 *  0.234690 *  0.662470 *  -3.73396    1.000000    
     45 O3    s    0.509400 *  0.765310 *  0.662470 *  -3.33043    1.000000    
     46 O2    s    0.490600 *  0.765310 *  0.337530 *  -2.87073    1.000000    
     47 O1    s    0.200440 *  0.174000 *  0.194980 *  -3.73396    1.000000    
     48 O1    s    0.799560 *  0.174000 *  0.805020 *  -3.73396    1.000000    
     49 O1    s    0.799560 *  0.826000 *  0.805020 *  -3.73396    1.000000    
     50 O3    s    0.200440 *  0.826000 *  0.194980 *  -3.33043    1.000000    
     51 O3    s    0.317860 *  0.500000 *  0.649090 *  -3.33043    1.000000    
     52 O2    s    0.682140 *  0.500000 *  0.350910 *  -2.87073    1.000000    
     53 O1    s    0.227920 *  0.173870 *  0.671620 *  -3.73396    1.000000    
     54 O3    s    0.772080 *  0.173870 *  0.328380 *  -3.33043    1.000000    
     55 O3    s    0.772080 *  0.826130 *  0.328380 *  -3.33043    1.000000    
     56 O3    s    0.227920 *  0.826130 *  0.671620 *  -3.33043    1.000000    
     57 O1    s    0.000000 *  0.000000 *  0.500000 *  -3.73396    1.000000    
     58 O1    s    0.971960 *  0.000000 *  0.241930 *  -3.73396    1.000000    
     59 O1    s    0.028040 *  0.000000 *  0.758070 *  -3.73396    1.000000    
     60 O1    s    0.000000 *  0.000000 *  0.000000 *  -3.73396    1.000000    
--------------------------------------------------------------------------------



********************************************************************************
*  General input information                                                   *
********************************************************************************

  Species output for all configurations : 

--------------------------------------------------------------------------------
  Species    Type    Atomic    Atomic    Charge       Radii (Angs)     Library
                     Number     Mass       (e)     Cova   Ionic  VDW   Symbol
--------------------------------------------------------------------------------
    Ge       Core       32      72.61   4.000000   1.170  0.000  1.750 Ge       
    Si       Core       14      28.09   4.000000   1.200  0.000  2.100 Si       
    O1       Core        8      16.00   1.733957   0.730  0.000  1.360 O1       
    O2       Core        8      16.00   0.870733   0.730  0.000  1.360 O2       
    O3       Core        8      16.00   1.330431   0.730  0.000  1.360 O3       
    O1       Shell       8       0.00  -3.733957   0.730  0.000  0.000 O1       
    O2       Shell       8       0.00  -2.870733   0.730  0.000  0.000 O2       
    O3       Shell       8       0.00  -3.330431   0.730  0.000  0.000 O3       
--------------------------------------------------------------------------------


  Lattice summation method               =    Ewald          (3-D)
                                         =    Parry          (2-D)
                                         =    Saunders et al (1-D)
  Accuracy factor for lattice sums       =   12.000


  Analytic derivatives to be used

  Time limit = Infinity

  Maximum range for interatomic potentials =    100000.000000 Angstroms

  General interatomic potentials :

--------------------------------------------------------------------------------
Atom  Types   Potential      Parameter       Value         Units   Cutoffs(Ang)
  1     2                                                            Min /  Max 
--------------------------------------------------------------------------------
Si   c O1   s Buckingham    Buckingham A     1315.2478    eV        0.000 16.000
                            Buckingham rho  0.31775900    Ang       
                            Buckingham C     10.141118    eV*Ang^6  
--------------------------------------------------------------------------------
Si   c O2   s Buckingham    Buckingham A     1315.2478    eV        0.000 16.000
                            Buckingham rho  0.31775900    Ang       
                            Buckingham C     10.141118    eV*Ang^6  
--------------------------------------------------------------------------------
Si   c O3   s Buckingham    Buckingham A     1315.2478    eV        0.000 16.000
                            Buckingham rho  0.31775900    Ang       
                            Buckingham C     10.141118    eV*Ang^6  
--------------------------------------------------------------------------------
Ge   c O1   s Buckingham    Buckingham A     1497.3996    eV        0.000 16.000
                            Buckingham rho  0.32564600    Ang       
                            Buckingham C     16.808599    eV*Ang^6  
--------------------------------------------------------------------------------
Ge   c O2   s Buckingham    Buckingham A     1497.3996    eV        0.000 16.000
                            Buckingham rho  0.32564600    Ang       
                            Buckingham C     16.808599    eV*Ang^6  
--------------------------------------------------------------------------------
Ge   c O3   s Buckingham    Buckingham A     1497.3996    eV        0.000 16.000
                            Buckingham rho  0.32564600    Ang       
                            Buckingham C     16.808599    eV*Ang^6  
--------------------------------------------------------------------------------
O1   s O1   s Buckingham    Buckingham A     22764.000    eV        0.000 16.000
                            Buckingham rho  0.14900000    Ang       
                            Buckingham C     10.937044    eV*Ang^6  
--------------------------------------------------------------------------------
O1   s O2   s Buckingham    Buckingham A     22764.000    eV        0.000 16.000
                            Buckingham rho  0.14900000    Ang       
                            Buckingham C     10.937044    eV*Ang^6  
--------------------------------------------------------------------------------
O1   s O3   s Buckingham    Buckingham A     22764.000    eV        0.000 16.000
                            Buckingham rho  0.14900000    Ang       
                            Buckingham C     10.937044    eV*Ang^6  
--------------------------------------------------------------------------------
O2   s O2   s Buckingham    Buckingham A     22764.000    eV        0.000 16.000
                            Buckingham rho  0.14900000    Ang       
                            Buckingham C     10.937044    eV*Ang^6  
--------------------------------------------------------------------------------
O2   s O3   s Buckingham    Buckingham A     22764.000    eV        0.000 16.000
                            Buckingham rho  0.14900000    Ang       
                            Buckingham C     10.937044    eV*Ang^6  
--------------------------------------------------------------------------------
O3   s O3   s Buckingham    Buckingham A     22764.000    eV        0.000 16.000
                            Buckingham rho  0.14900000    Ang       
                            Buckingham C     10.937044    eV*Ang^6  
--------------------------------------------------------------------------------
O1   c O1   s Spring (c-s)  Spring k 2       180.31577    eV*Ang^-2 0.000  0.800
                            Spring k 4       0.0000000    eV*Ang^-4 
--------------------------------------------------------------------------------
O2   c O2   s Spring (c-s)  Spring k 2       75.969800    eV*Ang^-2 0.000  0.800
                            Spring k 4       0.0000000    eV*Ang^-4 
--------------------------------------------------------------------------------
O3   c O3   s Spring (c-s)  Spring k 2       128.14270    eV*Ang^-2 0.000  0.800
                            Spring k 4       0.0000000    eV*Ang^-4 
--------------------------------------------------------------------------------

  General Three-body potentials :

--------------------------------------------------------------------------------
  Atoms       Potential      Parameter       Value         Units   Cutoffs(Ang)
  1 / 2 / 3                                                          Min /  Max 
--------------------------------------------------------------------------------
Si    core    Harmonic      Three-body cnst  1.2614000    eV*rad^-2 0.000  1.900
O1    shel                  Three-body angl  109.47000    degrees   0.000  1.900
O1    shel                  Three-body k4    0.0000000    eV*rad^-4 0.000  3.500
                            Three-body k3    0.0000000    eV*rad^-3 
--------------------------------------------------------------------------------
Si    core    Harmonic      Three-body cnst  1.2614000    eV*rad^-2 0.000  1.900
O1    shel                  Three-body angl  109.47000    degrees   0.000  1.900
õ(1   shel                  Three-body k4    0.0000000    eV*rad^-4 0.000  3.500
                            Three-body k3    0.0000000    eV*rad^-3 
--------------------------------------------------------------------------------
Si    core    Harmonic      Three-body cnst  1.2614000    eV*rad^-2 0.000  1.900
õ(1   shel                  Three-body angl  109.47000    degrees   0.000  1.900
õ(1   shel                  Three-body k4    0.0000000    eV*rad^-4 0.000  3.500
                            Three-body k3    0.0000000    eV*rad^-3 
--------------------------------------------------------------------------------
Si    core    Harmonic      Three-body cnst  1.2614000    eV*rad^-2 0.000  1.900
O1    shel                  Three-body angl  109.47000    degrees   0.000  1.900
O2    shel                  Three-body k4    0.0000000    eV*rad^-4 0.000  3.500
                            Three-body k3    0.0000000    eV*rad^-3 
--------------------------------------------------------------------------------
Si    core    Harmonic      Three-body cnst  1.2614000    eV*rad^-2 0.000  1.900
O1    shel                  Three-body angl  109.47000    degrees   0.000  1.900
õ(2   shel                  Three-body k4    0.0000000    eV*rad^-4 0.000  3.500
                            Three-body k3    0.0000000    eV*rad^-3 
--------------------------------------------------------------------------------
Si    core    Harmonic      Three-body cnst  1.2614000    eV*rad^-2 0.000  1.900
O2    shel                  Three-body angl  109.47000    degrees   0.000  1.900
õ(1   shel                  Three-body k4    0.0000000    eV*rad^-4 0.000  3.500
                            Three-body k3    0.0000000    eV*rad^-3 
--------------------------------------------------------------------------------
Si    core    Harmonic      Three-body cnst  1.2614000    eV*rad^-2 0.000  1.900
õ(1   shel                  Three-body angl  109.47000    degrees   0.000  1.900
õ(2   shel                  Three-body k4    0.0000000    eV*rad^-4 0.000  3.500
                            Three-body k3    0.0000000    eV*rad^-3 
--------------------------------------------------------------------------------
Si    core    Harmonic      Three-body cnst  1.2614000    eV*rad^-2 0.000  1.900
O2    shel                  Three-body angl  109.47000    degrees   0.000  1.900
O2    shel                  Three-body k4    0.0000000    eV*rad^-4 0.000  3.500
                            Three-body k3    0.0000000    eV*rad^-3 
--------------------------------------------------------------------------------
Si    core    Harmonic      Three-body cnst  1.2614000    eV*rad^-2 0.000  1.900
O2    shel                  Three-body angl  109.47000    degrees   0.000  1.900
õ(2   shel                  Three-body k4    0.0000000    eV*rad^-4 0.000  3.500
                            Three-body k3    0.0000000    eV*rad^-3 
--------------------------------------------------------------------------------
Si    core    Harmonic      Three-body cnst  1.2614000    eV*rad^-2 0.000  1.900
õ(2   shel                  Three-body angl  109.47000    degrees   0.000  1.900
õ(2   shel                  Three-body k4    0.0000000    eV*rad^-4 0.000  3.500
                            Three-body k3    0.0000000    eV*rad^-3 
--------------------------------------------------------------------------------

********************************************************************************
*  Output for configuration   1 : c00059.vasp                                  *
********************************************************************************


  Components of energy : 

--------------------------------------------------------------------------------
  Interatomic potentials     =         432.39739746 eV    
  Three-body potentials      =           0.00000004 eV    
  Monopole - monopole (real) =       -1236.99964305 eV    
  Monopole - monopole (recip)=        -659.26603192 eV    
  Monopole - monopole (total)=       -1896.26567496 eV    
--------------------------------------------------------------------------------
  Total lattice energy       =       -1463.86827746 eV    
--------------------------------------------------------------------------------
  Total lattice energy       =         -141240.9115 kJ/(mole unit cells)
--------------------------------------------------------------------------------


  Number of variables =      183

  Maximum number of calculations  =          1000
  Maximum Hessian update interval =            10
  Maximum step size               =   0.100000000
  Maximum parameter tolerance     =   0.000010000
  Maximum function  tolerance     =   0.000010000
  Maximum gradient  tolerance     =   0.001000000
  Maximum gradient  component     =   0.010000000

  Symmetry not applied to optimisation

  Cell parameters to be optimised using strains

  Newton-Raphson optimiser to be used

  BFGS hessian update to be used

  Lower half triangular hessian to be used

  Minimiser to switch to RFO
  When gradient norm is less than     0.050000

  Dumpfile to be written after every cycle

  Start of bulk optimisation :

  Cycle:      0 Energy:     -1463.868277  Gnorm:      6.175083  CPU:    0.038
  ** Hessian calculated **
  Cycle:      1 Energy:     -1477.786853  Gnorm:      3.824093  CPU:    0.109
  ** Hessian calculated **
  Cycle:      2 Energy:     -1484.743706  Gnorm:      1.083405  CPU:    0.176
  Cycle:      3 Energy:     -1485.719114  Gnorm:      0.461507  CPU:    0.218
  Cycle:      4 Energy:     -1486.035245  Gnorm:      0.336690  CPU:    0.259
  Cycle:      5 Energy:     -1486.419051  Gnorm:      0.301894  CPU:    0.307
  Cycle:      6 Energy:     -1486.792125  Gnorm:      0.325903  CPU:    0.355
  Cycle:      7 Energy:     -1487.016895  Gnorm:      0.258259  CPU:    0.395
  Cycle:      8 Energy:     -1487.158033  Gnorm:      0.215913  CPU:    0.435
  Cycle:      9 Energy:     -1487.255614  Gnorm:      0.162192  CPU:    0.475
  Cycle:     10 Energy:     -1487.329172  Gnorm:      0.136513  CPU:    0.523
  Cycle:     11 Energy:     -1487.375104  Gnorm:      0.118566  CPU:    0.564
  ** Hessian calculated **
  Cycle:     12 Energy:     -1487.438892  Gnorm:      0.113932  CPU:    0.663
  Cycle:     13 Energy:     -1487.545176  Gnorm:      0.105689  CPU:    0.734
  Cycle:     14 Energy:     -1487.671972  Gnorm:      0.094644  CPU:    0.784
  Cycle:     15 Energy:     -1487.757979  Gnorm:      0.086261  CPU:    0.843
  ** Hessian calculated **
  Cycle:     16 Energy:     -1487.851142  Gnorm:      0.075363  CPU:    0.921
  ** Hessian calculated **
  Cycle:     17 Energy:     -1487.963672  Gnorm:      0.065421  CPU:    0.999
  Cycle:     18 Energy:     -1488.083347  Gnorm:      0.066575  CPU:    1.046
  Cycle:     19 Energy:     -1488.151278  Gnorm:      0.044970  CPU:    1.084
  ** Hessian has wrong structure
  ** Imaginary eigenvectors =   2
  Cycle:     20 Energy:     -1488.160085  Gnorm:      0.070922  CPU:    1.174
  ** Hessian has wrong structure
  ** Imaginary eigenvectors =   2
  ** Hessian has wrong structure
  ** Imaginary eigenvectors =   2
  Cycle:     21 Energy:     -1488.208155  Gnorm:      0.104028  CPU:    1.341
  ** Hessian has wrong structure
  ** Imaginary eigenvectors =   1
  ** Hessian has required structure
  Cycle:     22 Energy:     -1488.327294  Gnorm:      0.072251  CPU:    1.462
  ** Hessian has required structure
  Cycle:     23 Energy:     -1488.385367  Gnorm:      0.057088  CPU:    1.518
  ** Hessian has required structure
  Cycle:     24 Energy:     -1488.433491  Gnorm:      0.041389  CPU:    1.573
  ** Hessian has required structure
  Cycle:     25 Energy:     -1488.454353  Gnorm:      0.073269  CPU:    1.621
  ** Hessian has required structure
  Cycle:     26 Energy:     -1488.489350  Gnorm:      0.058228  CPU:    1.669
  ** Hessian has required structure
  Cycle:     27 Energy:     -1488.507174  Gnorm:      0.064383  CPU:    1.717
  ** Hessian has required structure
  Cycle:     28 Energy:     -1488.517695  Gnorm:      0.050573  CPU:    1.765
  ** Hessian has required structure
  Cycle:     29 Energy:     -1488.532019  Gnorm:      0.036155  CPU:    1.820
  ** Hessian has required structure
  Cycle:     30 Energy:     -1488.541979  Gnorm:      0.029642  CPU:    1.868
  ** Hessian has required structure
  Cycle:     31 Energy:     -1488.549166  Gnorm:      0.035187  CPU:    1.916
  ** Hessian has required structure
  Cycle:     32 Energy:     -1488.567159  Gnorm:      0.033292  CPU:    1.996
  ** Hessian has required structure
  Cycle:     33 Energy:     -1488.587556  Gnorm:      0.039386  CPU:    2.052
  ** Hessian has required structure
  Cycle:     34 Energy:     -1488.602194  Gnorm:      0.047218  CPU:    2.099
  ** Hessian has required structure
  Cycle:     35 Energy:     -1488.610782  Gnorm:      0.044149  CPU:    2.147
  ** Hessian has required structure
  Cycle:     36 Energy:     -1488.624053  Gnorm:      0.031418  CPU:    2.195
  ** Hessian has required structure
  Cycle:     37 Energy:     -1488.634600  Gnorm:      0.034509  CPU:    2.249
  ** Hessian has required structure
  Cycle:     38 Energy:     -1488.644318  Gnorm:      0.026166  CPU:    2.305
  ** Hessian has required structure
  Cycle:     39 Energy:     -1488.651348  Gnorm:      0.023760  CPU:    2.353
  ** Hessian has required structure
  Cycle:     40 Energy:     -1488.657798  Gnorm:      0.019714  CPU:    2.414
  ** Hessian has required structure
  Cycle:     41 Energy:     -1488.663131  Gnorm:      0.010355  CPU:    2.483
  ** Hessian has required structure
  Cycle:     42 Energy:     -1488.668434  Gnorm:      0.008745  CPU:    2.601
  ** Hessian has required structure
  Cycle:     43 Energy:     -1488.669971  Gnorm:      0.007400  CPU:    2.694
  ** Hessian has required structure
  Cycle:     44 Energy:     -1488.670755  Gnorm:      0.004006  CPU:    2.788
  ** Hessian has required structure
  Cycle:     45 Energy:     -1488.671104  Gnorm:      0.003243  CPU:    2.883
  ** Hessian has required structure
  Cycle:     46 Energy:     -1488.671236  Gnorm:      0.001479  CPU:    2.963
  ** Hessian has required structure
  Cycle:     47 Energy:     -1488.671311  Gnorm:      0.001402  CPU:    3.057
  ** Hessian has required structure
  Cycle:     48 Energy:     -1488.671335  Gnorm:      0.000484  CPU:    3.150
  ** Hessian has required structure
  Cycle:     49 Energy:     -1488.671343  Gnorm:      0.000341  CPU:    3.231
  ** Hessian has required structure
  Cycle:     50 Energy:     -1488.671345  Gnorm:      0.000251  CPU:    3.297
  ** Hessian has required structure
  Cycle:     51 Energy:     -1488.671348  Gnorm:      0.000186  CPU:    3.364
  ** Hessian has required structure


  **** Optimisation achieved ****


  Final energy =   -1488.67134850 eV      
  Final Gnorm  =       0.00018228

  Components of energy : 

--------------------------------------------------------------------------------
  Interatomic potentials     =         395.99345288 eV    
  Three-body potentials      =           0.01314689 eV    
  Monopole - monopole (real) =        -669.31031738 eV    
  Monopole - monopole (recip)=       -1215.36763089 eV    
  Monopole - monopole (total)=       -1884.67794827 eV    
--------------------------------------------------------------------------------
  Total lattice energy       =       -1488.67134850 eV    
--------------------------------------------------------------------------------
  Total lattice energy       =         -143634.0287 kJ/(mole unit cells)
--------------------------------------------------------------------------------

  Final fractional coordinates of atoms :

--------------------------------------------------------------------------------
   No.  Atomic        x           y          z          Radius
        Label       (Frac)      (Frac)     (Frac)       (Angs) 
--------------------------------------------------------------------------------
     1  Ge    c     0.313820    0.296860    0.309830    0.000000
     2  Ge    c     0.723534    0.266888    0.704576    0.000000
     3  Ge    c     0.672632    0.690933    0.709103    0.000000
     4  Ge    c     0.359482    0.218666    0.633120    0.000000
     5  Ge    c     0.861768    0.036956    0.334310    0.000000
     6  Ge    c     0.123603    0.924470    0.637919    0.000000
     7  Ge    c     0.095207    0.995849    0.174913    0.000000
     8  Ge    c     0.938575    0.939775    0.856382    0.000000
     9  Si    c     0.314611    0.679814    0.329669    0.000000
    10  Si    c     0.678289    0.329144    0.392668    0.000000
    11  Si    c     0.649213    0.736677    0.396096    0.000000
    12  Si    c     0.338271    0.612271    0.634246    0.000000
    13  O1    c     0.282503    0.217059    0.457163    0.000000
    14  O3    c     0.750431    0.248638    0.549253    0.000000
    15  O3    c     0.687152    0.776954    0.552930    0.000000
    16  O2    c     0.366277    0.586997    0.488007    0.000000
    17  O3    c     0.258974    0.513916    0.246807    0.000000
    18  O1    c     0.728467    0.476137    0.744169    0.000000
    19  O3    c     0.503773    0.279573    0.332672    0.000000
    20  O1    c     0.551095    0.176331    0.690845    0.000000
    21  O3    c     0.490026    0.707175    0.717049    0.000000
    22  O2    c     0.468066    0.764044    0.312450    0.000000
    23  O1    c     0.204082    0.176061    0.184894    0.000000
    24  O1    c     0.872906    0.152507    0.823363    0.000000
    25  O1    c     0.783250    0.809902    0.832586    0.000000
    26  O3    c     0.191738    0.830561    0.301256    0.000000
    27  O3    c     0.327662    0.415313    0.691740    0.000000
    28  O2    c     0.697615    0.537627    0.389554    0.000000
    29  O1    c     0.269436    0.061904    0.702665    0.000000
    30  O3    c     0.767818    0.237321    0.310202    0.000000
    31  O3    c     0.739464    0.865236    0.325523    0.000000
    32  O3    c     0.190030    0.722424    0.615931    0.000000
    33  O1    c     0.013055    0.021335    0.482039    0.000000
    34  O1    c     0.927099    0.036461    0.198981    0.000000
    35  O1    c     0.026649    0.876506    0.747564    0.000000
    36  O1    c     0.063008    0.914814    0.020499    0.000000
    37  O1    s     0.290332    0.223075    0.458791    0.000000
    38  O3    s     0.741534    0.257557    0.546148    0.000000
    39  O3    s     0.682497    0.766796    0.549745    0.000000
    40  O2    s     0.359588    0.596968    0.486500    0.000000
    41  O3    s     0.268366    0.514646    0.259499    0.000000
    42  O1    s     0.723689    0.476048    0.738225    0.000000
    43  O3    s     0.505457    0.286009    0.336795    0.000000
    44  O1    s     0.549366    0.186219    0.687494    0.000000
    45  O3    s     0.488992    0.696922    0.708489    0.000000
    46  O2    s     0.470759    0.753012    0.322370    0.000000
    47  O1    s     0.204114    0.171420    0.193718    0.000000
    48  O1    s     0.866350    0.145531    0.816760    0.000000
    49  O1    s     0.786008    0.810056    0.824506    0.000000
    50  O3    s     0.197538    0.826944    0.295029    0.000000
    51  O3    s     0.331072    0.420281    0.681786    0.000000
    52  O2    s     0.690530    0.536449    0.390518    0.000000
    53  O1    s     0.265194    0.063399    0.692514    0.000000
    54  O3    s     0.766123    0.231171    0.320236    0.000000
    55  O3    s     0.739761    0.865471    0.333666    0.000000
    56  O3    s     0.200586    0.726250    0.619481    0.000000
    57  O1    s     0.009540    0.014968    0.482360    0.000000
    58  O1    s     0.934961    0.033398    0.207312    0.000000
    59  O1    s     0.027667    0.885260    0.747063    0.000000
    60  O1    s     0.055866    0.922981    0.019685    0.000000
--------------------------------------------------------------------------------

  Final Cartesian lattice vectors (Angstroms) :

        9.359929   -0.025867   -0.060757
       -0.034734    7.704190    0.362072
       -3.439521    0.485640    9.806237


  Final cell parameters and derivatives :

--------------------------------------------------------------------------------
       a            9.360162 Angstrom     dE/de1(xx)     0.005400 eV/strain
       b            7.712771 Angstrom     dE/de2(yy)     0.006808 eV/strain
       c           10.403289 Angstrom     dE/de3(zz)     0.003632 eV/strain
       alpha       84.700110 Degrees      dE/de4(yz)     0.000071 eV/strain
       beta       109.685552 Degrees      dE/de5(xz)     0.001307 eV/strain
       gamma       90.433650 Degrees      dE/de6(xy)     0.001044 eV/strain
--------------------------------------------------------------------------------

  Primitive cell volume =           703.902923 Angs**3

  Density of cell =      2.541299 g/cm**3

  Non-primitive cell volume =           703.902923 Angs**3


  Final internal derivatives :

--------------------------------------------------------------------------------
   No.  Atomic          a             b             c           Radius
        Label          (eV)          (eV)          (eV)        (eV/Angs)
--------------------------------------------------------------------------------
      1 Ge    c       0.000000      0.000000      0.000000      0.000000
      2 Ge    c      -0.000171      0.000756      0.004378      0.000000
      3 Ge    c      -0.000124      0.001006     -0.000590      0.000000
      4 Ge    c      -0.000622      0.000822      0.000187      0.000000
      5 Ge    c       0.002394      0.001038      0.003621      0.000000
      6 Ge    c      -0.005224      0.000673      0.002581      0.000000
      7 Ge    c      -0.001150      0.001577      0.000661      0.000000
      8 Ge    c       0.005529     -0.001830     -0.002699      0.000000
      9 Si    c       0.000939      0.000142      0.003028      0.000000
     10 Si    c       0.005142     -0.001294     -0.006849      0.000000
     11 Si    c      -0.001053     -0.000491     -0.000558      0.000000
     12 Si    c       0.001411      0.000604     -0.002175      0.000000
     13 O1    c      -0.002421     -0.000533      0.002959      0.000000
     14 O3    c       0.008090     -0.003436      0.000011      0.000000
     15 O3    c       0.000826      0.001024      0.001978      0.000000
     16 O2    c       0.001426     -0.000858     -0.001732      0.000000
     17 O3    c       0.000190     -0.004408     -0.004362      0.000000
     18 O1    c      -0.000324      0.000230      0.001797      0.000000
     19 O3    c       0.000772     -0.005039     -0.000742      0.000000
     20 O1    c      -0.007207     -0.003478      0.001192      0.000000
     21 O3    c       0.000193      0.001267      0.001423      0.000000
     22 O2    c       0.002352      0.001174     -0.001423      0.000000
     23 O1    c       0.000692     -0.000647     -0.001172      0.000000
     24 O1    c      -0.000383     -0.000629      0.000548      0.000000
     25 O1    c      -0.000584      0.000227     -0.000144      0.000000
     26 O3    c      -0.001209     -0.000517      0.002266      0.000000
     27 O3    c       0.000088     -0.003043      0.000462      0.000000
     28 O2    c       0.000435      0.006328      0.001403      0.000000
     29 O1    c       0.000307     -0.000875     -0.001251      0.000000
     30 O3    c      -0.001907     -0.000246      0.003212      0.000000
     31 O3    c       0.000233      0.000929     -0.000241      0.000000
     32 O3    c      -0.001089      0.001247      0.000763      0.000000
     33 O1    c      -0.006874     -0.000178      0.000867      0.000000
     34 O1    c       0.003232     -0.000318     -0.001083      0.000000
     35 O1    c       0.004444      0.005568      0.000988      0.000000
     36 O1    c      -0.003827     -0.000368     -0.009819      0.000000
     37 O1    s      -0.001033     -0.001202      0.001611      0.000000
     38 O3    s       0.001138     -0.001499      0.002061      0.000000
     39 O3    s      -0.001197      0.000631     -0.001060      0.000000
     40 O2    s      -0.002330      0.000985      0.002119      0.000000
     41 O3    s      -0.002059      0.002005     -0.002128      0.000000
     42 O1    s       0.001234      0.001880      0.002094      0.000000
     43 O3    s      -0.002012     -0.001626     -0.003674      0.000000
     44 O1    s       0.001492     -0.000365     -0.000827      0.000000
     45 O3    s       0.000300      0.000808      0.000977      0.000000
     46 O2    s       0.001466      0.000991     -0.000441      0.000000
     47 O1    s      -0.000850      0.000791     -0.001130      0.000000
     48 O1    s       0.002814     -0.000953      0.000690      0.000000
     49 O1    s       0.002263      0.000069      0.000515      0.000000
     50 O3    s      -0.001534      0.000576      0.000017      0.000000
     51 O3    s      -0.001549      0.000385      0.002537      0.000000
     52 O2    s       0.003533      0.002330     -0.004507      0.000000
     53 O1    s      -0.002357      0.000352      0.000809      0.000000
     54 O3    s       0.003357     -0.001524     -0.004456      0.000000
     55 O3    s       0.001130     -0.000278     -0.000472      0.000000
     56 O3    s      -0.003179      0.000344      0.001245      0.000000
     57 O1    s       0.004181     -0.001061      0.001204      0.000000
     58 O1    s      -0.003906      0.000458      0.001061      0.000000
     59 O1    s      -0.000578     -0.002239     -0.001326      0.000000
     60 O1    s       0.000961     -0.000001      0.002740      0.000000
--------------------------------------------------------------------------------
  Maximum abs         0.008090      0.006328      0.009819      0.000000
--------------------------------------------------------------------------------


  Born effective charge tensors : 

-------------------------------------------------------------------------------
  Atom             x           y             z
-------------------------------------------------------------------------------
    1 Ge    x       3.7623      0.3290      0.2466
            y       0.3182      4.2343      0.2858
            z       0.1568      0.2841      3.6128
-------------------------------------------------------------------------------
    2 Ge    x       3.8678     -0.1092      0.2931
            y      -0.3386      4.2078     -0.2331
            z       0.2995     -0.0930      3.6411
-------------------------------------------------------------------------------
    3 Ge    x       3.8048      0.2687      0.2991
            y       0.1859      4.1541      0.3428
            z       0.2859      0.1835      3.6703
-------------------------------------------------------------------------------
    4 Ge    x       4.0471      0.3602     -0.0852
            y       0.2887      4.2051     -0.0013
            z       0.1333     -0.0689      3.3719
-------------------------------------------------------------------------------
    5 Ge    x       4.5794     -0.1104     -0.1225
            y      -0.0219      3.9463      0.0382
            z      -0.2914      0.0863      3.6888
-------------------------------------------------------------------------------
    6 Ge    x       4.5157     -0.1476     -0.0368
            y       0.1367      3.9502      0.1867
            z      -0.3604     -0.2510      3.6547
-------------------------------------------------------------------------------
    7 Ge    x       4.1042     -0.0563      0.3423
            y       0.1376      3.9763     -0.1410
            z      -0.1286      0.5705      4.4545
-------------------------------------------------------------------------------
    8 Ge    x       4.0470     -0.3028     -0.0549
            y       0.1839      3.8979      0.1558
            z       0.4937      0.0781      4.7389
-------------------------------------------------------------------------------
    9 Si    x       3.2652     -0.2617      0.0592
            y      -0.4187      3.8280      0.1952
            z       0.4315     -0.1990      2.8053
-------------------------------------------------------------------------------
   10 Si    x       3.7654     -0.2531     -0.1157
            y      -0.4235      3.6623      0.2778
            z       0.0532      0.0571      3.1259
-------------------------------------------------------------------------------
   11 Si    x       3.5442      0.4262     -0.2095
            y       0.4080      3.5844     -0.1211
            z      -0.1690      0.0515      3.0663
-------------------------------------------------------------------------------
   12 Si    x       3.7761     -0.1217      0.2246
            y      -0.3216      3.8407     -0.1755
            z      -0.0928      0.1726      2.7813
-------------------------------------------------------------------------------
   13 O1    x      -1.5172     -0.2159      0.3373
            y      -0.2107     -1.5668      0.0994
            z       0.2508      0.1368     -2.5440
-------------------------------------------------------------------------------
   14 O3    x      -1.3833      0.1131      0.2128
            y       0.1317     -1.4865      0.2562
            z       0.2022      0.2108     -2.4359
-------------------------------------------------------------------------------
   15 O3    x      -1.4108     -0.1309      0.2840
            y      -0.1085     -1.4361     -0.1098
            z       0.3000     -0.0474     -2.4920
-------------------------------------------------------------------------------
   16 O2    x      -1.3274      0.0313      0.2366
            y       0.0853     -1.3863      0.0850
            z       0.2279      0.1204     -1.8779
-------------------------------------------------------------------------------
   17 O3    x      -1.2258      0.0043     -0.1040
            y       0.0035     -2.7949     -0.3029
            z      -0.1583     -0.2886     -1.4530
-------------------------------------------------------------------------------
   18 O1    x      -1.3496      0.2461     -0.0707
            y       0.3229     -3.2895     -0.1082
            z      -0.0809     -0.0696     -1.3479
-------------------------------------------------------------------------------
   19 O3    x      -2.8728     -0.1729     -0.4484
            y      -0.1047     -1.4356     -0.1236
            z      -0.4552     -0.1130     -1.2531
-------------------------------------------------------------------------------
   20 O1    x      -2.9851     -0.1827     -0.3925
            y      -0.1160     -1.5715      0.0284
            z      -0.4140      0.0121     -1.3111
-------------------------------------------------------------------------------
   21 O3    x      -2.5591     -0.3100     -0.3833
            y      -0.2392     -1.4541     -0.2021
            z      -0.4029     -0.2498     -1.4123
-------------------------------------------------------------------------------
   22 O2    x      -2.1794     -0.1615     -0.2189
            y      -0.0967     -1.2851      0.0490
            z      -0.2579      0.0610     -1.1548
-------------------------------------------------------------------------------
   23 O1    x      -1.7930     -0.7705     -0.4962
            y      -0.8127     -2.5242     -0.6400
            z      -0.4632     -0.7456     -1.9084
-------------------------------------------------------------------------------
   24 O1    x      -1.7630      0.7088     -0.4757
            y       0.6940     -2.4954      0.6210
            z      -0.5589      0.6259     -1.9230
-------------------------------------------------------------------------------
   25 O1    x      -2.0779     -0.7294     -0.5368
            y      -0.8451     -2.1477     -0.6832
            z      -0.6257     -0.6426     -2.0051
-------------------------------------------------------------------------------
   26 O3    x      -1.8387      0.8364     -0.4009
            y       0.8099     -2.3335      0.5620
            z      -0.4079      0.5762     -1.5882
-------------------------------------------------------------------------------
   27 O3    x      -1.3181     -0.0245      0.1169
            y       0.0326     -2.9324      0.0657
            z       0.1394      0.0627     -1.2608
-------------------------------------------------------------------------------
   28 O2    x      -1.2591      0.0968      0.0357
            y       0.1525     -2.5070     -0.0975
            z       0.0311     -0.0696     -1.0233
-------------------------------------------------------------------------------
   29 O1    x      -2.3431     -0.9901      0.0091
            y      -1.0159     -2.3960     -0.0240
            z       0.0618      0.0564     -1.3718
-------------------------------------------------------------------------------
   30 O3    x      -2.1593      0.9386      0.4370
            y       0.8822     -2.2855     -0.3354
            z       0.3767     -0.2873     -1.3674
-------------------------------------------------------------------------------
   31 O3    x      -2.3232     -1.0558      0.3115
            y      -1.0448     -2.3226      0.2771
            z       0.3030      0.2272     -1.2532
-------------------------------------------------------------------------------
   32 O3    x      -2.3347      1.0336      0.0261
            y       0.9573     -2.2868     -0.0773
            z       0.1653     -0.1355     -1.1268
-------------------------------------------------------------------------------
   33 O1    x      -2.0110      0.2357     -0.8830
            y       0.1110     -1.4542      0.2584
            z      -0.5522      0.3342     -2.4749
-------------------------------------------------------------------------------
   34 O1    x      -2.9616      0.2692      0.7963
            y       0.2005     -1.3378     -0.0432
            z       0.8765     -0.1478     -2.0434
-------------------------------------------------------------------------------
   35 O1    x      -2.6936      0.1376      1.1065
            y       0.0585     -1.3689     -0.1460
            z       0.9748     -0.0765     -2.2137
-------------------------------------------------------------------------------
   36 O1    x      -1.3926      0.0713     -0.3398
            y       0.0175     -1.3891     -0.2191
            z      -0.3441     -0.4222     -3.7697
-------------------------------------------------------------------------------




  Elastic Constant Matrix: (Units=GPa)

-------------------------------------------------------------------------------
  Indices      1         2         3         4         5         6    
-------------------------------------------------------------------------------
       1     43.2774   23.7854   14.7650    3.9940    1.0752   -8.9280
       2     23.7854   52.8517   12.5102    6.5152    5.5376   -5.1778
       3     14.7650   12.5102   24.0925    8.6036    4.7581    3.7610
       4      3.9940    6.5152    8.6036   10.4235    2.7707    3.6398
       5      1.0752    5.5376    4.7581    2.7707    8.0729    5.1539
       6     -8.9280   -5.1778    3.7610    3.6398    5.1539   20.0639
-------------------------------------------------------------------------------


  Elastic Compliance Matrix: (Units=1/GPa)

-------------------------------------------------------------------------------
  Indices      1         2         3         4         5         6    
-------------------------------------------------------------------------------
       1    0.041119 -0.012005 -0.024102  0.004315  0.004061  0.017891
       2   -0.012005  0.028947 -0.001585 -0.010190 -0.019801  0.009360
       3   -0.024102 -0.001585  0.079035 -0.045604 -0.018360 -0.012960
       4    0.004315 -0.010190 -0.045604  0.145820 -0.005826 -0.017118
       5    0.004061 -0.019801 -0.018360 -0.005826  0.178193 -0.044578
       6    0.017891  0.009360 -0.012960 -0.017118 -0.044578  0.077203
-------------------------------------------------------------------------------

  Mechanical properties :

-------------------------------------------------------------------------------
  Convention :                    Reuss         Voigt         Hill
-------------------------------------------------------------------------------
  Bulk  Modulus (GPa)     =      13.56547      24.70478      19.13512
  Shear Modulus (GPa)     =       7.68906      12.32279      10.00593
-------------------------------------------------------------------------------
  Velocity S-wave (km/s)  =       1.73944       2.20205       1.98427
  Velocity P-wave (km/s)  =       3.06140       4.02327       3.57483
-------------------------------------------------------------------------------
  Compressibility (1/GPa) =    0.07371656
-------------------------------------------------------------------------------
  Stress axis :                     x             y             z
-------------------------------------------------------------------------------
  Youngs Moduli (GPa)     =      24.31940      34.54632      12.65262
-------------------------------------------------------------------------------
  Poissons Ratio (x)      =                     0.41473       0.30495
  Poissons Ratio (y)      =       0.29195                     0.02006
  Poissons Ratio (z)      =       0.58615       0.05477
-------------------------------------------------------------------------------


  Piezoelectric Strain Matrix: (Units=C/m**2)

-------------------------------------------------------------------------------
  Indices      1         2         3         4         5         6    
-------------------------------------------------------------------------------
       x    -1.23132  -1.32938   1.29938   0.10068  -0.14689   0.16149
       y    -0.61944  -0.10051  -0.18812  -0.08728   0.24666  -0.14132
       z    -1.02087  -0.59430  -1.15448  -1.10028   1.45927  -0.50177
-------------------------------------------------------------------------------


  Piezoelectric Stress Matrix: (Units=10**-11 C/N)

-------------------------------------------------------------------------------
  Indices      1         2         3         4         5         6    
-------------------------------------------------------------------------------
       x    -6.32626  -2.23647  13.04942  -3.82514  -3.64939  -3.40209
       y    -2.16335  -0.04925   0.15036  -0.48138   5.36905  -2.99973
       z    -1.48169  -2.54979  -3.58092 -10.60553  31.76280  -9.38200
-------------------------------------------------------------------------------


  Static dielectric constant tensor : 

-------------------------------------------------------------------------------
              x         y         z
-------------------------------------------------------------------------------
       x     5.53121   0.19076   0.11478
       y     0.19076   5.19620   0.28952
       z     0.11478   0.28952   4.44066
--------------------------------------------------------------------------------

  High frequency dielectric constant tensor : 

-------------------------------------------------------------------------------
              x         y         z
-------------------------------------------------------------------------------
       x     1.57154  -0.00247   0.00646
       y    -0.00247   1.58059   0.00672
       z     0.00646   0.00672   1.52160
-------------------------------------------------------------------------------

  Static refractive indices : 

-------------------------------------------------------------------------------
    1 =    2.08339      2 =    2.27285      3 =    2.37944
-------------------------------------------------------------------------------

  High frequency refractive indices : 

-------------------------------------------------------------------------------
    1 =    1.23287      2 =    1.25383      3 =    1.25764
-------------------------------------------------------------------------------


  Time to end of optimisation =       3.5648 seconds


  Peak dynamic memory used =       2.76 MB 


  Timing analysis for GULP :

--------------------------------------------------------------------------------
  Task / Subroutine                                          Time (Seconds)
--------------------------------------------------------------------------------
  Calculation of reciprocal space energy and derivatives          0.2088
  Calculation of real space energy and derivatives                2.9980
  Calculation of three-body energy and derivatives                0.0470
  Calculation and manipulation of Hessian matrix                  0.4103
  Calculation of matrix inversion                                 0.0044
  Global summation overhead                                       0.0001
--------------------------------------------------------------------------------
  Total CPU time                                                  3.5648
--------------------------------------------------------------------------------


  Dump file written as c00059.vasp.grs
  CIF file written as c00059.vasp.cif


  Job Finished at 11:40.13 22nd October    2025                               

