********************************************************************************
*                       GENERAL UTILITY LATTICE PROGRAM                        *
*                                 Julian Gale                                  *
*                       Curtin Institute for Computation                       *
*                    School of Molecular and Life Sciences                     *
*                    Curtin University, Western Australia                      *
********************************************************************************
* Version = 6.1.2 * Last modified =   3rd November 2022                        *
********************************************************************************
*  optimise     - perform optimisation run                                     *
*  conp         - constant pressure calculation                                *
*  property     - calculate properties for final geometry                      *
********************************************************************************

  Job Started  at 11:42.49 22nd October    2025                               

  Number of CPUs =     1


  Total number of configurations input =      1

********************************************************************************
*  Input for Configuration =   1 : c00098.vasp                                 *
********************************************************************************

  Formula = Ge8Si4O24                                                   

  Number of irreducible atoms/shells =      60


  Total number atoms/shells =      60

  Dimensionality = 3               :  Bulk   



  Cartesian lattice vectors (Angstroms) :

        9.086940    0.000000    0.000000
        0.000000    7.554810    0.000000
       -3.295144    0.000000    9.944380

  Cell parameters (Angstroms/Degrees):

  a =       9.0869    alpha =  90.0000
  b =       7.5548    beta  = 108.3330
  c =      10.4761    gamma =  90.0000

  Initial cell volume =         682.682735 Angs**3

  Temperature of configuration =   0.00     K 

  Pressure of configuration =         0.000 GPa 

  Fractional coordinates of asymmetric unit :

--------------------------------------------------------------------------------
   No.  Atomic       x           y          z         Charge      Occupancy
        Label      (Frac)      (Frac)     (Frac)        (e)         (Frac)  
--------------------------------------------------------------------------------
      1 Ge    c    0.313820    0.296860    0.309830     4.00000    1.000000    
      2 Ge    c    0.686180 *  0.703140 *  0.690170 *   4.00000    1.000000    
      3 Ge    c    0.331050 *  0.296920 *  0.607380 *   4.00000    1.000000    
      4 Ge    c    0.668950 *  0.296920 *  0.392620 *   4.00000    1.000000    
      5 Ge    c    0.668950 *  0.703080 *  0.392620 *   4.00000    1.000000    
      6 Ge    c    0.331050 *  0.703080 *  0.607380 *   4.00000    1.000000    
      7 Ge    c    0.879680 *  0.000000 *  0.350160 *   4.00000    1.000000    
      8 Ge    c    0.093070 *  0.000000 *  0.158230 *   4.00000    1.000000    
      9 Si    c    0.686180 *  0.296860 *  0.690170 *   4.00000    1.000000    
     10 Si    c    0.313820 *  0.703140 *  0.309830 *   4.00000    1.000000    
     11 Si    c    0.120320 *  0.000000 *  0.649840 *   4.00000    1.000000    
     12 Si    c    0.906930 *  0.000000 *  0.841770 *   4.00000    1.000000    
     13 O1    c    0.268740 *  0.279030 *  0.446100 *   1.73396    1.000000    
     14 O3    c    0.731260 *  0.279030 *  0.553900 *   1.33043    1.000000    
     15 O1    c    0.731260 *  0.720970 *  0.553900 *   1.73396    1.000000    
     16 O3    c    0.268740 *  0.720970 *  0.446100 *   1.33043    1.000000    
     17 O3    c    0.295480 *  0.500000 *  0.260860 *   1.33043    1.000000    
     18 O3    c    0.704520 *  0.500000 *  0.739140 *   1.33043    1.000000    
     19 O1    c    0.490600 *  0.234690 *  0.337530 *   1.73396    1.000000    
     20 O3    c    0.509400 *  0.234690 *  0.662470 *   1.33043    1.000000    
     21 O1    c    0.509400 *  0.765310 *  0.662470 *   1.73396    1.000000    
     22 O3    c    0.490600 *  0.765310 *  0.337530 *   1.33043    1.000000    
     23 O1    c    0.200440 *  0.174000 *  0.194980 *   1.73396    1.000000    
     24 O2    c    0.799560 *  0.174000 *  0.805020 *   0.87073    1.000000    
     25 O3    c    0.799560 *  0.826000 *  0.805020 *   1.33043    1.000000    
     26 O3    c    0.200440 *  0.826000 *  0.194980 *   1.33043    1.000000    
     27 O1    c    0.317860 *  0.500000 *  0.649090 *   1.73396    1.000000    
     28 O1    c    0.682140 *  0.500000 *  0.350910 *   1.73396    1.000000    
     29 O3    c    0.227920 *  0.173870 *  0.671620 *   1.33043    1.000000    
     30 O1    c    0.772080 *  0.173870 *  0.328380 *   1.73396    1.000000    
     31 O1    c    0.772080 *  0.826130 *  0.328380 *   1.73396    1.000000    
     32 O3    c    0.227920 *  0.826130 *  0.671620 *   1.33043    1.000000    
     33 O3    c    0.000000 *  0.000000 *  0.500000 *   1.33043    1.000000    
     34 O1    c    0.971960 *  0.000000 *  0.241930 *   1.73396    1.000000    
     35 O2    c    0.028040 *  0.000000 *  0.758070 *   0.87073    1.000000    
     36 O3    c    0.000000 *  0.000000 *  0.000000 *   1.33043    1.000000    
     37 O1    s    0.268740 *  0.279030 *  0.446100 *  -3.73396    1.000000    
     38 O3    s    0.731260 *  0.279030 *  0.553900 *  -3.33043    1.000000    
     39 O1    s    0.731260 *  0.720970 *  0.553900 *  -3.73396    1.000000    
     40 O3    s    0.268740 *  0.720970 *  0.446100 *  -3.33043    1.000000    
     41 O3    s    0.295480 *  0.500000 *  0.260860 *  -3.33043    1.000000    
     42 O3    s    0.704520 *  0.500000 *  0.739140 *  -3.33043    1.000000    
     43 O1    s    0.490600 *  0.234690 *  0.337530 *  -3.73396    1.000000    
     44 O3    s    0.509400 *  0.234690 *  0.662470 *  -3.33043    1.000000    
     45 O1    s    0.509400 *  0.765310 *  0.662470 *  -3.73396    1.000000    
     46 O3    s    0.490600 *  0.765310 *  0.337530 *  -3.33043    1.000000    
     47 O1    s    0.200440 *  0.174000 *  0.194980 *  -3.73396    1.000000    
     48 O2    s    0.799560 *  0.174000 *  0.805020 *  -2.87073    1.000000    
     49 O3    s    0.799560 *  0.826000 *  0.805020 *  -3.33043    1.000000    
     50 O3    s    0.200440 *  0.826000 *  0.194980 *  -3.33043    1.000000    
     51 O1    s    0.317860 *  0.500000 *  0.649090 *  -3.73396    1.000000    
     52 O1    s    0.682140 *  0.500000 *  0.350910 *  -3.73396    1.000000    
     53 O3    s    0.227920 *  0.173870 *  0.671620 *  -3.33043    1.000000    
     54 O1    s    0.772080 *  0.173870 *  0.328380 *  -3.73396    1.000000    
     55 O1    s    0.772080 *  0.826130 *  0.328380 *  -3.73396    1.000000    
     56 O3    s    0.227920 *  0.826130 *  0.671620 *  -3.33043    1.000000    
     57 O3    s    0.000000 *  0.000000 *  0.500000 *  -3.33043    1.000000    
     58 O1    s    0.971960 *  0.000000 *  0.241930 *  -3.73396    1.000000    
     59 O2    s    0.028040 *  0.000000 *  0.758070 *  -2.87073    1.000000    
     60 O3    s    0.000000 *  0.000000 *  0.000000 *  -3.33043    1.000000    
--------------------------------------------------------------------------------



********************************************************************************
*  General input information                                                   *
********************************************************************************

  Species output for all configurations : 

--------------------------------------------------------------------------------
  Species    Type    Atomic    Atomic    Charge       Radii (Angs)     Library
                     Number     Mass       (e)     Cova   Ionic  VDW   Symbol
--------------------------------------------------------------------------------
    Ge       Core       32      72.61   4.000000   1.170  0.000  1.750 Ge       
    Si       Core       14      28.09   4.000000   1.200  0.000  2.100 Si       
    O1       Core        8      16.00   1.733957   0.730  0.000  1.360 O1       
    O2       Core        8      16.00   0.870733   0.730  0.000  1.360 O2       
    O3       Core        8      16.00   1.330431   0.730  0.000  1.360 O3       
    O1       Shell       8       0.00  -3.733957   0.730  0.000  0.000 O1       
    O2       Shell       8       0.00  -2.870733   0.730  0.000  0.000 O2       
    O3       Shell       8       0.00  -3.330431   0.730  0.000  0.000 O3       
--------------------------------------------------------------------------------


  Lattice summation method               =    Ewald          (3-D)
                                         =    Parry          (2-D)
                                         =    Saunders et al (1-D)
  Accuracy factor for lattice sums       =   12.000


  Analytic derivatives to be used

  Time limit = Infinity

  Maximum range for interatomic potentials =    100000.000000 Angstroms

  General interatomic potentials :

--------------------------------------------------------------------------------
Atom  Types   Potential      Parameter       Value         Units   Cutoffs(Ang)
  1     2                                                            Min /  Max 
--------------------------------------------------------------------------------
Si   c O1   s Buckingham    Buckingham A     1315.2478    eV        0.000 16.000
                            Buckingham rho  0.31775900    Ang       
                            Buckingham C     10.141118    eV*Ang^6  
--------------------------------------------------------------------------------
Si   c O2   s Buckingham    Buckingham A     1315.2478    eV        0.000 16.000
                            Buckingham rho  0.31775900    Ang       
                            Buckingham C     10.141118    eV*Ang^6  
--------------------------------------------------------------------------------
Si   c O3   s Buckingham    Buckingham A     1315.2478    eV        0.000 16.000
                            Buckingham rho  0.31775900    Ang       
                            Buckingham C     10.141118    eV*Ang^6  
--------------------------------------------------------------------------------
Ge   c O1   s Buckingham    Buckingham A     1497.3996    eV        0.000 16.000
                            Buckingham rho  0.32564600    Ang       
                            Buckingham C     16.808599    eV*Ang^6  
--------------------------------------------------------------------------------
Ge   c O2   s Buckingham    Buckingham A     1497.3996    eV        0.000 16.000
                            Buckingham rho  0.32564600    Ang       
                            Buckingham C     16.808599    eV*Ang^6  
--------------------------------------------------------------------------------
Ge   c O3   s Buckingham    Buckingham A     1497.3996    eV        0.000 16.000
                            Buckingham rho  0.32564600    Ang       
                            Buckingham C     16.808599    eV*Ang^6  
--------------------------------------------------------------------------------
O1   s O1   s Buckingham    Buckingham A     22764.000    eV        0.000 16.000
                            Buckingham rho  0.14900000    Ang       
                            Buckingham C     10.937044    eV*Ang^6  
--------------------------------------------------------------------------------
O1   s O2   s Buckingham    Buckingham A     22764.000    eV        0.000 16.000
                            Buckingham rho  0.14900000    Ang       
                            Buckingham C     10.937044    eV*Ang^6  
--------------------------------------------------------------------------------
O1   s O3   s Buckingham    Buckingham A     22764.000    eV        0.000 16.000
                            Buckingham rho  0.14900000    Ang       
                            Buckingham C     10.937044    eV*Ang^6  
--------------------------------------------------------------------------------
O2   s O2   s Buckingham    Buckingham A     22764.000    eV        0.000 16.000
                            Buckingham rho  0.14900000    Ang       
                            Buckingham C     10.937044    eV*Ang^6  
--------------------------------------------------------------------------------
O2   s O3   s Buckingham    Buckingham A     22764.000    eV        0.000 16.000
                            Buckingham rho  0.14900000    Ang       
                            Buckingham C     10.937044    eV*Ang^6  
--------------------------------------------------------------------------------
O3   s O3   s Buckingham    Buckingham A     22764.000    eV        0.000 16.000
                            Buckingham rho  0.14900000    Ang       
                            Buckingham C     10.937044    eV*Ang^6  
--------------------------------------------------------------------------------
O1   c O1   s Spring (c-s)  Spring k 2       180.31577    eV*Ang^-2 0.000  0.800
                            Spring k 4       0.0000000    eV*Ang^-4 
--------------------------------------------------------------------------------
O2   c O2   s Spring (c-s)  Spring k 2       75.969800    eV*Ang^-2 0.000  0.800
                            Spring k 4       0.0000000    eV*Ang^-4 
--------------------------------------------------------------------------------
O3   c O3   s Spring (c-s)  Spring k 2       128.14270    eV*Ang^-2 0.000  0.800
                            Spring k 4       0.0000000    eV*Ang^-4 
--------------------------------------------------------------------------------

  General Three-body potentials :

--------------------------------------------------------------------------------
  Atoms       Potential      Parameter       Value         Units   Cutoffs(Ang)
  1 / 2 / 3                                                          Min /  Max 
--------------------------------------------------------------------------------
Si    core    Harmonic      Three-body cnst  1.2614000    eV*rad^-2 0.000  1.900
O1    shel                  Three-body angl  109.47000    degrees   0.000  1.900
O1    shel                  Three-body k4    0.0000000    eV*rad^-4 0.000  3.500
                            Three-body k3    0.0000000    eV*rad^-3 
--------------------------------------------------------------------------------
Si    core    Harmonic      Three-body cnst  1.2614000    eV*rad^-2 0.000  1.900
O1    shel                  Three-body angl  109.47000    degrees   0.000  1.900
õ(1   shel                  Three-body k4    0.0000000    eV*rad^-4 0.000  3.500
                            Three-body k3    0.0000000    eV*rad^-3 
--------------------------------------------------------------------------------
Si    core    Harmonic      Three-body cnst  1.2614000    eV*rad^-2 0.000  1.900
õ(1   shel                  Three-body angl  109.47000    degrees   0.000  1.900
õ(1   shel                  Three-body k4    0.0000000    eV*rad^-4 0.000  3.500
                            Three-body k3    0.0000000    eV*rad^-3 
--------------------------------------------------------------------------------
Si    core    Harmonic      Three-body cnst  1.2614000    eV*rad^-2 0.000  1.900
O1    shel                  Three-body angl  109.47000    degrees   0.000  1.900
O2    shel                  Three-body k4    0.0000000    eV*rad^-4 0.000  3.500
                            Three-body k3    0.0000000    eV*rad^-3 
--------------------------------------------------------------------------------
Si    core    Harmonic      Three-body cnst  1.2614000    eV*rad^-2 0.000  1.900
O1    shel                  Three-body angl  109.47000    degrees   0.000  1.900
õ(2   shel                  Three-body k4    0.0000000    eV*rad^-4 0.000  3.500
                            Three-body k3    0.0000000    eV*rad^-3 
--------------------------------------------------------------------------------
Si    core    Harmonic      Three-body cnst  1.2614000    eV*rad^-2 0.000  1.900
O2    shel                  Three-body angl  109.47000    degrees   0.000  1.900
õ(1   shel                  Three-body k4    0.0000000    eV*rad^-4 0.000  3.500
                            Three-body k3    0.0000000    eV*rad^-3 
--------------------------------------------------------------------------------
Si    core    Harmonic      Three-body cnst  1.2614000    eV*rad^-2 0.000  1.900
õ(1   shel                  Three-body angl  109.47000    degrees   0.000  1.900
õ(2   shel                  Three-body k4    0.0000000    eV*rad^-4 0.000  3.500
                            Three-body k3    0.0000000    eV*rad^-3 
--------------------------------------------------------------------------------
Si    core    Harmonic      Three-body cnst  1.2614000    eV*rad^-2 0.000  1.900
O2    shel                  Three-body angl  109.47000    degrees   0.000  1.900
O2    shel                  Three-body k4    0.0000000    eV*rad^-4 0.000  3.500
                            Three-body k3    0.0000000    eV*rad^-3 
--------------------------------------------------------------------------------
Si    core    Harmonic      Three-body cnst  1.2614000    eV*rad^-2 0.000  1.900
O2    shel                  Three-body angl  109.47000    degrees   0.000  1.900
õ(2   shel                  Three-body k4    0.0000000    eV*rad^-4 0.000  3.500
                            Three-body k3    0.0000000    eV*rad^-3 
--------------------------------------------------------------------------------
Si    core    Harmonic      Three-body cnst  1.2614000    eV*rad^-2 0.000  1.900
õ(2   shel                  Three-body angl  109.47000    degrees   0.000  1.900
õ(2   shel                  Three-body k4    0.0000000    eV*rad^-4 0.000  3.500
                            Three-body k3    0.0000000    eV*rad^-3 
--------------------------------------------------------------------------------

********************************************************************************
*  Output for configuration   1 : c00098.vasp                                  *
********************************************************************************


  Components of energy : 

--------------------------------------------------------------------------------
  Interatomic potentials     =         432.36113892 eV    
  Three-body potentials      =           0.00000835 eV    
  Monopole - monopole (real) =       -1236.99964305 eV    
  Monopole - monopole (recip)=        -659.26603192 eV    
  Monopole - monopole (total)=       -1896.26567496 eV    
--------------------------------------------------------------------------------
  Total lattice energy       =       -1463.90452770 eV    
--------------------------------------------------------------------------------
  Total lattice energy       =         -141244.4091 kJ/(mole unit cells)
--------------------------------------------------------------------------------


  Number of variables =      183

  Maximum number of calculations  =          1000
  Maximum Hessian update interval =            10
  Maximum step size               =   0.100000000
  Maximum parameter tolerance     =   0.000010000
  Maximum function  tolerance     =   0.000010000
  Maximum gradient  tolerance     =   0.001000000
  Maximum gradient  component     =   0.010000000

  Symmetry not applied to optimisation

  Cell parameters to be optimised using strains

  Newton-Raphson optimiser to be used

  BFGS hessian update to be used

  Lower half triangular hessian to be used

  Minimiser to switch to RFO
  When gradient norm is less than     0.050000

  Dumpfile to be written after every cycle

  Start of bulk optimisation :

  Cycle:      0 Energy:     -1463.904528  Gnorm:      6.437174  CPU:    0.034
  ** Hessian calculated **
  Cycle:      1 Energy:     -1482.809461  Gnorm:      1.751939  CPU:    0.080
  ** Hessian calculated **
  Cycle:      2 Energy:     -1485.140820  Gnorm:      0.908536  CPU:    0.159
  Cycle:      3 Energy:     -1485.918873  Gnorm:      0.517315  CPU:    0.200
  Cycle:      4 Energy:     -1486.441273  Gnorm:      0.416109  CPU:    0.249
  Cycle:      5 Energy:     -1487.023745  Gnorm:      0.349550  CPU:    0.297
  Cycle:      6 Energy:     -1487.549801  Gnorm:      0.309167  CPU:    0.346
  Cycle:      7 Energy:     -1487.733477  Gnorm:      0.223610  CPU:    0.387
  Cycle:      8 Energy:     -1487.807712  Gnorm:      0.133311  CPU:    0.427
  Cycle:      9 Energy:     -1487.837040  Gnorm:      0.102049  CPU:    0.469
  Cycle:     10 Energy:     -1487.856879  Gnorm:      0.079893  CPU:    0.510
  Cycle:     11 Energy:     -1487.872023  Gnorm:      0.071123  CPU:    0.551
  ** Hessian calculated **
  Cycle:     12 Energy:     -1487.880326  Gnorm:      0.070158  CPU:    0.628
  Cycle:     13 Energy:     -1487.894232  Gnorm:      0.068418  CPU:    0.686
  Cycle:     14 Energy:     -1487.915063  Gnorm:      0.065456  CPU:    0.744
  Cycle:     15 Energy:     -1487.938670  Gnorm:      0.061570  CPU:    0.793
  Cycle:     16 Energy:     -1487.969989  Gnorm:      0.055683  CPU:    0.852
  Cycle:     17 Energy:     -1487.987755  Gnorm:      0.053296  CPU:    0.902
  ** Hessian calculated **
  Cycle:     18 Energy:     -1488.028643  Gnorm:      0.047762  CPU:    0.980
  ** Hessian has wrong structure
  ** Imaginary eigenvectors =   2
  Cycle:     19 Energy:     -1488.047505  Gnorm:      0.164057  CPU:    1.078
  ** Hessian has wrong structure
  ** Imaginary eigenvectors =   2
  ** Hessian has wrong structure
  ** Imaginary eigenvectors =   1
  Cycle:     20 Energy:     -1488.114978  Gnorm:      0.173367  CPU:    1.254
  ** Hessian has wrong structure
  ** Imaginary eigenvectors =   1
  ** Hessian has required structure
  Cycle:     21 Energy:     -1488.340110  Gnorm:      0.101840  CPU:    1.449
  ** Hessian has required structure
  Cycle:     22 Energy:     -1488.430189  Gnorm:      0.070040  CPU:    1.516
  ** Hessian has required structure
  Cycle:     23 Energy:     -1488.484067  Gnorm:      0.042616  CPU:    1.583
  ** Hessian has required structure
  Cycle:     24 Energy:     -1488.506216  Gnorm:      0.066080  CPU:    1.640
  ** Hessian has required structure
  Cycle:     25 Energy:     -1488.528125  Gnorm:      0.031710  CPU:    1.697
  ** Hessian has required structure
  Cycle:     26 Energy:     -1488.536340  Gnorm:      0.033595  CPU:    1.754
  ** Hessian has required structure
  Cycle:     27 Energy:     -1488.541148  Gnorm:      0.032454  CPU:    1.810
  ** Hessian has required structure
  Cycle:     28 Energy:     -1488.546624  Gnorm:      0.028805  CPU:    1.902
  ** Hessian has required structure
  Cycle:     29 Energy:     -1488.551935  Gnorm:      0.024782  CPU:    1.983
  ** Hessian has required structure
  Cycle:     30 Energy:     -1488.557934  Gnorm:      0.029517  CPU:    2.078
  ** Hessian has required structure
  Cycle:     31 Energy:     -1488.569297  Gnorm:      0.027619  CPU:    2.209
  ** Hessian has required structure
  Cycle:     32 Energy:     -1488.581675  Gnorm:      0.030396  CPU:    2.306
  ** Hessian has required structure
  Cycle:     33 Energy:     -1488.590311  Gnorm:      0.020942  CPU:    2.388
  ** Hessian has required structure
  Cycle:     34 Energy:     -1488.595975  Gnorm:      0.017774  CPU:    2.485
  ** Hessian has required structure
  Cycle:     35 Energy:     -1488.599463  Gnorm:      0.006952  CPU:    2.567
  ** Hessian has required structure
  Cycle:     36 Energy:     -1488.601541  Gnorm:      0.008887  CPU:    2.664
  ** Hessian has required structure
  Cycle:     37 Energy:     -1488.602272  Gnorm:      0.004749  CPU:    2.762
  ** Hessian has required structure
  Cycle:     38 Energy:     -1488.602578  Gnorm:      0.003758  CPU:    2.845
  ** Hessian has required structure
  Cycle:     39 Energy:     -1488.602712  Gnorm:      0.002169  CPU:    2.929
  ** Hessian has required structure
  Cycle:     40 Energy:     -1488.602774  Gnorm:      0.001218  CPU:    3.027
  ** Hessian has required structure
  Cycle:     41 Energy:     -1488.602795  Gnorm:      0.000620  CPU:    3.160
  ** Hessian has required structure
  Cycle:     42 Energy:     -1488.602799  Gnorm:      0.000438  CPU:    3.230
  ** Hessian has required structure
  Cycle:     43 Energy:     -1488.602801  Gnorm:      0.000308  CPU:    3.298
  ** Hessian has required structure
  Cycle:     44 Energy:     -1488.602802  Gnorm:      0.000216  CPU:    3.373
  ** Hessian has required structure


  **** Optimisation achieved ****


  Final energy =   -1488.60280211 eV      
  Final Gnorm  =       0.00015189

  Components of energy : 

--------------------------------------------------------------------------------
  Interatomic potentials     =         396.48221518 eV    
  Three-body potentials      =           0.00004385 eV    
  Monopole - monopole (real) =        -654.86154889 eV    
  Monopole - monopole (recip)=       -1230.22351226 eV    
  Monopole - monopole (total)=       -1885.08506115 eV    
--------------------------------------------------------------------------------
  Total lattice energy       =       -1488.60280211 eV    
--------------------------------------------------------------------------------
  Total lattice energy       =         -143627.4150 kJ/(mole unit cells)
--------------------------------------------------------------------------------

  Final fractional coordinates of atoms :

--------------------------------------------------------------------------------
   No.  Atomic        x           y          z          Radius
        Label       (Frac)      (Frac)     (Frac)       (Angs) 
--------------------------------------------------------------------------------
     1  Ge    c     0.313820    0.296860    0.309830    0.000000
     2  Ge    c     0.658183    0.690184    0.734344    0.000000
     3  Ge    c     0.330191    0.225453    0.633114    0.000000
     4  Ge    c     0.678886    0.369544    0.399987    0.000000
     5  Ge    c     0.619418    0.778486    0.395019    0.000000
     6  Ge    c     0.308748    0.621312    0.658817    0.000000
     7  Ge    c     0.865300    0.068906    0.341224    0.000000
     8  Ge    c     0.079641    0.009591    0.163201    0.000000
     9  Si    c     0.690238    0.289028    0.717052    0.000000
    10  Si    c     0.281260    0.687366    0.330321    0.000000
    11  Si    c     0.096657    0.931211    0.646836    0.000000
    12  Si    c     0.904019    0.963987    0.849800    0.000000
    13  O1    c     0.257096    0.230774    0.453886    0.000000
    14  O3    c     0.739194    0.347462    0.581341    0.000000
    15  O1    c     0.675739    0.765500    0.574592    0.000000
    16  O3    c     0.321933    0.603819    0.492701    0.000000
    17  O3    c     0.269453    0.518046    0.249840    0.000000
    18  O3    c     0.684143    0.464797    0.784674    0.000000
    19  O1    c     0.505452    0.268157    0.342361    0.000000
    20  O3    c     0.525683    0.196232    0.674751    0.000000
    21  O1    c     0.476374    0.720288    0.740053    0.000000
    22  O3    c     0.423478    0.810107    0.322045    0.000000
    23  O1    c     0.212360    0.170923    0.183788    0.000000
    24  O2    c     0.812699    0.148401    0.822525    0.000000
    25  O3    c     0.789614    0.804199    0.854509    0.000000
    26  O3    c     0.135064    0.812146    0.272948    0.000000
    27  O1    c     0.294815    0.401574    0.707613    0.000000
    28  O1    c     0.664508    0.588414    0.343360    0.000000
    29  O3    c     0.245078    0.048457    0.701602    0.000000
    30  O1    c     0.818248    0.279312    0.353197    0.000000
    31  O1    c     0.702445    0.951177    0.327542    0.000000
    32  O3    c     0.153609    0.729772    0.668347    0.000000
    33  O3    c     0.016633    0.983868    0.482515    0.000000
    34  O1    c     0.920239    0.073421    0.195789    0.000000
    35  O2    c     0.973416    0.948945    0.724731    0.000000
    36  O3    c     0.038443    0.957264    0.994222    0.000000
    37  O1    s     0.266452    0.235182    0.456461    0.000000
    38  O3    s     0.729540    0.343424    0.580626    0.000000
    39  O1    s     0.670103    0.760675    0.573348    0.000000
    40  O3    s     0.317612    0.612216    0.490019    0.000000
    41  O3    s     0.273872    0.517835    0.261965    0.000000
    42  O3    s     0.682812    0.464576    0.774286    0.000000
    43  O1    s     0.503755    0.277902    0.344181    0.000000
    44  O3    s     0.525945    0.207219    0.675471    0.000000
    45  O1    s     0.476886    0.710636    0.733527    0.000000
    46  O3    s     0.425276    0.796481    0.328363    0.000000
    47  O1    s     0.209640    0.167856    0.191764    0.000000
    48  O2    s     0.809188    0.144302    0.814254    0.000000
    49  O3    s     0.790213    0.810559    0.844484    0.000000
    50  O3    s     0.145928    0.814012    0.270764    0.000000
    51  O1    s     0.298484    0.405176    0.698519    0.000000
    52  O1    s     0.662291    0.585522    0.351606    0.000000
    53  O3    s     0.237287    0.050738    0.690924    0.000000
    54  O1    s     0.810977    0.270583    0.355941    0.000000
    55  O1    s     0.708432    0.946375    0.334104    0.000000
    56  O3    s     0.161049    0.739649    0.665604    0.000000
    57  O3    s     0.012347    0.985553    0.487454    0.000000
    58  O1    s     0.928187    0.068153    0.204467    0.000000
    59  O2    s     0.979638    0.948591    0.729294    0.000000
    60  O3    s     0.027757    0.962116    0.992640    0.000000
--------------------------------------------------------------------------------

  Final Cartesian lattice vectors (Angstroms) :

        9.246120   -0.137220    0.036574
       -0.115997    7.671763    0.458117
       -3.310508    0.652163    9.581749


  Final cell parameters and derivatives :

--------------------------------------------------------------------------------
       a            9.247211 Angstrom     dE/de1(xx)     0.005398 eV/strain
       b            7.686305 Angstrom     dE/de2(yy)     0.006803 eV/strain
       c           10.158479 Angstrom     dE/de3(zz)     0.006352 eV/strain
       alpha       82.806918 Degrees      dE/de4(yz)    -0.000460 eV/strain
       beta       108.848674 Degrees      dE/de5(xz)     0.000853 eV/strain
       gamma       91.699925 Degrees      dE/de6(xy)    -0.000979 eV/strain
--------------------------------------------------------------------------------

  Primitive cell volume =           677.891526 Angs**3

  Density of cell =      2.638811 g/cm**3

  Non-primitive cell volume =           677.891526 Angs**3


  Final internal derivatives :

--------------------------------------------------------------------------------
   No.  Atomic          a             b             c           Radius
        Label          (eV)          (eV)          (eV)        (eV/Angs)
--------------------------------------------------------------------------------
      1 Ge    c       0.000000      0.000000      0.000000      0.000000
      2 Ge    c       0.001403      0.001909      0.000295      0.000000
      3 Ge    c      -0.000048      0.000072     -0.000323      0.000000
      4 Ge    c      -0.001150     -0.001935     -0.000797      0.000000
      5 Ge    c       0.000382      0.000127      0.000142      0.000000
      6 Ge    c      -0.001883     -0.001054     -0.002578      0.000000
      7 Ge    c       0.001259     -0.000437     -0.000441      0.000000
      8 Ge    c      -0.001089      0.001556      0.005434      0.000000
      9 Si    c       0.000462     -0.000631      0.000548      0.000000
     10 Si    c      -0.000396     -0.001822      0.006480      0.000000
     11 Si    c       0.001744      0.001492      0.001634      0.000000
     12 Si    c      -0.002251     -0.000198     -0.002576      0.000000
     13 O1    c      -0.000052      0.000149      0.000934      0.000000
     14 O3    c       0.000386      0.001419      0.005152      0.000000
     15 O1    c       0.001255      0.000461     -0.001287      0.000000
     16 O3    c       0.005406      0.000878     -0.004862      0.000000
     17 O3    c       0.001850     -0.002383     -0.002975      0.000000
     18 O3    c      -0.000584     -0.003490      0.001840      0.000000
     19 O1    c       0.001304     -0.001622     -0.000049      0.000000
     20 O3    c      -0.000721     -0.000748     -0.000684      0.000000
     21 O1    c       0.000645      0.002325      0.002066      0.000000
     22 O3    c      -0.000013      0.001265      0.000123      0.000000
     23 O1    c       0.002486      0.002006      0.000080      0.000000
     24 O2    c      -0.000205      0.000212     -0.000146      0.000000
     25 O3    c      -0.000516     -0.000961     -0.000913      0.000000
     26 O3    c      -0.006865      0.003078     -0.001605      0.000000
     27 O1    c       0.000229     -0.000691      0.000354      0.000000
     28 O1    c       0.000095      0.006760     -0.002827      0.000000
     29 O3    c      -0.000359     -0.000631      0.000148      0.000000
     30 O1    c       0.003213      0.001473     -0.001901      0.000000
     31 O1    c      -0.001783     -0.000353     -0.000590      0.000000
     32 O3    c       0.001752     -0.004914     -0.000548      0.000000
     33 O3    c       0.000123     -0.000925     -0.007421      0.000000
     34 O1    c       0.002848     -0.000507     -0.002934      0.000000
     35 O2    c      -0.002661      0.000583      0.000642      0.000000
     36 O3    c       0.003029     -0.001207     -0.005644      0.000000
     37 O1    s      -0.000809     -0.000507      0.000182      0.000000
     38 O3    s       0.001500     -0.000536     -0.000228      0.000000
     39 O1    s       0.000062     -0.000151      0.000406      0.000000
     40 O3    s      -0.002036      0.000575      0.003508      0.000000
     41 O3    s      -0.000448      0.000625     -0.000842      0.000000
     42 O3    s       0.000714      0.001295      0.000118      0.000000
     43 O1    s      -0.001853     -0.000902     -0.000926      0.000000
     44 O3    s      -0.000363     -0.000186      0.001207      0.000000
     45 O1    s      -0.002061      0.000437      0.000183      0.000000
     46 O3    s       0.000792      0.000194      0.000428      0.000000
     47 O1    s      -0.001132     -0.000402      0.000758      0.000000
     48 O2    s       0.000035     -0.000066     -0.000025      0.000000
     49 O3    s      -0.000081      0.000593      0.000765      0.000000
     50 O3    s       0.001012     -0.002415      0.002337      0.000000
     51 O1    s      -0.000907      0.000114      0.000397      0.000000
     52 O1    s      -0.000907     -0.002280     -0.000701      0.000000
     53 O3    s       0.001354      0.001439     -0.000055      0.000000
     54 O1    s       0.000056     -0.001654      0.000483      0.000000
     55 O1    s       0.000626     -0.000272     -0.000093      0.000000
     56 O3    s       0.000540      0.000770     -0.000225      0.000000
     57 O3    s      -0.000093      0.000972      0.002315      0.000000
     58 O1    s      -0.002035      0.000279      0.001336      0.000000
     59 O2    s      -0.000428      0.000605      0.000830      0.000000
     60 O3    s      -0.002163      0.000827      0.003097      0.000000
--------------------------------------------------------------------------------
  Maximum abs         0.006865      0.006760      0.007421      0.000000
--------------------------------------------------------------------------------


  Born effective charge tensors : 

-------------------------------------------------------------------------------
  Atom             x           y             z
-------------------------------------------------------------------------------
    1 Ge    x       3.9219      0.1966      0.2957
            y       0.2192      4.1775      0.2779
            z       0.1023      0.3297      3.7026
-------------------------------------------------------------------------------
    2 Ge    x       4.0041      0.2493      0.2172
            y       0.3547      4.1527      0.1877
            z       0.1747      0.1509      3.5394
-------------------------------------------------------------------------------
    3 Ge    x       4.0211      0.3383     -0.1572
            y       0.2168      4.1572      0.2122
            z       0.1318      0.0965      3.4223
-------------------------------------------------------------------------------
    4 Ge    x       4.1518     -0.1154     -0.1072
            y      -0.4418      4.1907     -0.0042
            z      -0.0119      0.1651      3.3633
-------------------------------------------------------------------------------
    5 Ge    x       3.9881      0.3620     -0.0524
            y       0.2375      4.2036      0.0969
            z       0.0519     -0.0152      3.5244
-------------------------------------------------------------------------------
    6 Ge    x       4.0897     -0.0704      0.1132
            y      -0.3815      4.2246      0.0176
            z      -0.1075      0.2768      3.2519
-------------------------------------------------------------------------------
    7 Ge    x       4.5326     -0.3126     -0.3461
            y       0.1000      3.8798      0.1718
            z      -0.2347     -0.0184      3.7697
-------------------------------------------------------------------------------
    8 Ge    x       3.9036     -0.1605      0.3411
            y       0.2154      3.9101     -0.0682
            z      -0.1022      0.4200      4.5397
-------------------------------------------------------------------------------
    9 Si    x       3.5469      0.0380      0.2177
            y      -0.2465      3.8467      0.0279
            z       0.0368     -0.0962      3.2112
-------------------------------------------------------------------------------
   10 Si    x       3.5090     -0.0183      0.1218
            y      -0.4220      3.9640      0.0020
            z       0.4217     -0.2603      3.2790
-------------------------------------------------------------------------------
   11 Si    x       3.9137     -0.2429      0.2504
            y       0.1415      3.6521      0.0744
            z      -0.2692     -0.0112      3.2789
-------------------------------------------------------------------------------
   12 Si    x       3.5112      0.0452     -0.0458
            y       0.2404      3.4309      0.1285
            z       0.6642      0.1623      4.0133
-------------------------------------------------------------------------------
   13 O1    x      -1.6192     -0.1909      0.3156
            y      -0.2108     -1.4912      0.0953
            z       0.3341      0.0976     -2.5858
-------------------------------------------------------------------------------
   14 O3    x      -1.5140     -0.0561      0.4274
            y       0.0149     -1.4013      0.2056
            z       0.4159      0.2186     -2.4075
-------------------------------------------------------------------------------
   15 O1    x      -1.4807     -0.1690      0.2424
            y      -0.1560     -1.4853      0.0910
            z       0.2752      0.1610     -2.7308
-------------------------------------------------------------------------------
   16 O3    x      -1.4013      0.0153      0.3070
            y       0.0976     -1.4976      0.1992
            z       0.2792      0.1903     -2.4867
-------------------------------------------------------------------------------
   17 O3    x      -1.2290      0.1516     -0.0181
            y       0.2386     -2.8693     -0.3014
            z      -0.0260     -0.2742     -1.4472
-------------------------------------------------------------------------------
   18 O3    x      -1.2735      0.2175     -0.0281
            y       0.2542     -3.0584     -0.2653
            z       0.0045     -0.2711     -1.3546
-------------------------------------------------------------------------------
   19 O1    x      -2.9428     -0.2263     -0.4862
            y      -0.1436     -1.5652     -0.1160
            z      -0.5017     -0.1601     -1.3865
-------------------------------------------------------------------------------
   20 O3    x      -2.8581     -0.3078     -0.4974
            y      -0.2257     -1.5020     -0.0804
            z      -0.5248     -0.0645     -1.2776
-------------------------------------------------------------------------------
   21 O1    x      -2.9335     -0.2104     -0.4088
            y      -0.0743     -1.5493     -0.1445
            z      -0.4071     -0.2262     -1.4271
-------------------------------------------------------------------------------
   22 O3    x      -2.6365     -0.3999     -0.3360
            y      -0.3001     -1.5769     -0.0005
            z      -0.3642      0.0300     -1.2721
-------------------------------------------------------------------------------
   23 O1    x      -1.8253     -0.7358     -0.5099
            y      -0.7817     -2.3909     -0.6860
            z      -0.5015     -0.8145     -2.0094
-------------------------------------------------------------------------------
   24 O2    x      -1.5248      0.6069     -0.2743
            y       0.5793     -1.9927      0.3505
            z      -0.3379      0.3906     -1.4412
-------------------------------------------------------------------------------
   25 O3    x      -1.9185     -0.7999     -0.3307
            y      -0.8945     -2.2623     -0.4665
            z      -0.4612     -0.4855     -1.6566
-------------------------------------------------------------------------------
   26 O3    x      -1.8053      0.7369     -0.4494
            y       0.6637     -2.2588      0.6074
            z      -0.4086      0.6351     -1.6818
-------------------------------------------------------------------------------
   27 O1    x      -1.4719      0.0896      0.1571
            y       0.1701     -3.1410     -0.2008
            z       0.1518     -0.1107     -1.3695
-------------------------------------------------------------------------------
   28 O1    x      -1.4684      0.2255      0.1039
            y       0.3257     -3.1587     -0.0574
            z       0.0756     -0.0511     -1.3241
-------------------------------------------------------------------------------
   29 O3    x      -2.3107     -0.9201     -0.0760
            y      -0.9405     -2.1798     -0.0459
            z      -0.0205     -0.0202     -1.2605
-------------------------------------------------------------------------------
   30 O1    x      -2.3279      0.9077      0.3478
            y       0.8595     -2.4950     -0.3090
            z       0.3165     -0.2756     -1.3328
-------------------------------------------------------------------------------
   31 O1    x      -2.5623     -0.9884      0.1788
            y      -1.0285     -2.2908      0.1572
            z       0.1210      0.1560     -1.3269
-------------------------------------------------------------------------------
   32 O3    x      -2.1031      0.8939      0.0080
            y       0.8757     -2.5187     -0.0049
            z       0.1421     -0.0477     -1.1436
-------------------------------------------------------------------------------
   33 O3    x      -1.6914      0.2144     -0.5155
            y       0.0830     -1.3310      0.2909
            z      -0.3415      0.3731     -2.5365
-------------------------------------------------------------------------------
   34 O1    x      -2.6698      0.4029      0.8019
            y       0.2751     -1.3625     -0.1256
            z       0.8532     -0.1785     -2.2167
-------------------------------------------------------------------------------
   35 O2    x      -2.1285      0.1979      0.6739
            y       0.0952     -1.1586     -0.1344
            z       0.6367     -0.1389     -1.6890
-------------------------------------------------------------------------------
   36 O3    x      -1.3974      0.0352     -0.4819
            y      -0.0106     -1.2528     -0.1830
            z      -0.5687     -0.3333     -3.5312
-------------------------------------------------------------------------------




  Elastic Constant Matrix: (Units=GPa)

-------------------------------------------------------------------------------
  Indices      1         2         3         4         5         6    
-------------------------------------------------------------------------------
       1     40.9785   20.2298   13.7728    2.6119    2.4314   -9.8907
       2     20.2298   41.6870   14.1364    6.4715    6.5003   -5.1733
       3     13.7728   14.1364   29.2472    8.9269    7.5089    1.6051
       4      2.6119    6.4715    8.9269   10.3397    4.7540    3.0079
       5      2.4314    6.5003    7.5089    4.7540   10.8920    4.4759
       6     -9.8907   -5.1733    1.6051    3.0079    4.4759   21.9317
-------------------------------------------------------------------------------


  Elastic Compliance Matrix: (Units=1/GPa)

-------------------------------------------------------------------------------
  Indices      1         2         3         4         5         6    
-------------------------------------------------------------------------------
       1    0.038995 -0.013180 -0.015039  0.006907  0.000548  0.014519
       2   -0.013180  0.036931 -0.005091 -0.011243 -0.013759  0.007490
       3   -0.015039 -0.005091  0.059072 -0.034815 -0.017507 -0.003958
       4    0.006907 -0.011243 -0.034815  0.149856 -0.031687 -0.011075
       5    0.000548 -0.013759 -0.017507 -0.031687  0.136137 -0.025155
       6    0.014519  0.007490 -0.003958 -0.011075 -0.025155  0.060853
-------------------------------------------------------------------------------

  Mechanical properties :

-------------------------------------------------------------------------------
  Convention :                    Reuss         Voigt         Hill
-------------------------------------------------------------------------------
  Bulk  Modulus (GPa)     =      14.62409      23.13231      18.87820
  Shear Modulus (GPa)     =       8.75266      12.88424      10.81845
-------------------------------------------------------------------------------
  Velocity S-wave (km/s)  =       1.82123       2.20966       2.02478
  Velocity P-wave (km/s)  =       3.15665       3.90849       3.55252
-------------------------------------------------------------------------------
  Compressibility (1/GPa) =    0.06838031
-------------------------------------------------------------------------------
  Stress axis :                     x             y             z
-------------------------------------------------------------------------------
  Youngs Moduli (GPa)     =      25.64403      27.07774      16.92852
-------------------------------------------------------------------------------
  Poissons Ratio (x)      =                     0.35688       0.25458
  Poissons Ratio (y)      =       0.33798                     0.08618
  Poissons Ratio (z)      =       0.38565       0.13784
-------------------------------------------------------------------------------


  Piezoelectric Strain Matrix: (Units=C/m**2)

-------------------------------------------------------------------------------
  Indices      1         2         3         4         5         6    
-------------------------------------------------------------------------------
       x    -1.66292  -1.42982   0.59664  -0.02187   0.20179   0.48072
       y     0.00118   0.16396   0.58935   0.51981  -0.23541  -0.24100
       z    -0.39184  -0.26685  -0.72803  -0.67916   0.86483  -0.07637
-------------------------------------------------------------------------------


  Piezoelectric Stress Matrix: (Units=10**-11 C/N)

-------------------------------------------------------------------------------
  Indices      1         2         3         4         5         6    
-------------------------------------------------------------------------------
       x    -4.80355  -3.28546   6.28570  -3.11780   2.43893  -1.27955
       y    -1.10157  -0.13707   2.09400   6.56714  -5.50295  -1.55886
       z    -0.61407  -0.58203  -2.69486 -10.26938  15.73793  -2.36863
-------------------------------------------------------------------------------


  Static dielectric constant tensor : 

-------------------------------------------------------------------------------
              x         y         z
-------------------------------------------------------------------------------
       x     5.20070   0.02737   0.33117
       y     0.02737   5.91628   0.50020
       z     0.33117   0.50020   4.07742
--------------------------------------------------------------------------------

  High frequency dielectric constant tensor : 

-------------------------------------------------------------------------------
              x         y         z
-------------------------------------------------------------------------------
       x     1.59250  -0.00328   0.00926
       y    -0.00328   1.59979   0.00826
       z     0.00926   0.00826   1.55136
-------------------------------------------------------------------------------

  Static refractive indices : 

-------------------------------------------------------------------------------
    1 =    1.96859      2 =    2.29370      3 =    2.46130
-------------------------------------------------------------------------------

  High frequency refractive indices : 

-------------------------------------------------------------------------------
    1 =    1.24414      2 =    1.26261      3 =    1.26553
-------------------------------------------------------------------------------


  Time to end of optimisation =       3.5353 seconds


  Peak dynamic memory used =       2.76 MB 


  Timing analysis for GULP :

--------------------------------------------------------------------------------
  Task / Subroutine                                          Time (Seconds)
--------------------------------------------------------------------------------
  Calculation of reciprocal space energy and derivatives          0.2003
  Calculation of real space energy and derivatives                3.0127
  Calculation of three-body energy and derivatives                0.0328
  Calculation and manipulation of Hessian matrix                  0.4212
  Calculation of matrix inversion                                 0.0037
  Global summation overhead                                       0.0001
--------------------------------------------------------------------------------
  Total CPU time                                                  3.5353
--------------------------------------------------------------------------------


  Dump file written as c00098.vasp.grs
  CIF file written as c00098.vasp.cif


  Job Finished at 11:42.53 22nd October    2025                               

