********************************************************************************
*                       GENERAL UTILITY LATTICE PROGRAM                        *
*                                 Julian Gale                                  *
*                       Curtin Institute for Computation                       *
*                    School of Molecular and Life Sciences                     *
*                    Curtin University, Western Australia                      *
********************************************************************************
* Version = 6.1.2 * Last modified =   3rd November 2022                        *
********************************************************************************
*  optimise     - perform optimisation run                                     *
*  conp         - constant pressure calculation                                *
*  property     - calculate properties for final geometry                      *
********************************************************************************

  Job Started  at 11:40.20 22nd October    2025                               

  Number of CPUs =     1


  Total number of configurations input =      1

********************************************************************************
*  Input for Configuration =   1 : c00062.vasp                                 *
********************************************************************************

  Formula = Ge8Si4O24                                                   

  Number of irreducible atoms/shells =      60


  Total number atoms/shells =      60

  Dimensionality = 3               :  Bulk   



  Cartesian lattice vectors (Angstroms) :

        9.086940    0.000000    0.000000
        0.000000    7.554810    0.000000
       -3.295144    0.000000    9.944380

  Cell parameters (Angstroms/Degrees):

  a =       9.0869    alpha =  90.0000
  b =       7.5548    beta  = 108.3330
  c =      10.4761    gamma =  90.0000

  Initial cell volume =         682.682735 Angs**3

  Temperature of configuration =   0.00     K 

  Pressure of configuration =         0.000 GPa 

  Fractional coordinates of asymmetric unit :

--------------------------------------------------------------------------------
   No.  Atomic       x           y          z         Charge      Occupancy
        Label      (Frac)      (Frac)     (Frac)        (e)         (Frac)  
--------------------------------------------------------------------------------
      1 Ge    c    0.313820    0.296860    0.309830     4.00000    1.000000    
      2 Ge    c    0.686180 *  0.296860 *  0.690170 *   4.00000    1.000000    
      3 Ge    c    0.686180 *  0.703140 *  0.690170 *   4.00000    1.000000    
      4 Ge    c    0.668950 *  0.296920 *  0.392620 *   4.00000    1.000000    
      5 Ge    c    0.668950 *  0.703080 *  0.392620 *   4.00000    1.000000    
      6 Ge    c    0.331050 *  0.703080 *  0.607380 *   4.00000    1.000000    
      7 Ge    c    0.879680 *  0.000000 *  0.350160 *   4.00000    1.000000    
      8 Ge    c    0.906930 *  0.000000 *  0.841770 *   4.00000    1.000000    
      9 Si    c    0.313820 *  0.703140 *  0.309830 *   4.00000    1.000000    
     10 Si    c    0.331050 *  0.296920 *  0.607380 *   4.00000    1.000000    
     11 Si    c    0.120320 *  0.000000 *  0.649840 *   4.00000    1.000000    
     12 Si    c    0.093070 *  0.000000 *  0.158230 *   4.00000    1.000000    
     13 O3    c    0.268740 *  0.279030 *  0.446100 *   1.33043    1.000000    
     14 O1    c    0.731260 *  0.279030 *  0.553900 *   1.73396    1.000000    
     15 O1    c    0.731260 *  0.720970 *  0.553900 *   1.73396    1.000000    
     16 O3    c    0.268740 *  0.720970 *  0.446100 *   1.33043    1.000000    
     17 O3    c    0.295480 *  0.500000 *  0.260860 *   1.33043    1.000000    
     18 O1    c    0.704520 *  0.500000 *  0.739140 *   1.73396    1.000000    
     19 O1    c    0.490600 *  0.234690 *  0.337530 *   1.73396    1.000000    
     20 O3    c    0.509400 *  0.234690 *  0.662470 *   1.33043    1.000000    
     21 O1    c    0.509400 *  0.765310 *  0.662470 *   1.73396    1.000000    
     22 O3    c    0.490600 *  0.765310 *  0.337530 *   1.33043    1.000000    
     23 O3    c    0.200440 *  0.174000 *  0.194980 *   1.33043    1.000000    
     24 O1    c    0.799560 *  0.174000 *  0.805020 *   1.73396    1.000000    
     25 O1    c    0.799560 *  0.826000 *  0.805020 *   1.73396    1.000000    
     26 O2    c    0.200440 *  0.826000 *  0.194980 *   0.87073    1.000000    
     27 O3    c    0.317860 *  0.500000 *  0.649090 *   1.33043    1.000000    
     28 O1    c    0.682140 *  0.500000 *  0.350910 *   1.73396    1.000000    
     29 O2    c    0.227920 *  0.173870 *  0.671620 *   0.87073    1.000000    
     30 O1    c    0.772080 *  0.173870 *  0.328380 *   1.73396    1.000000    
     31 O1    c    0.772080 *  0.826130 *  0.328380 *   1.73396    1.000000    
     32 O3    c    0.227920 *  0.826130 *  0.671620 *   1.33043    1.000000    
     33 O3    c    0.000000 *  0.000000 *  0.500000 *   1.33043    1.000000    
     34 O3    c    0.971960 *  0.000000 *  0.241930 *   1.33043    1.000000    
     35 O3    c    0.028040 *  0.000000 *  0.758070 *   1.33043    1.000000    
     36 O3    c    0.000000 *  0.000000 *  0.000000 *   1.33043    1.000000    
     37 O3    s    0.268740 *  0.279030 *  0.446100 *  -3.33043    1.000000    
     38 O1    s    0.731260 *  0.279030 *  0.553900 *  -3.73396    1.000000    
     39 O1    s    0.731260 *  0.720970 *  0.553900 *  -3.73396    1.000000    
     40 O3    s    0.268740 *  0.720970 *  0.446100 *  -3.33043    1.000000    
     41 O3    s    0.295480 *  0.500000 *  0.260860 *  -3.33043    1.000000    
     42 O1    s    0.704520 *  0.500000 *  0.739140 *  -3.73396    1.000000    
     43 O1    s    0.490600 *  0.234690 *  0.337530 *  -3.73396    1.000000    
     44 O3    s    0.509400 *  0.234690 *  0.662470 *  -3.33043    1.000000    
     45 O1    s    0.509400 *  0.765310 *  0.662470 *  -3.73396    1.000000    
     46 O3    s    0.490600 *  0.765310 *  0.337530 *  -3.33043    1.000000    
     47 O3    s    0.200440 *  0.174000 *  0.194980 *  -3.33043    1.000000    
     48 O1    s    0.799560 *  0.174000 *  0.805020 *  -3.73396    1.000000    
     49 O1    s    0.799560 *  0.826000 *  0.805020 *  -3.73396    1.000000    
     50 O2    s    0.200440 *  0.826000 *  0.194980 *  -2.87073    1.000000    
     51 O3    s    0.317860 *  0.500000 *  0.649090 *  -3.33043    1.000000    
     52 O1    s    0.682140 *  0.500000 *  0.350910 *  -3.73396    1.000000    
     53 O2    s    0.227920 *  0.173870 *  0.671620 *  -2.87073    1.000000    
     54 O1    s    0.772080 *  0.173870 *  0.328380 *  -3.73396    1.000000    
     55 O1    s    0.772080 *  0.826130 *  0.328380 *  -3.73396    1.000000    
     56 O3    s    0.227920 *  0.826130 *  0.671620 *  -3.33043    1.000000    
     57 O3    s    0.000000 *  0.000000 *  0.500000 *  -3.33043    1.000000    
     58 O3    s    0.971960 *  0.000000 *  0.241930 *  -3.33043    1.000000    
     59 O3    s    0.028040 *  0.000000 *  0.758070 *  -3.33043    1.000000    
     60 O3    s    0.000000 *  0.000000 *  0.000000 *  -3.33043    1.000000    
--------------------------------------------------------------------------------



********************************************************************************
*  General input information                                                   *
********************************************************************************

  Species output for all configurations : 

--------------------------------------------------------------------------------
  Species    Type    Atomic    Atomic    Charge       Radii (Angs)     Library
                     Number     Mass       (e)     Cova   Ionic  VDW   Symbol
--------------------------------------------------------------------------------
    Ge       Core       32      72.61   4.000000   1.170  0.000  1.750 Ge       
    Si       Core       14      28.09   4.000000   1.200  0.000  2.100 Si       
    O1       Core        8      16.00   1.733957   0.730  0.000  1.360 O1       
    O2       Core        8      16.00   0.870733   0.730  0.000  1.360 O2       
    O3       Core        8      16.00   1.330431   0.730  0.000  1.360 O3       
    O1       Shell       8       0.00  -3.733957   0.730  0.000  0.000 O1       
    O2       Shell       8       0.00  -2.870733   0.730  0.000  0.000 O2       
    O3       Shell       8       0.00  -3.330431   0.730  0.000  0.000 O3       
--------------------------------------------------------------------------------


  Lattice summation method               =    Ewald          (3-D)
                                         =    Parry          (2-D)
                                         =    Saunders et al (1-D)
  Accuracy factor for lattice sums       =   12.000


  Analytic derivatives to be used

  Time limit = Infinity

  Maximum range for interatomic potentials =    100000.000000 Angstroms

  General interatomic potentials :

--------------------------------------------------------------------------------
Atom  Types   Potential      Parameter       Value         Units   Cutoffs(Ang)
  1     2                                                            Min /  Max 
--------------------------------------------------------------------------------
Si   c O1   s Buckingham    Buckingham A     1315.2478    eV        0.000 16.000
                            Buckingham rho  0.31775900    Ang       
                            Buckingham C     10.141118    eV*Ang^6  
--------------------------------------------------------------------------------
Si   c O2   s Buckingham    Buckingham A     1315.2478    eV        0.000 16.000
                            Buckingham rho  0.31775900    Ang       
                            Buckingham C     10.141118    eV*Ang^6  
--------------------------------------------------------------------------------
Si   c O3   s Buckingham    Buckingham A     1315.2478    eV        0.000 16.000
                            Buckingham rho  0.31775900    Ang       
                            Buckingham C     10.141118    eV*Ang^6  
--------------------------------------------------------------------------------
Ge   c O1   s Buckingham    Buckingham A     1497.3996    eV        0.000 16.000
                            Buckingham rho  0.32564600    Ang       
                            Buckingham C     16.808599    eV*Ang^6  
--------------------------------------------------------------------------------
Ge   c O2   s Buckingham    Buckingham A     1497.3996    eV        0.000 16.000
                            Buckingham rho  0.32564600    Ang       
                            Buckingham C     16.808599    eV*Ang^6  
--------------------------------------------------------------------------------
Ge   c O3   s Buckingham    Buckingham A     1497.3996    eV        0.000 16.000
                            Buckingham rho  0.32564600    Ang       
                            Buckingham C     16.808599    eV*Ang^6  
--------------------------------------------------------------------------------
O1   s O1   s Buckingham    Buckingham A     22764.000    eV        0.000 16.000
                            Buckingham rho  0.14900000    Ang       
                            Buckingham C     10.937044    eV*Ang^6  
--------------------------------------------------------------------------------
O1   s O2   s Buckingham    Buckingham A     22764.000    eV        0.000 16.000
                            Buckingham rho  0.14900000    Ang       
                            Buckingham C     10.937044    eV*Ang^6  
--------------------------------------------------------------------------------
O1   s O3   s Buckingham    Buckingham A     22764.000    eV        0.000 16.000
                            Buckingham rho  0.14900000    Ang       
                            Buckingham C     10.937044    eV*Ang^6  
--------------------------------------------------------------------------------
O2   s O2   s Buckingham    Buckingham A     22764.000    eV        0.000 16.000
                            Buckingham rho  0.14900000    Ang       
                            Buckingham C     10.937044    eV*Ang^6  
--------------------------------------------------------------------------------
O2   s O3   s Buckingham    Buckingham A     22764.000    eV        0.000 16.000
                            Buckingham rho  0.14900000    Ang       
                            Buckingham C     10.937044    eV*Ang^6  
--------------------------------------------------------------------------------
O3   s O3   s Buckingham    Buckingham A     22764.000    eV        0.000 16.000
                            Buckingham rho  0.14900000    Ang       
                            Buckingham C     10.937044    eV*Ang^6  
--------------------------------------------------------------------------------
O1   c O1   s Spring (c-s)  Spring k 2       180.31577    eV*Ang^-2 0.000  0.800
                            Spring k 4       0.0000000    eV*Ang^-4 
--------------------------------------------------------------------------------
O2   c O2   s Spring (c-s)  Spring k 2       75.969800    eV*Ang^-2 0.000  0.800
                            Spring k 4       0.0000000    eV*Ang^-4 
--------------------------------------------------------------------------------
O3   c O3   s Spring (c-s)  Spring k 2       128.14270    eV*Ang^-2 0.000  0.800
                            Spring k 4       0.0000000    eV*Ang^-4 
--------------------------------------------------------------------------------

  General Three-body potentials :

--------------------------------------------------------------------------------
  Atoms       Potential      Parameter       Value         Units   Cutoffs(Ang)
  1 / 2 / 3                                                          Min /  Max 
--------------------------------------------------------------------------------
Si    core    Harmonic      Three-body cnst  1.2614000    eV*rad^-2 0.000  1.900
O1    shel                  Three-body angl  109.47000    degrees   0.000  1.900
O1    shel                  Three-body k4    0.0000000    eV*rad^-4 0.000  3.500
                            Three-body k3    0.0000000    eV*rad^-3 
--------------------------------------------------------------------------------
Si    core    Harmonic      Three-body cnst  1.2614000    eV*rad^-2 0.000  1.900
O1    shel                  Three-body angl  109.47000    degrees   0.000  1.900
õ(1   shel                  Three-body k4    0.0000000    eV*rad^-4 0.000  3.500
                            Three-body k3    0.0000000    eV*rad^-3 
--------------------------------------------------------------------------------
Si    core    Harmonic      Three-body cnst  1.2614000    eV*rad^-2 0.000  1.900
õ(1   shel                  Three-body angl  109.47000    degrees   0.000  1.900
õ(1   shel                  Three-body k4    0.0000000    eV*rad^-4 0.000  3.500
                            Three-body k3    0.0000000    eV*rad^-3 
--------------------------------------------------------------------------------
Si    core    Harmonic      Three-body cnst  1.2614000    eV*rad^-2 0.000  1.900
O1    shel                  Three-body angl  109.47000    degrees   0.000  1.900
O2    shel                  Three-body k4    0.0000000    eV*rad^-4 0.000  3.500
                            Three-body k3    0.0000000    eV*rad^-3 
--------------------------------------------------------------------------------
Si    core    Harmonic      Three-body cnst  1.2614000    eV*rad^-2 0.000  1.900
O1    shel                  Three-body angl  109.47000    degrees   0.000  1.900
õ(2   shel                  Three-body k4    0.0000000    eV*rad^-4 0.000  3.500
                            Three-body k3    0.0000000    eV*rad^-3 
--------------------------------------------------------------------------------
Si    core    Harmonic      Three-body cnst  1.2614000    eV*rad^-2 0.000  1.900
O2    shel                  Three-body angl  109.47000    degrees   0.000  1.900
õ(1   shel                  Three-body k4    0.0000000    eV*rad^-4 0.000  3.500
                            Three-body k3    0.0000000    eV*rad^-3 
--------------------------------------------------------------------------------
Si    core    Harmonic      Three-body cnst  1.2614000    eV*rad^-2 0.000  1.900
õ(1   shel                  Three-body angl  109.47000    degrees   0.000  1.900
õ(2   shel                  Three-body k4    0.0000000    eV*rad^-4 0.000  3.500
                            Three-body k3    0.0000000    eV*rad^-3 
--------------------------------------------------------------------------------
Si    core    Harmonic      Three-body cnst  1.2614000    eV*rad^-2 0.000  1.900
O2    shel                  Three-body angl  109.47000    degrees   0.000  1.900
O2    shel                  Three-body k4    0.0000000    eV*rad^-4 0.000  3.500
                            Three-body k3    0.0000000    eV*rad^-3 
--------------------------------------------------------------------------------
Si    core    Harmonic      Three-body cnst  1.2614000    eV*rad^-2 0.000  1.900
O2    shel                  Three-body angl  109.47000    degrees   0.000  1.900
õ(2   shel                  Three-body k4    0.0000000    eV*rad^-4 0.000  3.500
                            Three-body k3    0.0000000    eV*rad^-3 
--------------------------------------------------------------------------------
Si    core    Harmonic      Three-body cnst  1.2614000    eV*rad^-2 0.000  1.900
õ(2   shel                  Three-body angl  109.47000    degrees   0.000  1.900
õ(2   shel                  Three-body k4    0.0000000    eV*rad^-4 0.000  3.500
                            Three-body k3    0.0000000    eV*rad^-3 
--------------------------------------------------------------------------------

********************************************************************************
*  Output for configuration   1 : c00062.vasp                                  *
********************************************************************************


  Components of energy : 

--------------------------------------------------------------------------------
  Interatomic potentials     =         432.36203570 eV    
  Three-body potentials      =           0.00000000 eV    
  Monopole - monopole (real) =       -1236.99964305 eV    
  Monopole - monopole (recip)=        -659.26603192 eV    
  Monopole - monopole (total)=       -1896.26567496 eV    
--------------------------------------------------------------------------------
  Total lattice energy       =       -1463.90363926 eV    
--------------------------------------------------------------------------------
  Total lattice energy       =         -141244.3234 kJ/(mole unit cells)
--------------------------------------------------------------------------------


  Number of variables =      183

  Maximum number of calculations  =          1000
  Maximum Hessian update interval =            10
  Maximum step size               =   0.100000000
  Maximum parameter tolerance     =   0.000010000
  Maximum function  tolerance     =   0.000010000
  Maximum gradient  tolerance     =   0.001000000
  Maximum gradient  component     =   0.010000000

  Symmetry not applied to optimisation

  Cell parameters to be optimised using strains

  Newton-Raphson optimiser to be used

  BFGS hessian update to be used

  Lower half triangular hessian to be used

  Minimiser to switch to RFO
  When gradient norm is less than     0.050000

  Dumpfile to be written after every cycle

  Start of bulk optimisation :

  Cycle:      0 Energy:     -1463.903639  Gnorm:      6.394507  CPU:    0.040
  ** Hessian calculated **
  Cycle:      1 Energy:     -1472.970819  Gnorm:      4.995515  CPU:    0.119
  ** Hessian calculated **
  Cycle:      2 Energy:     -1484.220710  Gnorm:      1.339799  CPU:    0.194
  ** Hessian calculated **
  Cycle:      3 Energy:     -1486.350691  Gnorm:      0.911129  CPU:    0.278
  ** Hessian calculated **
  Cycle:      4 Energy:     -1486.927197  Gnorm:      0.486853  CPU:    0.352
  Cycle:      5 Energy:     -1487.154709  Gnorm:      0.296495  CPU:    0.397
  Cycle:      6 Energy:     -1487.340285  Gnorm:      0.237410  CPU:    0.450
  Cycle:      7 Energy:     -1487.535421  Gnorm:      0.206736  CPU:    0.503
  Cycle:      8 Energy:     -1487.646460  Gnorm:      0.158120  CPU:    0.548
  Cycle:      9 Energy:     -1487.707807  Gnorm:      0.133241  CPU:    0.593
  Cycle:     10 Energy:     -1487.740194  Gnorm:      0.095472  CPU:    0.638
  Cycle:     11 Energy:     -1487.758197  Gnorm:      0.083218  CPU:    0.682
  Cycle:     12 Energy:     -1487.778284  Gnorm:      0.083053  CPU:    0.736
  Cycle:     13 Energy:     -1487.796751  Gnorm:      0.080906  CPU:    0.789
  ** Hessian calculated **
  Cycle:     14 Energy:     -1487.803467  Gnorm:      0.067291  CPU:    0.873
  Cycle:     15 Energy:     -1487.812564  Gnorm:      0.058646  CPU:    0.926
  Cycle:     16 Energy:     -1487.824493  Gnorm:      0.055476  CPU:    0.979
  Cycle:     17 Energy:     -1487.838664  Gnorm:      0.053101  CPU:    1.032
  Cycle:     18 Energy:     -1487.851730  Gnorm:      0.064930  CPU:    1.084
  Cycle:     19 Energy:     -1487.859370  Gnorm:      0.053611  CPU:    1.129
  Cycle:     20 Energy:     -1487.867166  Gnorm:      0.058531  CPU:    1.181
  Cycle:     21 Energy:     -1487.878478  Gnorm:      0.061709  CPU:    1.233
  Cycle:     22 Energy:     -1487.894902  Gnorm:      0.069926  CPU:    1.285
  Cycle:     23 Energy:     -1487.914686  Gnorm:      0.074000  CPU:    1.337
  ** Hessian calculated **
  Cycle:     24 Energy:     -1487.918997  Gnorm:      0.056990  CPU:    1.408
  Cycle:     25 Energy:     -1487.927062  Gnorm:      0.048563  CPU:    1.468
  ** Hessian has required structure
  Cycle:     26 Energy:     -1487.930401  Gnorm:      0.067759  CPU:    1.514
  ** Hessian has required structure
  Cycle:     27 Energy:     -1487.932957  Gnorm:      0.079951  CPU:    1.558
  ** Hessian has required structure
  Cycle:     28 Energy:     -1487.935138  Gnorm:      0.078949  CPU:    1.610
  ** Hessian has required structure
  Cycle:     29 Energy:     -1487.938207  Gnorm:      0.074092  CPU:    1.663
  ** Hessian has required structure
  Cycle:     30 Energy:     -1487.943316  Gnorm:      0.064355  CPU:    1.707
  ** Hessian has required structure
  Cycle:     31 Energy:     -1487.945243  Gnorm:      0.057878  CPU:    1.751
  ** Hessian has required structure
  Cycle:     32 Energy:     -1487.946667  Gnorm:      0.067169  CPU:    1.795
  ** Hessian has required structure
  Cycle:     33 Energy:     -1487.949013  Gnorm:      0.086283  CPU:    1.847
  ** Hessian has wrong structure
  ** Imaginary eigenvectors =   3
  Cycle:     34 Energy:     -1487.995855  Gnorm:      0.091717  CPU:    2.025
  ** Hessian has wrong structure
  ** Imaginary eigenvectors =   2
  ** Hessian has wrong structure
  ** Imaginary eigenvectors =   2
  Cycle:     35 Energy:     -1488.032937  Gnorm:      0.103614  CPU:    2.197
  ** Hessian has wrong structure
  ** Imaginary eigenvectors =   1
  ** Hessian has wrong structure
  ** Imaginary eigenvectors =   1
  Cycle:     36 Energy:     -1488.128552  Gnorm:      0.091212  CPU:    2.342
  ** Hessian has wrong structure
  ** Imaginary eigenvectors =   1
  Cycle:     37 Energy:     -1488.200159  Gnorm:      0.085070  CPU:    2.443
  ** Hessian has wrong structure
  ** Imaginary eigenvectors =   1
  Cycle:     38 Energy:     -1488.212713  Gnorm:      0.090502  CPU:    2.576
  ** Hessian has required structure
  Cycle:     39 Energy:     -1488.277287  Gnorm:      0.048134  CPU:    2.669
  ** Hessian has required structure
  Cycle:     40 Energy:     -1488.302239  Gnorm:      0.030369  CPU:    2.721
  ** Hessian has required structure
  Cycle:     41 Energy:     -1488.316744  Gnorm:      0.022959  CPU:    2.774
  ** Hessian has required structure
  Cycle:     42 Energy:     -1488.325884  Gnorm:      0.015920  CPU:    2.827
  ** Hessian has required structure
  Cycle:     43 Energy:     -1488.330630  Gnorm:      0.019756  CPU:    2.873
  ** Hessian has required structure
  Cycle:     44 Energy:     -1488.335760  Gnorm:      0.012130  CPU:    2.919
  ** Hessian has required structure
  Cycle:     45 Energy:     -1488.337920  Gnorm:      0.014928  CPU:    2.966
  ** Hessian has required structure
  Cycle:     46 Energy:     -1488.339782  Gnorm:      0.010423  CPU:    3.028
  ** Hessian has required structure
  Cycle:     47 Energy:     -1488.341132  Gnorm:      0.012602  CPU:    3.080
  ** Hessian has required structure
  Cycle:     48 Energy:     -1488.342480  Gnorm:      0.009038  CPU:    3.133
  ** Hessian has required structure
  Cycle:     49 Energy:     -1488.343535  Gnorm:      0.004613  CPU:    3.222
  ** Hessian has required structure
  Cycle:     50 Energy:     -1488.343773  Gnorm:      0.002861  CPU:    3.274
  ** Hessian has required structure
  Cycle:     51 Energy:     -1488.343884  Gnorm:      0.001475  CPU:    3.334
  ** Hessian has required structure
  Cycle:     52 Energy:     -1488.343913  Gnorm:      0.000763  CPU:    3.396
  ** Hessian has required structure
  Cycle:     53 Energy:     -1488.343917  Gnorm:      0.000586  CPU:    3.440
  ** Hessian has required structure
  Cycle:     54 Energy:     -1488.343922  Gnorm:      0.000383  CPU:    3.492
  ** Hessian has required structure
  Cycle:     55 Energy:     -1488.343923  Gnorm:      0.000268  CPU:    3.536
  ** Hessian has required structure
  Cycle:     56 Energy:     -1488.343924  Gnorm:      0.000188  CPU:    3.581
  ** Hessian has required structure


  **** Optimisation achieved ****


  Final energy =   -1488.34392422 eV      
  Final Gnorm  =       0.00013188

  Components of energy : 

--------------------------------------------------------------------------------
  Interatomic potentials     =         394.86918789 eV    
  Three-body potentials      =           0.00000000 eV    
  Monopole - monopole (real) =        -662.30760123 eV    
  Monopole - monopole (recip)=       -1220.90551088 eV    
  Monopole - monopole (total)=       -1883.21311211 eV    
--------------------------------------------------------------------------------
  Total lattice energy       =       -1488.34392422 eV    
--------------------------------------------------------------------------------
  Total lattice energy       =         -143602.4373 kJ/(mole unit cells)
--------------------------------------------------------------------------------

  Final fractional coordinates of atoms :

--------------------------------------------------------------------------------
   No.  Atomic        x           y          z          Radius
        Label       (Frac)      (Frac)     (Frac)       (Angs) 
--------------------------------------------------------------------------------
     1  Ge    c     0.313820    0.296860    0.309830    0.000000
     2  Ge    c     0.669575    0.327858    0.718318    0.000000
     3  Ge    c     0.639330    0.732673    0.714704    0.000000
     4  Ge    c     0.681542    0.353806    0.398405    0.000000
     5  Ge    c     0.633331    0.756889    0.395567    0.000000
     6  Ge    c     0.272928    0.670361    0.621294    0.000000
     7  Ge    c     0.870631    0.045146    0.333832    0.000000
     8  Ge    c     0.883774    0.018913    0.848365    0.000000
     9  Si    c     0.271805    0.691449    0.313153    0.000000
    10  Si    c     0.309594    0.272217    0.621282    0.000000
    11  Si    c     0.078446    0.978298    0.635264    0.000000
    12  Si    c     0.090552    0.001523    0.147557    0.000000
    13  O3    c     0.253951    0.274311    0.456691    0.000000
    14  O1    c     0.731671    0.348013    0.573773    0.000000
    15  O1    c     0.702710    0.760813    0.570310    0.000000
    16  O3    c     0.209347    0.661990    0.444997    0.000000
    17  O3    c     0.283332    0.508447    0.249627    0.000000
    18  O1    c     0.658759    0.525433    0.778322    0.000000
    19  O1    c     0.503328    0.256231    0.340525    0.000000
    20  O3    c     0.488240    0.230141    0.669933    0.000000
    21  O1    c     0.447101    0.771978    0.673063    0.000000
    22  O3    c     0.437817    0.781965    0.360309    0.000000
    23  O3    c     0.210773    0.156591    0.191828    0.000000
    24  O1    c     0.792260    0.208565    0.841997    0.000000
    25  O1    c     0.747317    0.860619    0.838848    0.000000
    26  O2    c     0.159546    0.817473    0.204930    0.000000
    27  O3    c     0.283528    0.457284    0.677059    0.000000
    28  O1    c     0.671690    0.562634    0.340218    0.000000
    29  O2    c     0.211097    0.126638    0.678038    0.000000
    30  O1    c     0.817723    0.251485    0.345264    0.000000
    31  O1    c     0.709321    0.918585    0.316956    0.000000
    32  O3    c     0.149088    0.791092    0.680930    0.000000
    33  O3    c     0.015104    0.977252    0.471594    0.000000
    34  O3    c     0.936168    0.033797    0.190429    0.000000
    35  O3    c     0.943077    0.014642    0.699820    0.000000
    36  O3    c     0.042591    0.995635    0.984153    0.000000
    37  O3    s     0.263924    0.275868    0.460515    0.000000
    38  O1    s     0.723181    0.346925    0.571537    0.000000
    39  O1    s     0.692973    0.758500    0.567903    0.000000
    40  O3    s     0.220430    0.665512    0.445898    0.000000
    41  O3    s     0.284505    0.509979    0.260163    0.000000
    42  O1    s     0.658149    0.525185    0.768785    0.000000
    43  O1    s     0.501436    0.266517    0.342328    0.000000
    44  O3    s     0.484551    0.241531    0.668838    0.000000
    45  O1    s     0.448217    0.761104    0.672205    0.000000
    46  O3    s     0.437167    0.771140    0.358546    0.000000
    47  O3    s     0.207353    0.152841    0.197322    0.000000
    48  O1    s     0.789761    0.203324    0.832930    0.000000
    49  O1    s     0.749430    0.862849    0.830034    0.000000
    50  O2    s     0.164233    0.823568    0.210428    0.000000
    51  O3    s     0.285072    0.456748    0.667658    0.000000
    52  O1    s     0.669570    0.561378    0.348768    0.000000
    53  O2    s     0.208194    0.127115    0.667809    0.000000
    54  O1    s     0.811257    0.243673    0.348485    0.000000
    55  O1    s     0.715571    0.915373    0.324486    0.000000
    56  O3    s     0.152132    0.798914    0.672135    0.000000
    57  O3    s     0.009411    0.982896    0.476033    0.000000
    58  O3    s     0.945665    0.031599    0.197640    0.000000
    59  O3    s     0.952599    0.011202    0.704482    0.000000
    60  O3    s     0.034005    0.998157    0.988826    0.000000
--------------------------------------------------------------------------------

  Final Cartesian lattice vectors (Angstroms) :

        9.074056   -0.136556    0.239315
       -0.116780    7.807836    0.108139
       -3.032126    0.189192    9.712930


  Final cell parameters and derivatives :

--------------------------------------------------------------------------------
       a            9.078238 Angstrom     dE/de1(xx)     0.005077 eV/strain
       b            7.809458 Angstrom     dE/de2(yy)     0.006058 eV/strain
       c           10.176963 Angstrom     dE/de3(zz)     0.002542 eV/strain
       alpha       87.922139 Degrees      dE/de4(yz)    -0.000082 eV/strain
       beta       105.838283 Degrees      dE/de5(xz)     0.001046 eV/strain
       gamma       91.697393 Degrees      dE/de6(xy)     0.000169 eV/strain
--------------------------------------------------------------------------------

  Primitive cell volume =           693.513377 Angs**3

  Density of cell =      2.579370 g/cm**3

  Non-primitive cell volume =           693.513377 Angs**3


  Final internal derivatives :

--------------------------------------------------------------------------------
   No.  Atomic          a             b             c           Radius
        Label          (eV)          (eV)          (eV)        (eV/Angs)
--------------------------------------------------------------------------------
      1 Ge    c       0.000000      0.000000      0.000000      0.000000
      2 Ge    c       0.000499      0.000080     -0.000836      0.000000
      3 Ge    c       0.000491      0.000241      0.000182      0.000000
      4 Ge    c       0.000795     -0.001657     -0.000065      0.000000
      5 Ge    c       0.003038      0.001463     -0.003407      0.000000
      6 Ge    c      -0.001417      0.000665      0.000443      0.000000
      7 Ge    c      -0.000474     -0.000811     -0.000236      0.000000
      8 Ge    c       0.003013      0.001742      0.002189      0.000000
      9 Si    c      -0.000088     -0.000719      0.000656      0.000000
     10 Si    c      -0.000795     -0.000381      0.000202      0.000000
     11 Si    c      -0.001040     -0.001076      0.000079      0.000000
     12 Si    c       0.000485     -0.001591     -0.004872      0.000000
     13 O3    c      -0.000727     -0.000308      0.000238      0.000000
     14 O1    c       0.000438     -0.000114     -0.000102      0.000000
     15 O1    c       0.000751      0.000400      0.000215      0.000000
     16 O3    c      -0.001225      0.000527      0.000285      0.000000
     17 O3    c       0.000027     -0.001004     -0.001094      0.000000
     18 O1    c       0.000192      0.000338      0.001026      0.000000
     19 O1    c      -0.000502     -0.001354      0.000021      0.000000
     20 O3    c      -0.000729     -0.001433     -0.000236      0.000000
     21 O1    c       0.001513      0.001922      0.000032      0.000000
     22 O3    c       0.001410      0.001826      0.001244      0.000000
     23 O3    c       0.003616      0.006351      0.000799      0.000000
     24 O1    c      -0.000662      0.000545      0.002770      0.000000
     25 O1    c      -0.004046     -0.004924     -0.000081      0.000000
     26 O2    c       0.000059     -0.001746     -0.000679      0.000000
     27 O3    c      -0.000536     -0.001063      0.000549      0.000000
     28 O1    c       0.000166      0.003302     -0.000106      0.000000
     29 O2    c       0.001014      0.001014     -0.000032      0.000000
     30 O1    c      -0.000831      0.002167      0.001277      0.000000
     31 O1    c      -0.005845     -0.002469      0.006630      0.000000
     32 O3    c      -0.000143     -0.000314      0.000478      0.000000
     33 O3    c       0.001468      0.000129      0.001637      0.000000
     34 O3    c      -0.008307      0.000113      0.005579      0.000000
     35 O3    c       0.000748     -0.000663     -0.001668      0.000000
     36 O3    c      -0.001753      0.000104     -0.001116      0.000000
     37 O3    s       0.000392      0.000686      0.000073      0.000000
     38 O1    s       0.000341     -0.000166      0.000432      0.000000
     39 O1    s      -0.000360     -0.000561     -0.000641      0.000000
     40 O3    s      -0.000689     -0.001053      0.001160      0.000000
     41 O3    s       0.000434     -0.000476      0.000261      0.000000
     42 O1    s      -0.000625      0.000511     -0.000201      0.000000
     43 O1    s       0.000323      0.001197     -0.000780      0.000000
     44 O3    s      -0.000261      0.001087      0.000628      0.000000
     45 O1    s      -0.000369     -0.001446      0.000609      0.000000
     46 O3    s       0.001831     -0.001009     -0.001692      0.000000
     47 O3    s       0.000795     -0.000327     -0.001636      0.000000
     48 O1    s       0.000228      0.000647     -0.001295      0.000000
     49 O1    s       0.001776      0.001635      0.001328      0.000000
     50 O2    s       0.001442     -0.001660     -0.001148      0.000000
     51 O3    s       0.000547      0.000178     -0.000162      0.000000
     52 O1    s      -0.000014     -0.000529     -0.000580      0.000000
     53 O2    s      -0.000347     -0.000332      0.000913      0.000000
     54 O1    s       0.000848     -0.000839     -0.001616      0.000000
     55 O1    s       0.002041      0.000704     -0.002956      0.000000
     56 O3    s      -0.000225      0.000186     -0.000397      0.000000
     57 O3    s      -0.000309     -0.001003     -0.000255      0.000000
     58 O3    s      -0.000674      0.000027     -0.002598      0.000000
     59 O3    s      -0.000018      0.001612      0.000745      0.000000
     60 O3    s       0.002174     -0.000733     -0.002798      0.000000
--------------------------------------------------------------------------------
  Maximum abs         0.008307      0.006351      0.006630      0.000000
--------------------------------------------------------------------------------


  Born effective charge tensors : 

-------------------------------------------------------------------------------
  Atom             x           y             z
-------------------------------------------------------------------------------
    1 Ge    x       3.8821      0.0963      0.3146
            y       0.1917      4.1683      0.2110
            z       0.0737      0.2814      3.5437
-------------------------------------------------------------------------------
    2 Ge    x       3.8828     -0.1196      0.3551
            y      -0.4319      4.1433     -0.2191
            z       0.1635     -0.2017      3.7457
-------------------------------------------------------------------------------
    3 Ge    x       3.9789      0.2290      0.4207
            y       0.3107      4.1533      0.1673
            z       0.1819      0.1935      3.7446
-------------------------------------------------------------------------------
    4 Ge    x       4.2302     -0.1545     -0.0765
            y      -0.4558      4.1909     -0.0325
            z       0.0293      0.1171      3.4268
-------------------------------------------------------------------------------
    5 Ge    x       4.0482      0.3440     -0.2215
            y       0.2392      4.1991      0.0108
            z       0.1206     -0.0728      3.4334
-------------------------------------------------------------------------------
    6 Ge    x       3.9169     -0.1381     -0.0507
            y      -0.4275      4.2192      0.0280
            z       0.1765      0.2228      3.2821
-------------------------------------------------------------------------------
    7 Ge    x       4.4320     -0.2591     -0.2387
            y       0.1539      3.9108      0.1358
            z      -0.1355     -0.0421      3.6359
-------------------------------------------------------------------------------
    8 Ge    x       3.9867     -0.1123     -0.2223
            y       0.0559      3.8910      0.0591
            z       0.7112     -0.0984      4.4092
-------------------------------------------------------------------------------
    9 Si    x       3.4771      0.0710      0.1814
            y      -0.2662      3.8470     -0.0165
            z      -0.0001     -0.1261      3.2426
-------------------------------------------------------------------------------
   10 Si    x       3.6299      0.1067      0.0152
            y       0.0963      3.7792      0.1493
            z       0.2365     -0.0151      3.1434
-------------------------------------------------------------------------------
   11 Si    x       3.9411     -0.3370      0.1205
            y      -0.0371      3.5926     -0.0504
            z      -0.5309      0.1057      3.3341
-------------------------------------------------------------------------------
   12 Si    x       3.6153     -0.0272      0.2312
            y       0.1956      3.5150      0.0749
            z      -0.0145      0.1862      4.3268
-------------------------------------------------------------------------------
   13 O3    x      -1.4533     -0.1175      0.3060
            y      -0.1333     -1.3826      0.0290
            z       0.3407      0.0332     -2.5187
-------------------------------------------------------------------------------
   14 O1    x      -1.6672      0.0150      0.4623
            y       0.0784     -1.4262      0.0821
            z       0.4362      0.0813     -2.5996
-------------------------------------------------------------------------------
   15 O1    x      -1.6467     -0.1362      0.2973
            y      -0.1364     -1.4171     -0.0227
            z       0.3181      0.0193     -2.6104
-------------------------------------------------------------------------------
   16 O3    x      -1.5391     -0.0014      0.4746
            y       0.0598     -1.3882      0.1315
            z       0.4271      0.0839     -2.3881
-------------------------------------------------------------------------------
   17 O3    x      -1.2469      0.1795     -0.0263
            y       0.2868     -3.0898     -0.1219
            z       0.0283     -0.1160     -1.3421
-------------------------------------------------------------------------------
   18 O1    x      -1.3246      0.1151     -0.0663
            y       0.1732     -3.1850     -0.0110
            z      -0.0172     -0.0310     -1.4139
-------------------------------------------------------------------------------
   19 O1    x      -3.0158     -0.1553     -0.5288
            y      -0.1084     -1.5528     -0.0911
            z      -0.4876     -0.1311     -1.3637
-------------------------------------------------------------------------------
   20 O3    x      -2.8206     -0.1273     -0.5685
            y      -0.0460     -1.4393     -0.0119
            z      -0.5899      0.0005     -1.3281
-------------------------------------------------------------------------------
   21 O1    x      -2.9303     -0.2012     -0.5690
            y      -0.1065     -1.5631     -0.0748
            z      -0.5752     -0.1402     -1.3974
-------------------------------------------------------------------------------
   22 O3    x      -2.7997     -0.2974     -0.5086
            y      -0.2222     -1.4645     -0.0690
            z      -0.5084     -0.0504     -1.2961
-------------------------------------------------------------------------------
   23 O3    x      -1.6906     -0.7222     -0.4996
            y      -0.7524     -2.3826     -0.7269
            z      -0.4534     -0.7575     -1.8405
-------------------------------------------------------------------------------
   24 O1    x      -1.8493      0.8310     -0.4327
            y       0.8195     -2.4742      0.5948
            z      -0.5183      0.6226     -1.8975
-------------------------------------------------------------------------------
   25 O1    x      -1.9578     -0.7876     -0.4307
            y      -0.8416     -2.2870     -0.6339
            z      -0.5289     -0.6347     -1.9342
-------------------------------------------------------------------------------
   26 O2    x      -1.3525      0.4720     -0.3552
            y       0.4268     -2.0072      0.5438
            z      -0.2861      0.5557     -1.5878
-------------------------------------------------------------------------------
   27 O3    x      -1.3288      0.1602      0.0936
            y       0.2495     -3.0987     -0.0917
            z       0.0370     -0.0785     -1.2448
-------------------------------------------------------------------------------
   28 O1    x      -1.4683      0.1932      0.0928
            y       0.2769     -3.1619      0.0127
            z       0.0439     -0.0041     -1.2880
-------------------------------------------------------------------------------
   29 O2    x      -1.8322     -0.6912      0.0250
            y      -0.7020     -1.9036      0.0186
            z       0.0837      0.0411     -1.1431
-------------------------------------------------------------------------------
   30 O1    x      -2.3315      0.9841      0.3103
            y       0.9099     -2.5484     -0.2747
            z       0.2493     -0.2234     -1.2958
-------------------------------------------------------------------------------
   31 O1    x      -2.5134     -1.0234      0.2541
            y      -1.0210     -2.3009      0.2357
            z       0.1356      0.2101     -1.3603
-------------------------------------------------------------------------------
   32 O3    x      -1.9748      0.8915      0.0699
            y       0.8272     -2.5422      0.0429
            z       0.1277      0.0093     -1.2567
-------------------------------------------------------------------------------
   33 O3    x      -1.6335      0.1340     -0.5040
            y       0.0330     -1.3005      0.1168
            z      -0.3052      0.1478     -2.5813
-------------------------------------------------------------------------------
   34 O3    x      -2.5994      0.2804      0.7437
            y       0.1758     -1.2459     -0.1066
            z       0.7369     -0.1086     -1.9993
-------------------------------------------------------------------------------
   35 O3    x      -2.6297      0.2332      0.8801
            y       0.1141     -1.2605     -0.1082
            z       0.8663     -0.1369     -2.0099
-------------------------------------------------------------------------------
   36 O3    x      -1.4150      0.0725     -0.3490
            y       0.0143     -1.1877      0.0190
            z      -0.5730      0.0567     -3.5709
-------------------------------------------------------------------------------




  Elastic Constant Matrix: (Units=GPa)

-------------------------------------------------------------------------------
  Indices      1         2         3         4         5         6    
-------------------------------------------------------------------------------
       1     27.7023   11.2110    6.3954   -1.1268    1.5866   -8.0300
       2     11.2110   35.3831   10.1212   -2.0553    5.1670   -9.2771
       3      6.3954   10.1212   30.5301   -1.7228   13.4233   -0.4838
       4     -1.1268   -2.0553   -1.7228   11.0248   -0.5755    4.2363
       5      1.5866    5.1670   13.4233   -0.5755   14.5808   -0.1369
       6     -8.0300   -9.2771   -0.4838    4.2363   -0.1369   19.8769
-------------------------------------------------------------------------------


  Elastic Compliance Matrix: (Units=1/GPa)

-------------------------------------------------------------------------------
  Indices      1         2         3         4         5         6    
-------------------------------------------------------------------------------
       1    0.045765 -0.009093 -0.009705 -0.003880  0.007164  0.014884
       2   -0.009093  0.037829 -0.008475 -0.000783 -0.004514  0.013911
       3   -0.009705 -0.008475  0.060487  0.007399 -0.051413 -0.008335
       4   -0.003880 -0.000783  0.007399  0.100069 -0.002379 -0.023096
       5    0.007164 -0.004514 -0.051413 -0.002379  0.116649  0.000846
       6    0.014884  0.013911 -0.008335 -0.023096  0.000846  0.067541
-------------------------------------------------------------------------------

  Mechanical properties :

-------------------------------------------------------------------------------
  Convention :                    Reuss         Voigt         Hill
-------------------------------------------------------------------------------
  Bulk  Modulus (GPa)     =      11.16888      16.56341      13.86615
  Shear Modulus (GPa)     =       9.75170      13.48902      11.62036
-------------------------------------------------------------------------------
  Velocity S-wave (km/s)  =       1.94439       2.28683       2.12253
  Velocity P-wave (km/s)  =       3.06120       3.65982       3.37381
-------------------------------------------------------------------------------
  Compressibility (1/GPa) =    0.08953451
-------------------------------------------------------------------------------
  Stress axis :                     x             y             z
-------------------------------------------------------------------------------
  Youngs Moduli (GPa)     =      21.85070      26.43500      16.53239
-------------------------------------------------------------------------------
  Poissons Ratio (x)      =                     0.24039       0.16045
  Poissons Ratio (y)      =       0.19870                     0.14011
  Poissons Ratio (z)      =       0.21206       0.22403
-------------------------------------------------------------------------------


  Piezoelectric Strain Matrix: (Units=C/m**2)

-------------------------------------------------------------------------------
  Indices      1         2         3         4         5         6    
-------------------------------------------------------------------------------
       x    -0.19409   0.01961   0.68132   0.24044  -0.01180  -0.27359
       y    -1.07824  -0.89523  -0.08691   0.37307  -0.52259  -0.98023
       z    -0.39844  -0.65349  -0.52433  -0.28351   0.90698  -0.08959
-------------------------------------------------------------------------------


  Piezoelectric Stress Matrix: (Units=10**-11 C/N)

-------------------------------------------------------------------------------
  Indices      1         2         3         4         5         6    
-------------------------------------------------------------------------------
       x    -2.07628  -0.72083   4.75948   3.61864  -3.86872  -3.23368
       y    -6.01427  -3.48934   5.05921   6.54559  -6.18909 -10.30425
       z    -0.09399  -2.17725  -7.02912  -3.02808  13.34495  -0.93873
-------------------------------------------------------------------------------


  Static dielectric constant tensor : 

-------------------------------------------------------------------------------
              x         y         z
-------------------------------------------------------------------------------
       x     5.04275  -0.05817   0.24330
       y    -0.05817   6.09521   0.24831
       z     0.24330   0.24831   3.98002
--------------------------------------------------------------------------------

  High frequency dielectric constant tensor : 

-------------------------------------------------------------------------------
              x         y         z
-------------------------------------------------------------------------------
       x     1.57753  -0.00265   0.00962
       y    -0.00265   1.58534   0.00201
       z     0.00962   0.00201   1.54045
-------------------------------------------------------------------------------

  Static refractive indices : 

-------------------------------------------------------------------------------
    1 =    1.97418      2 =    2.25739      3 =    2.47484
-------------------------------------------------------------------------------

  High frequency refractive indices : 

-------------------------------------------------------------------------------
    1 =    1.24015      2 =    1.25665      3 =    1.25944
-------------------------------------------------------------------------------


  Time to end of optimisation =       3.6832 seconds


  Peak dynamic memory used =       2.76 MB 


  Timing analysis for GULP :

--------------------------------------------------------------------------------
  Task / Subroutine                                          Time (Seconds)
--------------------------------------------------------------------------------
  Calculation of reciprocal space energy and derivatives          0.2490
  Calculation of real space energy and derivatives                3.0809
  Calculation of three-body energy and derivatives                0.0398
  Calculation and manipulation of Hessian matrix                  0.5454
  Calculation of matrix inversion                                 0.0058
  Global summation overhead                                       0.0001
--------------------------------------------------------------------------------
  Total CPU time                                                  3.6832
--------------------------------------------------------------------------------


  Dump file written as c00062.vasp.grs
  CIF file written as c00062.vasp.cif


  Job Finished at 11:40.24 22nd October    2025                               

