********************************************************************************
*                       GENERAL UTILITY LATTICE PROGRAM                        *
*                                 Julian Gale                                  *
*                       Curtin Institute for Computation                       *
*                    School of Molecular and Life Sciences                     *
*                    Curtin University, Western Australia                      *
********************************************************************************
* Version = 6.1.2 * Last modified =   3rd November 2022                        *
********************************************************************************
*  optimise     - perform optimisation run                                     *
*  conp         - constant pressure calculation                                *
*  property     - calculate properties for final geometry                      *
********************************************************************************

  Job Started  at 11:39.57 22nd October    2025                               

  Number of CPUs =     1


  Total number of configurations input =      1

********************************************************************************
*  Input for Configuration =   1 : c00056.vasp                                 *
********************************************************************************

  Formula = Ge8Si4O24                                                   

  Number of irreducible atoms/shells =      60


  Total number atoms/shells =      60

  Dimensionality = 3               :  Bulk   



  Cartesian lattice vectors (Angstroms) :

        9.086940    0.000000    0.000000
        0.000000    7.554810    0.000000
       -3.295144    0.000000    9.944380

  Cell parameters (Angstroms/Degrees):

  a =       9.0869    alpha =  90.0000
  b =       7.5548    beta  = 108.3330
  c =      10.4761    gamma =  90.0000

  Initial cell volume =         682.682735 Angs**3

  Temperature of configuration =   0.00     K 

  Pressure of configuration =         0.000 GPa 

  Fractional coordinates of asymmetric unit :

--------------------------------------------------------------------------------
   No.  Atomic       x           y          z         Charge      Occupancy
        Label      (Frac)      (Frac)     (Frac)        (e)         (Frac)  
--------------------------------------------------------------------------------
      1 Ge    c    0.313820    0.296860    0.309830     4.00000    1.000000    
      2 Ge    c    0.686180 *  0.296860 *  0.690170 *   4.00000    1.000000    
      3 Ge    c    0.686180 *  0.703140 *  0.690170 *   4.00000    1.000000    
      4 Ge    c    0.331050 *  0.296920 *  0.607380 *   4.00000    1.000000    
      5 Ge    c    0.331050 *  0.703080 *  0.607380 *   4.00000    1.000000    
      6 Ge    c    0.879680 *  0.000000 *  0.350160 *   4.00000    1.000000    
      7 Ge    c    0.120320 *  0.000000 *  0.649840 *   4.00000    1.000000    
      8 Ge    c    0.906930 *  0.000000 *  0.841770 *   4.00000    1.000000    
      9 Si    c    0.313820 *  0.703140 *  0.309830 *   4.00000    1.000000    
     10 Si    c    0.668950 *  0.296920 *  0.392620 *   4.00000    1.000000    
     11 Si    c    0.668950 *  0.703080 *  0.392620 *   4.00000    1.000000    
     12 Si    c    0.093070 *  0.000000 *  0.158230 *   4.00000    1.000000    
     13 O1    c    0.268740 *  0.279030 *  0.446100 *   1.73396    1.000000    
     14 O3    c    0.731260 *  0.279030 *  0.553900 *   1.33043    1.000000    
     15 O3    c    0.731260 *  0.720970 *  0.553900 *   1.33043    1.000000    
     16 O3    c    0.268740 *  0.720970 *  0.446100 *   1.33043    1.000000    
     17 O3    c    0.295480 *  0.500000 *  0.260860 *   1.33043    1.000000    
     18 O1    c    0.704520 *  0.500000 *  0.739140 *   1.73396    1.000000    
     19 O3    c    0.490600 *  0.234690 *  0.337530 *   1.33043    1.000000    
     20 O1    c    0.509400 *  0.234690 *  0.662470 *   1.73396    1.000000    
     21 O1    c    0.509400 *  0.765310 *  0.662470 *   1.73396    1.000000    
     22 O2    c    0.490600 *  0.765310 *  0.337530 *   0.87073    1.000000    
     23 O3    c    0.200440 *  0.174000 *  0.194980 *   1.33043    1.000000    
     24 O1    c    0.799560 *  0.174000 *  0.805020 *   1.73396    1.000000    
     25 O1    c    0.799560 *  0.826000 *  0.805020 *   1.73396    1.000000    
     26 O2    c    0.200440 *  0.826000 *  0.194980 *   0.87073    1.000000    
     27 O1    c    0.317860 *  0.500000 *  0.649090 *   1.73396    1.000000    
     28 O2    c    0.682140 *  0.500000 *  0.350910 *   0.87073    1.000000    
     29 O1    c    0.227920 *  0.173870 *  0.671620 *   1.73396    1.000000    
     30 O3    c    0.772080 *  0.173870 *  0.328380 *   1.33043    1.000000    
     31 O3    c    0.772080 *  0.826130 *  0.328380 *   1.33043    1.000000    
     32 O1    c    0.227920 *  0.826130 *  0.671620 *   1.73396    1.000000    
     33 O1    c    0.000000 *  0.000000 *  0.500000 *   1.73396    1.000000    
     34 O3    c    0.971960 *  0.000000 *  0.241930 *   1.33043    1.000000    
     35 O1    c    0.028040 *  0.000000 *  0.758070 *   1.73396    1.000000    
     36 O3    c    0.000000 *  0.000000 *  0.000000 *   1.33043    1.000000    
     37 O1    s    0.268740 *  0.279030 *  0.446100 *  -3.73396    1.000000    
     38 O3    s    0.731260 *  0.279030 *  0.553900 *  -3.33043    1.000000    
     39 O3    s    0.731260 *  0.720970 *  0.553900 *  -3.33043    1.000000    
     40 O3    s    0.268740 *  0.720970 *  0.446100 *  -3.33043    1.000000    
     41 O3    s    0.295480 *  0.500000 *  0.260860 *  -3.33043    1.000000    
     42 O1    s    0.704520 *  0.500000 *  0.739140 *  -3.73396    1.000000    
     43 O3    s    0.490600 *  0.234690 *  0.337530 *  -3.33043    1.000000    
     44 O1    s    0.509400 *  0.234690 *  0.662470 *  -3.73396    1.000000    
     45 O1    s    0.509400 *  0.765310 *  0.662470 *  -3.73396    1.000000    
     46 O2    s    0.490600 *  0.765310 *  0.337530 *  -2.87073    1.000000    
     47 O3    s    0.200440 *  0.174000 *  0.194980 *  -3.33043    1.000000    
     48 O1    s    0.799560 *  0.174000 *  0.805020 *  -3.73396    1.000000    
     49 O1    s    0.799560 *  0.826000 *  0.805020 *  -3.73396    1.000000    
     50 O2    s    0.200440 *  0.826000 *  0.194980 *  -2.87073    1.000000    
     51 O1    s    0.317860 *  0.500000 *  0.649090 *  -3.73396    1.000000    
     52 O2    s    0.682140 *  0.500000 *  0.350910 *  -2.87073    1.000000    
     53 O1    s    0.227920 *  0.173870 *  0.671620 *  -3.73396    1.000000    
     54 O3    s    0.772080 *  0.173870 *  0.328380 *  -3.33043    1.000000    
     55 O3    s    0.772080 *  0.826130 *  0.328380 *  -3.33043    1.000000    
     56 O1    s    0.227920 *  0.826130 *  0.671620 *  -3.73396    1.000000    
     57 O1    s    0.000000 *  0.000000 *  0.500000 *  -3.73396    1.000000    
     58 O3    s    0.971960 *  0.000000 *  0.241930 *  -3.33043    1.000000    
     59 O1    s    0.028040 *  0.000000 *  0.758070 *  -3.73396    1.000000    
     60 O3    s    0.000000 *  0.000000 *  0.000000 *  -3.33043    1.000000    
--------------------------------------------------------------------------------



********************************************************************************
*  General input information                                                   *
********************************************************************************

  Species output for all configurations : 

--------------------------------------------------------------------------------
  Species    Type    Atomic    Atomic    Charge       Radii (Angs)     Library
                     Number     Mass       (e)     Cova   Ionic  VDW   Symbol
--------------------------------------------------------------------------------
    Ge       Core       32      72.61   4.000000   1.170  0.000  1.750 Ge       
    Si       Core       14      28.09   4.000000   1.200  0.000  2.100 Si       
    O1       Core        8      16.00   1.733957   0.730  0.000  1.360 O1       
    O2       Core        8      16.00   0.870733   0.730  0.000  1.360 O2       
    O3       Core        8      16.00   1.330431   0.730  0.000  1.360 O3       
    O1       Shell       8       0.00  -3.733957   0.730  0.000  0.000 O1       
    O2       Shell       8       0.00  -2.870733   0.730  0.000  0.000 O2       
    O3       Shell       8       0.00  -3.330431   0.730  0.000  0.000 O3       
--------------------------------------------------------------------------------


  Lattice summation method               =    Ewald          (3-D)
                                         =    Parry          (2-D)
                                         =    Saunders et al (1-D)
  Accuracy factor for lattice sums       =   12.000


  Analytic derivatives to be used

  Time limit = Infinity

  Maximum range for interatomic potentials =    100000.000000 Angstroms

  General interatomic potentials :

--------------------------------------------------------------------------------
Atom  Types   Potential      Parameter       Value         Units   Cutoffs(Ang)
  1     2                                                            Min /  Max 
--------------------------------------------------------------------------------
Si   c O1   s Buckingham    Buckingham A     1315.2478    eV        0.000 16.000
                            Buckingham rho  0.31775900    Ang       
                            Buckingham C     10.141118    eV*Ang^6  
--------------------------------------------------------------------------------
Si   c O2   s Buckingham    Buckingham A     1315.2478    eV        0.000 16.000
                            Buckingham rho  0.31775900    Ang       
                            Buckingham C     10.141118    eV*Ang^6  
--------------------------------------------------------------------------------
Si   c O3   s Buckingham    Buckingham A     1315.2478    eV        0.000 16.000
                            Buckingham rho  0.31775900    Ang       
                            Buckingham C     10.141118    eV*Ang^6  
--------------------------------------------------------------------------------
Ge   c O1   s Buckingham    Buckingham A     1497.3996    eV        0.000 16.000
                            Buckingham rho  0.32564600    Ang       
                            Buckingham C     16.808599    eV*Ang^6  
--------------------------------------------------------------------------------
Ge   c O2   s Buckingham    Buckingham A     1497.3996    eV        0.000 16.000
                            Buckingham rho  0.32564600    Ang       
                            Buckingham C     16.808599    eV*Ang^6  
--------------------------------------------------------------------------------
Ge   c O3   s Buckingham    Buckingham A     1497.3996    eV        0.000 16.000
                            Buckingham rho  0.32564600    Ang       
                            Buckingham C     16.808599    eV*Ang^6  
--------------------------------------------------------------------------------
O1   s O1   s Buckingham    Buckingham A     22764.000    eV        0.000 16.000
                            Buckingham rho  0.14900000    Ang       
                            Buckingham C     10.937044    eV*Ang^6  
--------------------------------------------------------------------------------
O1   s O2   s Buckingham    Buckingham A     22764.000    eV        0.000 16.000
                            Buckingham rho  0.14900000    Ang       
                            Buckingham C     10.937044    eV*Ang^6  
--------------------------------------------------------------------------------
O1   s O3   s Buckingham    Buckingham A     22764.000    eV        0.000 16.000
                            Buckingham rho  0.14900000    Ang       
                            Buckingham C     10.937044    eV*Ang^6  
--------------------------------------------------------------------------------
O2   s O2   s Buckingham    Buckingham A     22764.000    eV        0.000 16.000
                            Buckingham rho  0.14900000    Ang       
                            Buckingham C     10.937044    eV*Ang^6  
--------------------------------------------------------------------------------
O2   s O3   s Buckingham    Buckingham A     22764.000    eV        0.000 16.000
                            Buckingham rho  0.14900000    Ang       
                            Buckingham C     10.937044    eV*Ang^6  
--------------------------------------------------------------------------------
O3   s O3   s Buckingham    Buckingham A     22764.000    eV        0.000 16.000
                            Buckingham rho  0.14900000    Ang       
                            Buckingham C     10.937044    eV*Ang^6  
--------------------------------------------------------------------------------
O1   c O1   s Spring (c-s)  Spring k 2       180.31577    eV*Ang^-2 0.000  0.800
                            Spring k 4       0.0000000    eV*Ang^-4 
--------------------------------------------------------------------------------
O2   c O2   s Spring (c-s)  Spring k 2       75.969800    eV*Ang^-2 0.000  0.800
                            Spring k 4       0.0000000    eV*Ang^-4 
--------------------------------------------------------------------------------
O3   c O3   s Spring (c-s)  Spring k 2       128.14270    eV*Ang^-2 0.000  0.800
                            Spring k 4       0.0000000    eV*Ang^-4 
--------------------------------------------------------------------------------

  General Three-body potentials :

--------------------------------------------------------------------------------
  Atoms       Potential      Parameter       Value         Units   Cutoffs(Ang)
  1 / 2 / 3                                                          Min /  Max 
--------------------------------------------------------------------------------
Si    core    Harmonic      Three-body cnst  1.2614000    eV*rad^-2 0.000  1.900
O1    shel                  Three-body angl  109.47000    degrees   0.000  1.900
O1    shel                  Three-body k4    0.0000000    eV*rad^-4 0.000  3.500
                            Three-body k3    0.0000000    eV*rad^-3 
--------------------------------------------------------------------------------
Si    core    Harmonic      Three-body cnst  1.2614000    eV*rad^-2 0.000  1.900
O1    shel                  Three-body angl  109.47000    degrees   0.000  1.900
õ(1   shel                  Three-body k4    0.0000000    eV*rad^-4 0.000  3.500
                            Three-body k3    0.0000000    eV*rad^-3 
--------------------------------------------------------------------------------
Si    core    Harmonic      Three-body cnst  1.2614000    eV*rad^-2 0.000  1.900
õ(1   shel                  Three-body angl  109.47000    degrees   0.000  1.900
õ(1   shel                  Three-body k4    0.0000000    eV*rad^-4 0.000  3.500
                            Three-body k3    0.0000000    eV*rad^-3 
--------------------------------------------------------------------------------
Si    core    Harmonic      Three-body cnst  1.2614000    eV*rad^-2 0.000  1.900
O1    shel                  Three-body angl  109.47000    degrees   0.000  1.900
O2    shel                  Three-body k4    0.0000000    eV*rad^-4 0.000  3.500
                            Three-body k3    0.0000000    eV*rad^-3 
--------------------------------------------------------------------------------
Si    core    Harmonic      Three-body cnst  1.2614000    eV*rad^-2 0.000  1.900
O1    shel                  Three-body angl  109.47000    degrees   0.000  1.900
õ(2   shel                  Three-body k4    0.0000000    eV*rad^-4 0.000  3.500
                            Three-body k3    0.0000000    eV*rad^-3 
--------------------------------------------------------------------------------
Si    core    Harmonic      Three-body cnst  1.2614000    eV*rad^-2 0.000  1.900
O2    shel                  Three-body angl  109.47000    degrees   0.000  1.900
õ(1   shel                  Three-body k4    0.0000000    eV*rad^-4 0.000  3.500
                            Three-body k3    0.0000000    eV*rad^-3 
--------------------------------------------------------------------------------
Si    core    Harmonic      Three-body cnst  1.2614000    eV*rad^-2 0.000  1.900
õ(1   shel                  Three-body angl  109.47000    degrees   0.000  1.900
õ(2   shel                  Three-body k4    0.0000000    eV*rad^-4 0.000  3.500
                            Three-body k3    0.0000000    eV*rad^-3 
--------------------------------------------------------------------------------
Si    core    Harmonic      Three-body cnst  1.2614000    eV*rad^-2 0.000  1.900
O2    shel                  Three-body angl  109.47000    degrees   0.000  1.900
O2    shel                  Three-body k4    0.0000000    eV*rad^-4 0.000  3.500
                            Three-body k3    0.0000000    eV*rad^-3 
--------------------------------------------------------------------------------
Si    core    Harmonic      Three-body cnst  1.2614000    eV*rad^-2 0.000  1.900
O2    shel                  Three-body angl  109.47000    degrees   0.000  1.900
õ(2   shel                  Three-body k4    0.0000000    eV*rad^-4 0.000  3.500
                            Three-body k3    0.0000000    eV*rad^-3 
--------------------------------------------------------------------------------
Si    core    Harmonic      Three-body cnst  1.2614000    eV*rad^-2 0.000  1.900
õ(2   shel                  Three-body angl  109.47000    degrees   0.000  1.900
õ(2   shel                  Three-body k4    0.0000000    eV*rad^-4 0.000  3.500
                            Three-body k3    0.0000000    eV*rad^-3 
--------------------------------------------------------------------------------

********************************************************************************
*  Output for configuration   1 : c00056.vasp                                  *
********************************************************************************


  Components of energy : 

--------------------------------------------------------------------------------
  Interatomic potentials     =         432.38079064 eV    
  Three-body potentials      =           0.00000067 eV    
  Monopole - monopole (real) =       -1236.99964305 eV    
  Monopole - monopole (recip)=        -659.26603192 eV    
  Monopole - monopole (total)=       -1896.26567496 eV    
--------------------------------------------------------------------------------
  Total lattice energy       =       -1463.88488366 eV    
--------------------------------------------------------------------------------
  Total lattice energy       =         -141242.5137 kJ/(mole unit cells)
--------------------------------------------------------------------------------


  Number of variables =      183

  Maximum number of calculations  =          1000
  Maximum Hessian update interval =            10
  Maximum step size               =   0.100000000
  Maximum parameter tolerance     =   0.000010000
  Maximum function  tolerance     =   0.000010000
  Maximum gradient  tolerance     =   0.001000000
  Maximum gradient  component     =   0.010000000

  Symmetry not applied to optimisation

  Cell parameters to be optimised using strains

  Newton-Raphson optimiser to be used

  BFGS hessian update to be used

  Lower half triangular hessian to be used

  Minimiser to switch to RFO
  When gradient norm is less than     0.050000

  Dumpfile to be written after every cycle

  Start of bulk optimisation :

  Cycle:      0 Energy:     -1463.884884  Gnorm:      6.306122  CPU:    0.038
  ** Hessian calculated **
  Cycle:      1 Energy:     -1482.778747  Gnorm:      1.658715  CPU:    0.077
  ** Hessian calculated **
  Cycle:      2 Energy:     -1485.160529  Gnorm:      1.128711  CPU:    0.147
  ** Hessian calculated **
  Cycle:      3 Energy:     -1486.138429  Gnorm:      0.594345  CPU:    0.211
  Cycle:      4 Energy:     -1486.467856  Gnorm:      0.336603  CPU:    0.250
  Cycle:      5 Energy:     -1486.696741  Gnorm:      0.276254  CPU:    0.298
  Cycle:      6 Energy:     -1486.956829  Gnorm:      0.231480  CPU:    0.345
  Cycle:      7 Energy:     -1487.130154  Gnorm:      0.192745  CPU:    0.385
  Cycle:      8 Energy:     -1487.228042  Gnorm:      0.157979  CPU:    0.425
  Cycle:      9 Energy:     -1487.279664  Gnorm:      0.119425  CPU:    0.464
  Cycle:     10 Energy:     -1487.307943  Gnorm:      0.103403  CPU:    0.504
  Cycle:     11 Energy:     -1487.336977  Gnorm:      0.097279  CPU:    0.552
  Cycle:     12 Energy:     -1487.364654  Gnorm:      0.101084  CPU:    0.598
  ** Hessian calculated **
  Cycle:     13 Energy:     -1487.391783  Gnorm:      0.099337  CPU:    0.670
  Cycle:     14 Energy:     -1487.439760  Gnorm:      0.095940  CPU:    0.725
  Cycle:     15 Energy:     -1487.506067  Gnorm:      0.090220  CPU:    0.772
  Cycle:     16 Energy:     -1487.602540  Gnorm:      0.080574  CPU:    0.826
  Cycle:     17 Energy:     -1487.645780  Gnorm:      0.077399  CPU:    0.873
  ** Hessian calculated **
  Cycle:     18 Energy:     -1487.725000  Gnorm:      0.067937  CPU:    0.945
  Cycle:     19 Energy:     -1487.839085  Gnorm:      0.050534  CPU:    0.992
  Cycle:     20 Energy:     -1487.911305  Gnorm:      0.037038  CPU:    1.032
  ** Hessian has wrong structure
  ** Imaginary eigenvectors =   3
  Cycle:     21 Energy:     -1487.928628  Gnorm:      0.106099  CPU:    1.131
  ** Hessian has wrong structure
  ** Imaginary eigenvectors =   2
  ** Hessian has wrong structure
  ** Imaginary eigenvectors =   1
  Cycle:     22 Energy:     -1487.985151  Gnorm:      0.124194  CPU:    1.287
  ** Hessian has required structure
  ** Hessian has required structure
  Cycle:     23 Energy:     -1488.122542  Gnorm:      0.073168  CPU:    1.372
  ** Hessian has required structure
  Cycle:     24 Energy:     -1488.184218  Gnorm:      0.055557  CPU:    1.426
  ** Hessian has required structure
  Cycle:     25 Energy:     -1488.217202  Gnorm:      0.025646  CPU:    1.473
  ** Hessian has required structure
  Cycle:     26 Energy:     -1488.234731  Gnorm:      0.037985  CPU:    1.528
  ** Hessian has required structure
  Cycle:     27 Energy:     -1488.253915  Gnorm:      0.043644  CPU:    1.582
  ** Hessian has required structure
  Cycle:     28 Energy:     -1488.264443  Gnorm:      0.032663  CPU:    1.637
  ** Hessian has required structure
  Cycle:     29 Energy:     -1488.269811  Gnorm:      0.025228  CPU:    1.685
  ** Hessian has required structure
  Cycle:     30 Energy:     -1488.273755  Gnorm:      0.021310  CPU:    1.752
  ** Hessian has required structure
  Cycle:     31 Energy:     -1488.275586  Gnorm:      0.011966  CPU:    1.824
  ** Hessian has required structure
  Cycle:     32 Energy:     -1488.276587  Gnorm:      0.011387  CPU:    1.885
  ** Hessian has required structure
  Cycle:     33 Energy:     -1488.279947  Gnorm:      0.007312  CPU:    1.974
  ** Hessian has required structure
  Cycle:     34 Energy:     -1488.281636  Gnorm:      0.007816  CPU:    2.036
  ** Hessian has required structure
  Cycle:     35 Energy:     -1488.283269  Gnorm:      0.010872  CPU:    2.094
  ** Hessian has required structure
  Cycle:     36 Energy:     -1488.285484  Gnorm:      0.019086  CPU:    2.151
  ** Hessian has required structure
  Cycle:     37 Energy:     -1488.288237  Gnorm:      0.027864  CPU:    2.199
  ** Hessian has required structure
  Cycle:     38 Energy:     -1488.292463  Gnorm:      0.031080  CPU:    2.255
  ** Hessian has required structure
  Cycle:     39 Energy:     -1488.298694  Gnorm:      0.037884  CPU:    2.310
  ** Hessian has required structure
  Cycle:     40 Energy:     -1488.310455  Gnorm:      0.046193  CPU:    2.365
  ** Hessian has required structure
  Cycle:     41 Energy:     -1488.318657  Gnorm:      0.054519  CPU:    2.413
  ** Hessian has required structure
  Cycle:     42 Energy:     -1488.329585  Gnorm:      0.046241  CPU:    2.461
  ** Hessian has wrong structure
  ** Imaginary eigenvectors =   1
  Cycle:     43 Energy:     -1488.353630  Gnorm:      0.050119  CPU:    2.603
  ** Hessian has required structure
  Cycle:     44 Energy:     -1488.377041  Gnorm:      0.040309  CPU:    2.683
  ** Hessian has required structure
  Cycle:     45 Energy:     -1488.400525  Gnorm:      0.035708  CPU:    2.738
  ** Hessian has required structure
  Cycle:     46 Energy:     -1488.412622  Gnorm:      0.020234  CPU:    2.787
  ** Hessian has required structure
  Cycle:     47 Energy:     -1488.419414  Gnorm:      0.022488  CPU:    2.852
  ** Hessian has required structure
  Cycle:     48 Energy:     -1488.424386  Gnorm:      0.011923  CPU:    2.934
  ** Hessian has required structure
  Cycle:     49 Energy:     -1488.426271  Gnorm:      0.008639  CPU:    3.016
  ** Hessian has required structure
  Cycle:     50 Energy:     -1488.427142  Gnorm:      0.005957  CPU:    3.086
  ** Hessian has required structure
  Cycle:     51 Energy:     -1488.427627  Gnorm:      0.003408  CPU:    3.156
  ** Hessian has required structure
  Cycle:     52 Energy:     -1488.427838  Gnorm:      0.002721  CPU:    3.239
  ** Hessian has required structure
  Cycle:     53 Energy:     -1488.427892  Gnorm:      0.001320  CPU:    3.309
  ** Hessian has required structure
  Cycle:     54 Energy:     -1488.427916  Gnorm:      0.000798  CPU:    3.408
  ** Hessian has required structure
  Cycle:     55 Energy:     -1488.427923  Gnorm:      0.000562  CPU:    3.466
  ** Hessian has required structure
  Cycle:     56 Energy:     -1488.427926  Gnorm:      0.000395  CPU:    3.524
  ** Hessian has required structure
  Cycle:     57 Energy:     -1488.427928  Gnorm:      0.000277  CPU:    3.583
  ** Hessian has required structure
  Cycle:     58 Energy:     -1488.427929  Gnorm:      0.000195  CPU:    3.640
  ** Hessian has required structure
  Cycle:     59 Energy:     -1488.427930  Gnorm:      0.000135  CPU:    3.722
  ** Hessian has required structure
  Cycle:     60 Energy:     -1488.427930  Gnorm:      0.000135  CPU:    3.792
  ** Hessian has required structure
  Cycle:     61 Energy:     -1488.427930  Gnorm:      0.000134  CPU:    3.850
  ** Hessian has required structure
  Cycle:     62 Energy:     -1488.427930  Gnorm:      0.000134  CPU:    3.908
  ** Hessian has required structure
  Cycle:     63 Energy:     -1488.427930  Gnorm:      0.000133  CPU:    3.966
  ** Hessian has required structure
  Cycle:     64 Energy:     -1488.427931  Gnorm:      0.000146  CPU:    4.065
  ** Hessian has required structure
  Cycle:     65 Energy:     -1488.427931  Gnorm:      0.000143  CPU:    4.123
  ** Hessian has required structure
  Cycle:     66 Energy:     -1488.427931  Gnorm:      0.000142  CPU:    4.180
  ** Hessian has required structure
  Cycle:     67 Energy:     -1488.427931  Gnorm:      0.000142  CPU:    4.275
  ** Hessian has required structure
  Cycle:     68 Energy:     -1488.427931  Gnorm:      0.000142  CPU:    4.357
  ** Hessian has required structure
  Cycle:     69 Energy:     -1488.427931  Gnorm:      0.000142  CPU:    4.504
  ** Hessian calculated **


  **** Optimisation achieved ****


  Final energy =   -1488.42793093 eV      
  Final Gnorm  =       0.00014228

  Components of energy : 

--------------------------------------------------------------------------------
  Interatomic potentials     =         395.21300312 eV    
  Three-body potentials      =           0.00649576 eV    
  Monopole - monopole (real) =        -666.01854290 eV    
  Monopole - monopole (recip)=       -1217.62888691 eV    
  Monopole - monopole (total)=       -1883.64742981 eV    
--------------------------------------------------------------------------------
  Total lattice energy       =       -1488.42793093 eV    
--------------------------------------------------------------------------------
  Total lattice energy       =         -143610.5426 kJ/(mole unit cells)
--------------------------------------------------------------------------------

  Final fractional coordinates of atoms :

--------------------------------------------------------------------------------
   No.  Atomic        x           y          z          Radius
        Label       (Frac)      (Frac)     (Frac)       (Angs) 
--------------------------------------------------------------------------------
     1  Ge    c     0.313820    0.296860    0.309830    0.000000
     2  Ge    c     0.727304    0.272382    0.701127    0.000000
     3  Ge    c     0.675200    0.702811    0.704874    0.000000
     4  Ge    c     0.368846    0.212608    0.635539    0.000000
     5  Ge    c     0.336582    0.617185    0.629890    0.000000
     6  Ge    c     0.868774    0.039271    0.341578    0.000000
     7  Ge    c     0.124914    0.927699    0.647734    0.000000
     8  Ge    c     0.945143    0.950514    0.865593    0.000000
     9  Si    c     0.318697    0.681078    0.320286    0.000000
    10  Si    c     0.677684    0.329321    0.387986    0.000000
    11  Si    c     0.654041    0.738629    0.390937    0.000000
    12  Si    c     0.099825    0.996211    0.183899    0.000000
    13  O1    c     0.282180    0.224720    0.457411    0.000000
    14  O3    c     0.756021    0.257511    0.546794    0.000000
    15  O3    c     0.698292    0.778082    0.549772    0.000000
    16  O3    c     0.367161    0.586056    0.475709    0.000000
    17  O3    c     0.261769    0.513600    0.236358    0.000000
    18  O1    c     0.714986    0.481308    0.738411    0.000000
    19  O3    c     0.503137    0.275759    0.333360    0.000000
    20  O1    c     0.559540    0.168587    0.685115    0.000000
    21  O1    c     0.496181    0.731965    0.709008    0.000000
    22  O2    c     0.472497    0.769018    0.308659    0.000000
    23  O3    c     0.200422    0.166173    0.188318    0.000000
    24  O1    c     0.880279    0.163571    0.822267    0.000000
    25  O1    c     0.792219    0.816394    0.831668    0.000000
    26  O2    c     0.196678    0.837365    0.295613    0.000000
    27  O1    c     0.338235    0.405877    0.696874    0.000000
    28  O2    c     0.696030    0.538751    0.378815    0.000000
    29  O1    c     0.284793    0.049399    0.703911    0.000000
    30  O3    c     0.764037    0.234629    0.304666    0.000000
    31  O3    c     0.747435    0.864005    0.321955    0.000000
    32  O1    c     0.174174    0.725384    0.611537    0.000000
    33  O1    c     0.000218    0.036360    0.502357    0.000000
    34  O3    c     0.950603    0.037426    0.217097    0.000000
    35  O1    c     0.052942    0.884563    0.775539    0.000000
    36  O3    c     0.057083    0.922727    0.037146    0.000000
    37  O1    s     0.290585    0.229343    0.458632    0.000000
    38  O3    s     0.746289    0.265420    0.543464    0.000000
    39  O3    s     0.692516    0.768939    0.546380    0.000000
    40  O3    s     0.361076    0.595850    0.472609    0.000000
    41  O3    s     0.270885    0.514790    0.249617    0.000000
    42  O1    s     0.712949    0.481093    0.732823    0.000000
    43  O3    s     0.504744    0.282853    0.336834    0.000000
    44  O1    s     0.557517    0.179462    0.682562    0.000000
    45  O1    s     0.497420    0.721351    0.702811    0.000000
    46  O2    s     0.475117    0.757233    0.317877    0.000000
    47  O3    s     0.199417    0.159669    0.197461    0.000000
    48  O1    s     0.873540    0.155867    0.816324    0.000000
    49  O1    s     0.794645    0.817602    0.824126    0.000000
    50  O2    s     0.200401    0.835953    0.287790    0.000000
    51  O1    s     0.340308    0.408348    0.687437    0.000000
    52  O2    s     0.689590    0.537573    0.381019    0.000000
    53  O1    s     0.279081    0.052694    0.694360    0.000000
    54  O3    s     0.763563    0.229077    0.315643    0.000000
    55  O3    s     0.747366    0.864905    0.330721    0.000000
    56  O1    s     0.183729    0.731100    0.615530    0.000000
    57  O1    s     0.999385    0.028026    0.500733    0.000000
    58  O3    s     0.958735    0.033501    0.223896    0.000000
    59  O1    s     0.050294    0.893181    0.772266    0.000000
    60  O3    s     0.052283    0.932523    0.038095    0.000000
--------------------------------------------------------------------------------

  Final Cartesian lattice vectors (Angstroms) :

        9.406907   -0.036384   -0.117886
       -0.045982    7.660105    0.344317
       -3.513815    0.460309    9.778256


  Final cell parameters and derivatives :

--------------------------------------------------------------------------------
       a            9.407716 Angstrom     dE/de1(xx)     0.002769 eV/strain
       b            7.667978 Angstrom     dE/de2(yy)    -0.000667 eV/strain
       c           10.400628 Angstrom     dE/de3(zz)     0.003497 eV/strain
       alpha       84.925296 Degrees      dE/de4(yz)     0.000172 eV/strain
       beta       110.473213 Degrees      dE/de5(xz)    -0.000123 eV/strain
       gamma       90.597165 Degrees      dE/de6(xy)     0.000294 eV/strain
--------------------------------------------------------------------------------

  Primitive cell volume =           699.966798 Angs**3

  Density of cell =      2.555589 g/cm**3

  Non-primitive cell volume =           699.966798 Angs**3


  Final internal derivatives :

--------------------------------------------------------------------------------
   No.  Atomic          a             b             c           Radius
        Label          (eV)          (eV)          (eV)        (eV/Angs)
--------------------------------------------------------------------------------
      1 Ge    c       0.000000      0.000000      0.000000      0.000000
      2 Ge    c       0.000456      0.000217      0.001208      0.000000
      3 Ge    c       0.001022     -0.000594     -0.000388      0.000000
      4 Ge    c      -0.000181      0.000142      0.000385      0.000000
      5 Ge    c      -0.003460      0.001399      0.001786      0.000000
      6 Ge    c      -0.000524     -0.000005     -0.000692      0.000000
      7 Ge    c       0.003342     -0.004486     -0.003091      0.000000
      8 Ge    c      -0.008212      0.002808      0.001470      0.000000
      9 Si    c      -0.001226     -0.000670      0.000786      0.000000
     10 Si    c       0.000579      0.000799      0.000295      0.000000
     11 Si    c      -0.000012     -0.000289     -0.000874      0.000000
     12 Si    c       0.000698     -0.001149     -0.000642      0.000000
     13 O1    c       0.000479      0.000034      0.000281      0.000000
     14 O3    c       0.000989      0.000039     -0.001617      0.000000
     15 O3    c      -0.001541     -0.000584      0.000845      0.000000
     16 O3    c      -0.000462      0.000481      0.000561      0.000000
     17 O3    c       0.000169      0.000075     -0.000678      0.000000
     18 O1    c       0.000665      0.000047     -0.000356      0.000000
     19 O3    c       0.000381     -0.000822     -0.000152      0.000000
     20 O1    c      -0.000615     -0.000435      0.000287      0.000000
     21 O1    c      -0.003961     -0.002283      0.000429      0.000000
     22 O2    c       0.002058      0.001018     -0.000204      0.000000
     23 O3    c      -0.000089      0.000377     -0.000233      0.000000
     24 O1    c      -0.000126     -0.000345     -0.000927      0.000000
     25 O1    c       0.001181      0.000671      0.001849      0.000000
     26 O2    c      -0.000591      0.000669     -0.000278      0.000000
     27 O1    c      -0.000277      0.001029     -0.000274      0.000000
     28 O2    c       0.000228     -0.000394      0.000087      0.000000
     29 O1    c       0.002659      0.002694      0.001387      0.000000
     30 O3    c       0.000279     -0.000320     -0.000881      0.000000
     31 O3    c      -0.000018     -0.000355      0.000331      0.000000
     32 O1    c       0.004778      0.004162     -0.002366      0.000000
     33 O1    c      -0.002754      0.004040      0.000852      0.000000
     34 O3    c      -0.002206      0.000206     -0.000784      0.000000
     35 O1    c       0.003880     -0.005824     -0.006896      0.000000
     36 O3    c       0.006358     -0.001007      0.012072      0.000000
     37 O1    s      -0.001159     -0.000056      0.000071      0.000000
     38 O3    s      -0.000272     -0.000463      0.000465      0.000000
     39 O3    s       0.003194      0.001323     -0.000615      0.000000
     40 O3    s      -0.000782     -0.000270      0.001988      0.000000
     41 O3    s      -0.000310     -0.000580      0.000599      0.000000
     42 O1    s      -0.000606      0.000142      0.000373      0.000000
     43 O3    s      -0.000346      0.000136      0.000054      0.000000
     44 O1    s      -0.000336      0.000219     -0.000427      0.000000
     45 O1    s       0.000559      0.000862     -0.000258      0.000000
     46 O2    s       0.000599     -0.000123     -0.000682      0.000000
     47 O3    s       0.000355     -0.000408     -0.000098      0.000000
     48 O1    s      -0.000922      0.001445      0.000776      0.000000
     49 O1    s      -0.003997     -0.001116     -0.000156      0.000000
     50 O2    s      -0.000328      0.000274     -0.000182      0.000000
     51 O1    s       0.000741      0.000140     -0.001100      0.000000
     52 O2    s       0.000007      0.000660     -0.000090      0.000000
     53 O1    s       0.000554     -0.002008     -0.000908      0.000000
     54 O3    s      -0.000038      0.000034      0.000656      0.000000
     55 O3    s      -0.000453     -0.000119      0.000626      0.000000
     56 O1    s      -0.000118     -0.001691     -0.000569      0.000000
     57 O1    s       0.001324     -0.002756     -0.000622      0.000000
     58 O3    s       0.001116     -0.000061      0.000123      0.000000
     59 O1    s      -0.000781      0.001688      0.000661      0.000000
     60 O3    s      -0.001346      0.000883     -0.003904      0.000000
--------------------------------------------------------------------------------
  Maximum abs         0.008212      0.005824      0.012072      0.000000
--------------------------------------------------------------------------------


  Born effective charge tensors : 

-------------------------------------------------------------------------------
  Atom             x           y             z
-------------------------------------------------------------------------------
    1 Ge    x       3.7868      0.3427      0.2333
            y       0.3523      4.2545      0.1908
            z       0.1127      0.1954      3.4819
-------------------------------------------------------------------------------
    2 Ge    x       3.8485     -0.0706      0.2982
            y      -0.3761      4.2077     -0.2182
            z       0.2948     -0.1039      3.6827
-------------------------------------------------------------------------------
    3 Ge    x       3.9062      0.2033      0.2772
            y       0.1827      4.1846      0.3701
            z       0.2416      0.2303      3.7400
-------------------------------------------------------------------------------
    4 Ge    x       4.0866      0.3019     -0.1426
            y       0.2231      4.2202      0.0324
            z       0.1106     -0.0795      3.4457
-------------------------------------------------------------------------------
    5 Ge    x       4.1566     -0.1050      0.1171
            y      -0.3592      4.1764     -0.1921
            z      -0.2141      0.1961      3.1993
-------------------------------------------------------------------------------
    6 Ge    x       4.5167     -0.0595     -0.0528
            y      -0.0284      3.9013      0.0549
            z      -0.3100      0.1177      3.6115
-------------------------------------------------------------------------------
    7 Ge    x       4.5087     -0.2063     -0.1581
            y       0.1183      3.8848      0.2025
            z      -0.3399     -0.2443      3.7740
-------------------------------------------------------------------------------
    8 Ge    x       4.0115     -0.3005      0.0198
            y       0.1700      3.8657      0.1343
            z       0.3516      0.0381      4.6799
-------------------------------------------------------------------------------
    9 Si    x       3.1310     -0.0509      0.0463
            y      -0.2308      3.7073      0.1449
            z       0.3838     -0.2539      3.0006
-------------------------------------------------------------------------------
   10 Si    x       3.8127     -0.2505     -0.1394
            y      -0.3987      3.6706      0.2626
            z       0.0813      0.0667      3.1273
-------------------------------------------------------------------------------
   11 Si    x       3.5795      0.4253     -0.1913
            y       0.4298      3.5793     -0.0747
            z      -0.1171      0.0625      3.0879
-------------------------------------------------------------------------------
   12 Si    x       3.8362     -0.0274      0.1918
            y       0.1545      3.5992     -0.0325
            z      -0.1418      0.6614      4.0255
-------------------------------------------------------------------------------
   13 O1    x      -1.5287     -0.2078      0.3018
            y      -0.2020     -1.5357      0.1078
            z       0.2326      0.1806     -2.5951
-------------------------------------------------------------------------------
   14 O3    x      -1.3924      0.1079      0.2038
            y       0.1303     -1.4628      0.2437
            z       0.1886      0.1876     -2.4651
-------------------------------------------------------------------------------
   15 O3    x      -1.4131     -0.1188      0.2819
            y      -0.1083     -1.4322     -0.1389
            z       0.3064     -0.0728     -2.5348
-------------------------------------------------------------------------------
   16 O3    x      -1.4365      0.0173      0.3016
            y       0.0872     -1.5580      0.1987
            z       0.2877      0.2446     -2.3457
-------------------------------------------------------------------------------
   17 O3    x      -1.2289     -0.0229     -0.1177
            y      -0.0197     -2.8733     -0.2452
            z      -0.1617     -0.2513     -1.4221
-------------------------------------------------------------------------------
   18 O1    x      -1.3370      0.2269     -0.0504
            y       0.3302     -3.3344     -0.1081
            z      -0.0568     -0.0787     -1.3615
-------------------------------------------------------------------------------
   19 O3    x      -2.9374     -0.1883     -0.4306
            y      -0.1362     -1.4503     -0.1150
            z      -0.4513     -0.1059     -1.2285
-------------------------------------------------------------------------------
   20 O1    x      -2.9709     -0.2212     -0.3529
            y      -0.1854     -1.5955      0.0080
            z      -0.3801      0.0082     -1.3048
-------------------------------------------------------------------------------
   21 O1    x      -2.8008     -0.2616     -0.3223
            y      -0.1713     -1.5754     -0.1832
            z      -0.3581     -0.2379     -1.4333
-------------------------------------------------------------------------------
   22 O2    x      -2.2211     -0.1393     -0.2735
            y      -0.0785     -1.2816      0.0313
            z      -0.3009      0.0497     -1.1429
-------------------------------------------------------------------------------
   23 O3    x      -1.7517     -0.7811     -0.4145
            y      -0.8091     -2.4475     -0.5005
            z      -0.3883     -0.6305     -1.6589
-------------------------------------------------------------------------------
   24 O1    x      -1.7541      0.6808     -0.5211
            y       0.6648     -2.4383      0.6571
            z      -0.5874      0.6861     -1.9829
-------------------------------------------------------------------------------
   25 O1    x      -2.0360     -0.7124     -0.6024
            y      -0.8273     -2.1260     -0.7076
            z      -0.6753     -0.6755     -2.0831
-------------------------------------------------------------------------------
   26 O2    x      -1.5669      0.5805     -0.2751
            y       0.5763     -1.9273      0.3721
            z      -0.3034      0.4014     -1.4179
-------------------------------------------------------------------------------
   27 O1    x      -1.4097      0.0754      0.1361
            y       0.1448     -3.0758      0.0063
            z       0.1503     -0.0194     -1.3882
-------------------------------------------------------------------------------
   28 O2    x      -1.2557      0.0863      0.0381
            y       0.1263     -2.5087     -0.0977
            z       0.0223     -0.0555     -1.0247
-------------------------------------------------------------------------------
   29 O1    x      -2.4456     -0.9683      0.0424
            y      -0.9727     -2.2614      0.0386
            z       0.0798      0.1175     -1.3665
-------------------------------------------------------------------------------
   30 O3    x      -2.2051      0.9595      0.4109
            y       0.9136     -2.2693     -0.2943
            z       0.3627     -0.2603     -1.3720
-------------------------------------------------------------------------------
   31 O3    x      -2.3549     -1.0580      0.2850
            y      -1.0473     -2.2991      0.2289
            z       0.2940      0.1959     -1.2501
-------------------------------------------------------------------------------
   32 O1    x      -2.3947      0.9778      0.0906
            y       0.9197     -2.4267     -0.1762
            z       0.2156     -0.2152     -1.2452
-------------------------------------------------------------------------------
   33 O1    x      -1.9169      0.2254     -0.8072
            y       0.1146     -1.4459      0.2379
            z      -0.5201      0.3114     -2.5136
-------------------------------------------------------------------------------
   34 O3    x      -2.9462      0.2960      0.7729
            y       0.2169     -1.2743     -0.0584
            z       0.8327     -0.1651     -1.7851
-------------------------------------------------------------------------------
   35 O1    x      -2.6069      0.1859      1.0739
            y       0.0924     -1.3355     -0.1260
            z       1.0089     -0.0690     -2.3242
-------------------------------------------------------------------------------
   36 O3    x      -1.2699      0.0578     -0.2710
            y       0.0031     -1.3164     -0.2544
            z      -0.2514     -0.4323     -3.6101
-------------------------------------------------------------------------------




  Elastic Constant Matrix: (Units=GPa)

-------------------------------------------------------------------------------
  Indices      1         2         3         4         5         6    
-------------------------------------------------------------------------------
       1     50.3546   26.4223   17.0134    4.0432   -0.2462   -8.1145
       2     26.4223   50.1100   11.4243    5.6802    5.4341   -2.8375
       3     17.0134   11.4243   30.7669    9.1175    3.2500    3.9763
       4      4.0432    5.6802    9.1175   11.0300    1.8840    3.8360
       5     -0.2462    5.4341    3.2500    1.8840    9.5244    4.8300
       6     -8.1145   -2.8375    3.9763    3.8360    4.8300   20.1674
-------------------------------------------------------------------------------


  Elastic Compliance Matrix: (Units=1/GPa)

-------------------------------------------------------------------------------
  Indices      1         2         3         4         5         6    
-------------------------------------------------------------------------------
       1    0.035774 -0.015406 -0.017658  0.003442  0.008452  0.013029
       2   -0.015406  0.031188  0.001259 -0.009729 -0.018885  0.004314
       3   -0.017658  0.001259  0.053988 -0.034237 -0.008213 -0.009093
       4    0.003442 -0.009729 -0.034237  0.128794  0.000954 -0.017960
       5    0.008452 -0.018885 -0.008213  0.000954  0.133737 -0.029848
       6    0.013029  0.004314 -0.009093 -0.017960 -0.029848  0.067792
-------------------------------------------------------------------------------

  Mechanical properties :

-------------------------------------------------------------------------------
  Convention :                    Reuss         Voigt         Hill
-------------------------------------------------------------------------------
  Bulk  Modulus (GPa)     =      17.44009      26.77239      22.10624
  Shear Modulus (GPa)     =       9.36337      13.23580      11.29959
-------------------------------------------------------------------------------
  Velocity S-wave (km/s)  =       1.91413       2.27578       2.10274
  Velocity P-wave (km/s)  =       3.42191       4.16912       3.81386
-------------------------------------------------------------------------------
  Compressibility (1/GPa) =    0.05733914
-------------------------------------------------------------------------------
  Stress axis :                     x             y             z
-------------------------------------------------------------------------------
  Youngs Moduli (GPa)     =      27.95331      32.06397      18.52261
-------------------------------------------------------------------------------
  Poissons Ratio (x)      =                     0.49399       0.32708
  Poissons Ratio (y)      =       0.43066                    -0.02332
  Poissons Ratio (z)      =       0.49361      -0.04038
-------------------------------------------------------------------------------


  Piezoelectric Strain Matrix: (Units=C/m**2)

-------------------------------------------------------------------------------
  Indices      1         2         3         4         5         6    
-------------------------------------------------------------------------------
       x    -0.19001  -1.06359   1.51627   0.14189  -0.61856   0.60044
       y     0.03058  -0.31007  -0.28494  -0.12508  -0.04033  -0.36760
       z    -1.21674  -1.65484  -0.78598  -0.63118   1.00288   0.17396
-------------------------------------------------------------------------------


  Piezoelectric Stress Matrix: (Units=10**-11 C/N)

-------------------------------------------------------------------------------
  Indices      1         2         3         4         5         6    
-------------------------------------------------------------------------------
       x    -1.41024  -1.54426   7.86389  -3.53178  -9.44845   3.57677
       y     0.53419  -1.01076  -0.83579   0.33320   1.39134  -1.98183
       z     0.44166  -4.59032  -1.12412  -4.46371  15.57517  -2.26512
-------------------------------------------------------------------------------


  Static dielectric constant tensor : 

-------------------------------------------------------------------------------
              x         y         z
-------------------------------------------------------------------------------
       x     5.90979   0.24678   0.06301
       y     0.24678   5.09724   0.27151
       z     0.06301   0.27151   4.26743
--------------------------------------------------------------------------------

  High frequency dielectric constant tensor : 

-------------------------------------------------------------------------------
              x         y         z
-------------------------------------------------------------------------------
       x     1.57625  -0.00118   0.00589
       y    -0.00118   1.58165   0.00732
       z     0.00589   0.00732   1.53062
-------------------------------------------------------------------------------

  Static refractive indices : 

-------------------------------------------------------------------------------
    1 =    2.04608      2 =    2.25796      3 =    2.44738
-------------------------------------------------------------------------------

  High frequency refractive indices : 

-------------------------------------------------------------------------------
    1 =    1.23646      2 =    1.25578      3 =    1.25805
-------------------------------------------------------------------------------


  Time to end of optimisation =       4.6995 seconds


  Peak dynamic memory used =       2.76 MB 


  Timing analysis for GULP :

--------------------------------------------------------------------------------
  Task / Subroutine                                          Time (Seconds)
--------------------------------------------------------------------------------
  Calculation of reciprocal space energy and derivatives          0.2695
  Calculation of real space energy and derivatives                3.9258
  Calculation of three-body energy and derivatives                0.0740
  Calculation and manipulation of Hessian matrix                  0.5550
  Calculation of matrix inversion                                 0.0051
  Global summation overhead                                       0.0001
--------------------------------------------------------------------------------
  Total CPU time                                                  4.6996
--------------------------------------------------------------------------------


  Dump file written as c00056.vasp.grs
  CIF file written as c00056.vasp.cif


  Job Finished at 11:40.01 22nd October    2025                               

