********************************************************************************
*                       GENERAL UTILITY LATTICE PROGRAM                        *
*                                 Julian Gale                                  *
*                       Curtin Institute for Computation                       *
*                    School of Molecular and Life Sciences                     *
*                    Curtin University, Western Australia                      *
********************************************************************************
* Version = 6.1.2 * Last modified =   3rd November 2022                        *
********************************************************************************
*  optimise     - perform optimisation run                                     *
*  conp         - constant pressure calculation                                *
*  property     - calculate properties for final geometry                      *
********************************************************************************

  Job Started  at 11:42.42 22nd October    2025                               

  Number of CPUs =     1


  Total number of configurations input =      1

********************************************************************************
*  Input for Configuration =   1 : c00096.vasp                                 *
********************************************************************************

  Formula = Ge8Si4O24                                                   

  Number of irreducible atoms/shells =      60


  Total number atoms/shells =      60

  Dimensionality = 3               :  Bulk   



  Cartesian lattice vectors (Angstroms) :

        9.086940    0.000000    0.000000
        0.000000    7.554810    0.000000
       -3.295144    0.000000    9.944380

  Cell parameters (Angstroms/Degrees):

  a =       9.0869    alpha =  90.0000
  b =       7.5548    beta  = 108.3330
  c =      10.4761    gamma =  90.0000

  Initial cell volume =         682.682735 Angs**3

  Temperature of configuration =   0.00     K 

  Pressure of configuration =         0.000 GPa 

  Fractional coordinates of asymmetric unit :

--------------------------------------------------------------------------------
   No.  Atomic       x           y          z         Charge      Occupancy
        Label      (Frac)      (Frac)     (Frac)        (e)         (Frac)  
--------------------------------------------------------------------------------
      1 Ge    c    0.313820    0.296860    0.309830     4.00000    1.000000    
      2 Ge    c    0.686180 *  0.296860 *  0.690170 *   4.00000    1.000000    
      3 Ge    c    0.668950 *  0.703080 *  0.392620 *   4.00000    1.000000    
      4 Ge    c    0.331050 *  0.703080 *  0.607380 *   4.00000    1.000000    
      5 Ge    c    0.879680 *  0.000000 *  0.350160 *   4.00000    1.000000    
      6 Ge    c    0.120320 *  0.000000 *  0.649840 *   4.00000    1.000000    
      7 Ge    c    0.093070 *  0.000000 *  0.158230 *   4.00000    1.000000    
      8 Ge    c    0.906930 *  0.000000 *  0.841770 *   4.00000    1.000000    
      9 Si    c    0.686180 *  0.703140 *  0.690170 *   4.00000    1.000000    
     10 Si    c    0.313820 *  0.703140 *  0.309830 *   4.00000    1.000000    
     11 Si    c    0.331050 *  0.296920 *  0.607380 *   4.00000    1.000000    
     12 Si    c    0.668950 *  0.296920 *  0.392620 *   4.00000    1.000000    
     13 O3    c    0.268740 *  0.279030 *  0.446100 *   1.33043    1.000000    
     14 O3    c    0.731260 *  0.279030 *  0.553900 *   1.33043    1.000000    
     15 O3    c    0.731260 *  0.720970 *  0.553900 *   1.33043    1.000000    
     16 O3    c    0.268740 *  0.720970 *  0.446100 *   1.33043    1.000000    
     17 O3    c    0.295480 *  0.500000 *  0.260860 *   1.33043    1.000000    
     18 O3    c    0.704520 *  0.500000 *  0.739140 *   1.33043    1.000000    
     19 O3    c    0.490600 *  0.234690 *  0.337530 *   1.33043    1.000000    
     20 O3    c    0.509400 *  0.234690 *  0.662470 *   1.33043    1.000000    
     21 O3    c    0.509400 *  0.765310 *  0.662470 *   1.33043    1.000000    
     22 O3    c    0.490600 *  0.765310 *  0.337530 *   1.33043    1.000000    
     23 O1    c    0.200440 *  0.174000 *  0.194980 *   1.73396    1.000000    
     24 O1    c    0.799560 *  0.174000 *  0.805020 *   1.73396    1.000000    
     25 O3    c    0.799560 *  0.826000 *  0.805020 *   1.33043    1.000000    
     26 O3    c    0.200440 *  0.826000 *  0.194980 *   1.33043    1.000000    
     27 O3    c    0.317860 *  0.500000 *  0.649090 *   1.33043    1.000000    
     28 O3    c    0.682140 *  0.500000 *  0.350910 *   1.33043    1.000000    
     29 O3    c    0.227920 *  0.173870 *  0.671620 *   1.33043    1.000000    
     30 O3    c    0.772080 *  0.173870 *  0.328380 *   1.33043    1.000000    
     31 O1    c    0.772080 *  0.826130 *  0.328380 *   1.73396    1.000000    
     32 O1    c    0.227920 *  0.826130 *  0.671620 *   1.73396    1.000000    
     33 O1    c    0.000000 *  0.000000 *  0.500000 *   1.73396    1.000000    
     34 O1    c    0.971960 *  0.000000 *  0.241930 *   1.73396    1.000000    
     35 O1    c    0.028040 *  0.000000 *  0.758070 *   1.73396    1.000000    
     36 O1    c    0.000000 *  0.000000 *  0.000000 *   1.73396    1.000000    
     37 O3    s    0.268740 *  0.279030 *  0.446100 *  -3.33043    1.000000    
     38 O3    s    0.731260 *  0.279030 *  0.553900 *  -3.33043    1.000000    
     39 O3    s    0.731260 *  0.720970 *  0.553900 *  -3.33043    1.000000    
     40 O3    s    0.268740 *  0.720970 *  0.446100 *  -3.33043    1.000000    
     41 O3    s    0.295480 *  0.500000 *  0.260860 *  -3.33043    1.000000    
     42 O3    s    0.704520 *  0.500000 *  0.739140 *  -3.33043    1.000000    
     43 O3    s    0.490600 *  0.234690 *  0.337530 *  -3.33043    1.000000    
     44 O3    s    0.509400 *  0.234690 *  0.662470 *  -3.33043    1.000000    
     45 O3    s    0.509400 *  0.765310 *  0.662470 *  -3.33043    1.000000    
     46 O3    s    0.490600 *  0.765310 *  0.337530 *  -3.33043    1.000000    
     47 O1    s    0.200440 *  0.174000 *  0.194980 *  -3.73396    1.000000    
     48 O1    s    0.799560 *  0.174000 *  0.805020 *  -3.73396    1.000000    
     49 O3    s    0.799560 *  0.826000 *  0.805020 *  -3.33043    1.000000    
     50 O3    s    0.200440 *  0.826000 *  0.194980 *  -3.33043    1.000000    
     51 O3    s    0.317860 *  0.500000 *  0.649090 *  -3.33043    1.000000    
     52 O3    s    0.682140 *  0.500000 *  0.350910 *  -3.33043    1.000000    
     53 O3    s    0.227920 *  0.173870 *  0.671620 *  -3.33043    1.000000    
     54 O3    s    0.772080 *  0.173870 *  0.328380 *  -3.33043    1.000000    
     55 O1    s    0.772080 *  0.826130 *  0.328380 *  -3.73396    1.000000    
     56 O1    s    0.227920 *  0.826130 *  0.671620 *  -3.73396    1.000000    
     57 O1    s    0.000000 *  0.000000 *  0.500000 *  -3.73396    1.000000    
     58 O1    s    0.971960 *  0.000000 *  0.241930 *  -3.73396    1.000000    
     59 O1    s    0.028040 *  0.000000 *  0.758070 *  -3.73396    1.000000    
     60 O1    s    0.000000 *  0.000000 *  0.000000 *  -3.73396    1.000000    
--------------------------------------------------------------------------------



********************************************************************************
*  General input information                                                   *
********************************************************************************

  Species output for all configurations : 

--------------------------------------------------------------------------------
  Species    Type    Atomic    Atomic    Charge       Radii (Angs)     Library
                     Number     Mass       (e)     Cova   Ionic  VDW   Symbol
--------------------------------------------------------------------------------
    Ge       Core       32      72.61   4.000000   1.170  0.000  1.750 Ge       
    Si       Core       14      28.09   4.000000   1.200  0.000  2.100 Si       
    O1       Core        8      16.00   1.733957   0.730  0.000  1.360 O1       
    O2       Core        8      16.00   0.870733   0.730  0.000  0.000 O2       
    O3       Core        8      16.00   1.330431   0.730  0.000  1.360 O3       
    O1       Shell       8       0.00  -3.733957   0.730  0.000  0.000 O1       
    O2       Shell       8       0.00  -2.870733   0.730  0.000  0.000 O2       
    O3       Shell       8       0.00  -3.330431   0.730  0.000  0.000 O3       
--------------------------------------------------------------------------------


  Lattice summation method               =    Ewald          (3-D)
                                         =    Parry          (2-D)
                                         =    Saunders et al (1-D)
  Accuracy factor for lattice sums       =   12.000


  Analytic derivatives to be used

  Time limit = Infinity

  Maximum range for interatomic potentials =    100000.000000 Angstroms

  General interatomic potentials :

--------------------------------------------------------------------------------
Atom  Types   Potential      Parameter       Value         Units   Cutoffs(Ang)
  1     2                                                            Min /  Max 
--------------------------------------------------------------------------------
Si   c O1   s Buckingham    Buckingham A     1315.2478    eV        0.000 16.000
                            Buckingham rho  0.31775900    Ang       
                            Buckingham C     10.141118    eV*Ang^6  
--------------------------------------------------------------------------------
Si   c O2   s Buckingham    Buckingham A     1315.2478    eV        0.000 16.000
                            Buckingham rho  0.31775900    Ang       
                            Buckingham C     10.141118    eV*Ang^6  
--------------------------------------------------------------------------------
Si   c O3   s Buckingham    Buckingham A     1315.2478    eV        0.000 16.000
                            Buckingham rho  0.31775900    Ang       
                            Buckingham C     10.141118    eV*Ang^6  
--------------------------------------------------------------------------------
Ge   c O1   s Buckingham    Buckingham A     1497.3996    eV        0.000 16.000
                            Buckingham rho  0.32564600    Ang       
                            Buckingham C     16.808599    eV*Ang^6  
--------------------------------------------------------------------------------
Ge   c O2   s Buckingham    Buckingham A     1497.3996    eV        0.000 16.000
                            Buckingham rho  0.32564600    Ang       
                            Buckingham C     16.808599    eV*Ang^6  
--------------------------------------------------------------------------------
Ge   c O3   s Buckingham    Buckingham A     1497.3996    eV        0.000 16.000
                            Buckingham rho  0.32564600    Ang       
                            Buckingham C     16.808599    eV*Ang^6  
--------------------------------------------------------------------------------
O1   s O1   s Buckingham    Buckingham A     22764.000    eV        0.000 16.000
                            Buckingham rho  0.14900000    Ang       
                            Buckingham C     10.937044    eV*Ang^6  
--------------------------------------------------------------------------------
O1   s O2   s Buckingham    Buckingham A     22764.000    eV        0.000 16.000
                            Buckingham rho  0.14900000    Ang       
                            Buckingham C     10.937044    eV*Ang^6  
--------------------------------------------------------------------------------
O1   s O3   s Buckingham    Buckingham A     22764.000    eV        0.000 16.000
                            Buckingham rho  0.14900000    Ang       
                            Buckingham C     10.937044    eV*Ang^6  
--------------------------------------------------------------------------------
O2   s O2   s Buckingham    Buckingham A     22764.000    eV        0.000 16.000
                            Buckingham rho  0.14900000    Ang       
                            Buckingham C     10.937044    eV*Ang^6  
--------------------------------------------------------------------------------
O2   s O3   s Buckingham    Buckingham A     22764.000    eV        0.000 16.000
                            Buckingham rho  0.14900000    Ang       
                            Buckingham C     10.937044    eV*Ang^6  
--------------------------------------------------------------------------------
O3   s O3   s Buckingham    Buckingham A     22764.000    eV        0.000 16.000
                            Buckingham rho  0.14900000    Ang       
                            Buckingham C     10.937044    eV*Ang^6  
--------------------------------------------------------------------------------
O1   c O1   s Spring (c-s)  Spring k 2       180.31577    eV*Ang^-2 0.000  0.800
                            Spring k 4       0.0000000    eV*Ang^-4 
--------------------------------------------------------------------------------
O2   c O2   s Spring (c-s)  Spring k 2       75.969800    eV*Ang^-2 0.000  0.800
                            Spring k 4       0.0000000    eV*Ang^-4 
--------------------------------------------------------------------------------
O3   c O3   s Spring (c-s)  Spring k 2       128.14270    eV*Ang^-2 0.000  0.800
                            Spring k 4       0.0000000    eV*Ang^-4 
--------------------------------------------------------------------------------

  General Three-body potentials :

--------------------------------------------------------------------------------
  Atoms       Potential      Parameter       Value         Units   Cutoffs(Ang)
  1 / 2 / 3                                                          Min /  Max 
--------------------------------------------------------------------------------
Si    core    Harmonic      Three-body cnst  1.2614000    eV*rad^-2 0.000  1.900
O1    shel                  Three-body angl  109.47000    degrees   0.000  1.900
O1    shel                  Three-body k4    0.0000000    eV*rad^-4 0.000  3.500
                            Three-body k3    0.0000000    eV*rad^-3 
--------------------------------------------------------------------------------
Si    core    Harmonic      Three-body cnst  1.2614000    eV*rad^-2 0.000  1.900
O1    shel                  Three-body angl  109.47000    degrees   0.000  1.900
õ(1   shel                  Three-body k4    0.0000000    eV*rad^-4 0.000  3.500
                            Three-body k3    0.0000000    eV*rad^-3 
--------------------------------------------------------------------------------
Si    core    Harmonic      Three-body cnst  1.2614000    eV*rad^-2 0.000  1.900
õ(1   shel                  Three-body angl  109.47000    degrees   0.000  1.900
õ(1   shel                  Three-body k4    0.0000000    eV*rad^-4 0.000  3.500
                            Three-body k3    0.0000000    eV*rad^-3 
--------------------------------------------------------------------------------
Si    core    Harmonic      Three-body cnst  1.2614000    eV*rad^-2 0.000  1.900
O1    shel                  Three-body angl  109.47000    degrees   0.000  1.900
O2    shel                  Three-body k4    0.0000000    eV*rad^-4 0.000  3.500
                            Three-body k3    0.0000000    eV*rad^-3 
--------------------------------------------------------------------------------
Si    core    Harmonic      Three-body cnst  1.2614000    eV*rad^-2 0.000  1.900
O1    shel                  Three-body angl  109.47000    degrees   0.000  1.900
õ(2   shel                  Three-body k4    0.0000000    eV*rad^-4 0.000  3.500
                            Three-body k3    0.0000000    eV*rad^-3 
--------------------------------------------------------------------------------
Si    core    Harmonic      Three-body cnst  1.2614000    eV*rad^-2 0.000  1.900
O2    shel                  Three-body angl  109.47000    degrees   0.000  1.900
õ(1   shel                  Three-body k4    0.0000000    eV*rad^-4 0.000  3.500
                            Three-body k3    0.0000000    eV*rad^-3 
--------------------------------------------------------------------------------
Si    core    Harmonic      Three-body cnst  1.2614000    eV*rad^-2 0.000  1.900
õ(1   shel                  Three-body angl  109.47000    degrees   0.000  1.900
õ(2   shel                  Three-body k4    0.0000000    eV*rad^-4 0.000  3.500
                            Three-body k3    0.0000000    eV*rad^-3 
--------------------------------------------------------------------------------
Si    core    Harmonic      Three-body cnst  1.2614000    eV*rad^-2 0.000  1.900
O2    shel                  Three-body angl  109.47000    degrees   0.000  1.900
O2    shel                  Three-body k4    0.0000000    eV*rad^-4 0.000  3.500
                            Three-body k3    0.0000000    eV*rad^-3 
--------------------------------------------------------------------------------
Si    core    Harmonic      Three-body cnst  1.2614000    eV*rad^-2 0.000  1.900
O2    shel                  Three-body angl  109.47000    degrees   0.000  1.900
õ(2   shel                  Three-body k4    0.0000000    eV*rad^-4 0.000  3.500
                            Three-body k3    0.0000000    eV*rad^-3 
--------------------------------------------------------------------------------
Si    core    Harmonic      Three-body cnst  1.2614000    eV*rad^-2 0.000  1.900
õ(2   shel                  Three-body angl  109.47000    degrees   0.000  1.900
õ(2   shel                  Three-body k4    0.0000000    eV*rad^-4 0.000  3.500
                            Three-body k3    0.0000000    eV*rad^-3 
--------------------------------------------------------------------------------

********************************************************************************
*  Output for configuration   1 : c00096.vasp                                  *
********************************************************************************


  Components of energy : 

--------------------------------------------------------------------------------
  Interatomic potentials     =         432.39650068 eV    
  Three-body potentials      =           0.00000000 eV    
  Monopole - monopole (real) =       -1236.99964305 eV    
  Monopole - monopole (recip)=        -659.26603192 eV    
  Monopole - monopole (total)=       -1896.26567496 eV    
--------------------------------------------------------------------------------
  Total lattice energy       =       -1463.86917428 eV    
--------------------------------------------------------------------------------
  Total lattice energy       =         -141240.9980 kJ/(mole unit cells)
--------------------------------------------------------------------------------


  Number of variables =      183

  Maximum number of calculations  =          1000
  Maximum Hessian update interval =            10
  Maximum step size               =   0.100000000
  Maximum parameter tolerance     =   0.000010000
  Maximum function  tolerance     =   0.000010000
  Maximum gradient  tolerance     =   0.001000000
  Maximum gradient  component     =   0.010000000

  Symmetry not applied to optimisation

  Cell parameters to be optimised using strains

  Newton-Raphson optimiser to be used

  BFGS hessian update to be used

  Lower half triangular hessian to be used

  Minimiser to switch to RFO
  When gradient norm is less than     0.050000

  Dumpfile to be written after every cycle

  Start of bulk optimisation :

  Cycle:      0 Energy:     -1463.869174  Gnorm:      6.246154  CPU:    0.038
  ** Hessian calculated **
  Cycle:      1 Energy:     -1482.932164  Gnorm:      1.686515  CPU:    0.078
  ** Hessian calculated **
  Cycle:      2 Energy:     -1486.073192  Gnorm:      1.086543  CPU:    0.151
  ** Hessian calculated **
  Cycle:      3 Energy:     -1487.006951  Gnorm:      0.571785  CPU:    0.218
  Cycle:      4 Energy:     -1487.334150  Gnorm:      0.350124  CPU:    0.258
  Cycle:      5 Energy:     -1487.609102  Gnorm:      0.282379  CPU:    0.306
  Cycle:      6 Energy:     -1487.915959  Gnorm:      0.235820  CPU:    0.353
  Cycle:      7 Energy:     -1488.071164  Gnorm:      0.166824  CPU:    0.394
  Cycle:      8 Energy:     -1488.139151  Gnorm:      0.126597  CPU:    0.434
  Cycle:      9 Energy:     -1488.170211  Gnorm:      0.087868  CPU:    0.474
  Cycle:     10 Energy:     -1488.190129  Gnorm:      0.080637  CPU:    0.522
  Cycle:     11 Energy:     -1488.209048  Gnorm:      0.083099  CPU:    0.575
  Cycle:     12 Energy:     -1488.231038  Gnorm:      0.086241  CPU:    0.656
  ** Hessian calculated **
  Cycle:     13 Energy:     -1488.237668  Gnorm:      0.067715  CPU:    0.730
  Cycle:     14 Energy:     -1488.247304  Gnorm:      0.057842  CPU:    0.779
  Cycle:     15 Energy:     -1488.260508  Gnorm:      0.053539  CPU:    0.827
  Cycle:     16 Energy:     -1488.272531  Gnorm:      0.059013  CPU:    0.876
  Cycle:     17 Energy:     -1488.279028  Gnorm:      0.048891  CPU:    0.917
  ** Hessian has required structure
  Cycle:     18 Energy:     -1488.282620  Gnorm:      0.065905  CPU:    0.958
  ** Hessian has required structure
  Cycle:     19 Energy:     -1488.287675  Gnorm:      0.085545  CPU:    1.007
  ** Hessian has required structure
  Cycle:     20 Energy:     -1488.294596  Gnorm:      0.077072  CPU:    1.048
  ** Hessian has required structure
  Cycle:     21 Energy:     -1488.299305  Gnorm:      0.072299  CPU:    1.089
  ** Hessian has required structure
  Cycle:     22 Energy:     -1488.301688  Gnorm:      0.085883  CPU:    1.130
  ** Hessian has wrong structure
  ** Imaginary eigenvectors =   2
  ** Hessian has wrong structure
  ** Imaginary eigenvectors =   2
  Cycle:     23 Energy:     -1488.327723  Gnorm:      0.085899  CPU:    1.328
  ** Hessian has wrong structure
  ** Imaginary eigenvectors =   2
  ** Hessian has wrong structure
  ** Imaginary eigenvectors =   2
  Cycle:     24 Energy:     -1488.378244  Gnorm:      0.091663  CPU:    1.510
  ** Hessian has wrong structure
  ** Imaginary eigenvectors =   2
  Cycle:     25 Energy:     -1488.400309  Gnorm:      0.095355  CPU:    1.609
  ** Hessian has wrong structure
  ** Imaginary eigenvectors =   2
  Cycle:     26 Energy:     -1488.511416  Gnorm:      0.111268  CPU:    1.758
  ** Hessian has required structure
  Cycle:     27 Energy:     -1488.634860  Gnorm:      0.075003  CPU:    1.832
  ** Hessian has required structure
  Cycle:     28 Energy:     -1488.681225  Gnorm:      0.050386  CPU:    1.880
  ** Hessian has required structure
  Cycle:     29 Energy:     -1488.700962  Gnorm:      0.037531  CPU:    1.927
  ** Hessian has required structure
  Cycle:     30 Energy:     -1488.711698  Gnorm:      0.017382  CPU:    1.976
  ** Hessian has required structure
  Cycle:     31 Energy:     -1488.716196  Gnorm:      0.021820  CPU:    2.030
  ** Hessian has required structure
  Cycle:     32 Energy:     -1488.718257  Gnorm:      0.008147  CPU:    2.078
  ** Hessian has required structure
  Cycle:     33 Energy:     -1488.719016  Gnorm:      0.006591  CPU:    2.134
  ** Hessian has required structure
  Cycle:     34 Energy:     -1488.719404  Gnorm:      0.004570  CPU:    2.182
  ** Hessian has required structure
  Cycle:     35 Energy:     -1488.719612  Gnorm:      0.002889  CPU:    2.231
  ** Hessian has required structure
  Cycle:     36 Energy:     -1488.719691  Gnorm:      0.001753  CPU:    2.280
  ** Hessian has required structure
  Cycle:     37 Energy:     -1488.719721  Gnorm:      0.000881  CPU:    2.361
  ** Hessian has required structure
  Cycle:     38 Energy:     -1488.719723  Gnorm:      0.000702  CPU:    2.402
  ** Hessian has required structure
  Cycle:     39 Energy:     -1488.719727  Gnorm:      0.000472  CPU:    2.450
  ** Hessian has required structure
  Cycle:     40 Energy:     -1488.719728  Gnorm:      0.000425  CPU:    2.490
  ** Hessian has required structure
  Cycle:     41 Energy:     -1488.719728  Gnorm:      0.000425  CPU:    2.560
  ** Hessian has required structure
  Cycle:     42 Energy:     -1488.719728  Gnorm:      0.000425  CPU:    2.616
  ** Hessian has required structure
  Cycle:     43 Energy:     -1488.719728  Gnorm:      0.000425  CPU:    2.705
  ** Hessian calculated **
  Cycle:     44 Energy:     -1488.719728  Gnorm:      0.000236  CPU:    2.765
  ** Hessian has required structure
  Cycle:     45 Energy:     -1488.719728  Gnorm:      0.000338  CPU:    2.806
  ** Hessian has required structure
  Cycle:     46 Energy:     -1488.719728  Gnorm:      0.000378  CPU:    2.847
  ** Hessian has required structure
  Cycle:     47 Energy:     -1488.719728  Gnorm:      0.000337  CPU:    2.887
  ** Hessian has required structure
  Cycle:     48 Energy:     -1488.719728  Gnorm:      0.000321  CPU:    2.927
  ** Hessian has required structure
  Cycle:     49 Energy:     -1488.719728  Gnorm:      0.000338  CPU:    2.968
  ** Hessian has required structure
  Cycle:     50 Energy:     -1488.719728  Gnorm:      0.000291  CPU:    3.008
  ** Hessian has required structure


  **** Optimisation achieved ****


  Final energy =   -1488.71972834 eV      
  Final Gnorm  =       0.00025623

  Components of energy : 

--------------------------------------------------------------------------------
  Interatomic potentials     =         395.93251361 eV    
  Three-body potentials      =           0.00000000 eV    
  Monopole - monopole (real) =        -669.80151358 eV    
  Monopole - monopole (recip)=       -1214.85072837 eV    
  Monopole - monopole (total)=       -1884.65224195 eV    
--------------------------------------------------------------------------------
  Total lattice energy       =       -1488.71972834 eV    
--------------------------------------------------------------------------------
  Total lattice energy       =         -143638.6966 kJ/(mole unit cells)
--------------------------------------------------------------------------------

  Final fractional coordinates of atoms :

--------------------------------------------------------------------------------
   No.  Atomic        x           y          z          Radius
        Label       (Frac)      (Frac)     (Frac)       (Angs) 
--------------------------------------------------------------------------------
     1  Ge    c     0.313820    0.296860    0.309830    0.000000
     2  Ge    c     0.683917    0.366472    0.700008    0.000000
     3  Ge    c     0.620379    0.770468    0.382009    0.000000
     4  Ge    c     0.274341    0.685739    0.604888    0.000000
     5  Ge    c     0.866000    0.070148    0.379049    0.000000
     6  Ge    c     0.092501    0.998686    0.678277    0.000000
     7  Ge    c     0.069365    0.006681    0.174409    0.000000
     8  Ge    c     0.873260    0.046268    0.861888    0.000000
     9  Si    c     0.633318    0.762439    0.691046    0.000000
    10  Si    c     0.263770    0.696551    0.296658    0.000000
    11  Si    c     0.325686    0.286176    0.619018    0.000000
    12  Si    c     0.669324    0.374967    0.389749    0.000000
    13  O3    c     0.261140    0.270059    0.457028    0.000000
    14  O3    c     0.733119    0.383667    0.552077    0.000000
    15  O3    c     0.686707    0.782632    0.556451    0.000000
    16  O3    c     0.208559    0.688030    0.430657    0.000000
    17  O3    c     0.279375    0.506679    0.248577    0.000000
    18  O3    c     0.672877    0.572398    0.755325    0.000000
    19  O3    c     0.507853    0.267352    0.350354    0.000000
    20  O3    c     0.506676    0.261934    0.667624    0.000000
    21  O3    c     0.452687    0.787932    0.654288    0.000000
    22  O3    c     0.426512    0.802362    0.331444    0.000000
    23  O1    c     0.214505    0.160842    0.186988    0.000000
    24  O1    c     0.818095    0.253798    0.816037    0.000000
    25  O3    c     0.721215    0.905145    0.796197    0.000000
    26  O3    c     0.142374    0.802732    0.182330    0.000000
    27  O3    c     0.288141    0.474466    0.661499    0.000000
    28  O3    c     0.648795    0.566603    0.329374    0.000000
    29  O3    c     0.245243    0.141095    0.689053    0.000000
    30  O3    c     0.787529    0.271747    0.336556    0.000000
    31  O1    c     0.721910    0.916361    0.316459    0.000000
    32  O1    c     0.148432    0.792733    0.662578    0.000000
    33  O1    c     0.932405    0.051394    0.551976    0.000000
    34  O1    c     0.013863    0.042857    0.316257    0.000000
    35  O1    c     0.037168    0.002501    0.822971    0.000000
    36  O1    c     0.918167    0.030180    0.035181    0.000000
    37  O3    s     0.271213    0.273601    0.460827    0.000000
    38  O3    s     0.723109    0.381448    0.548693    0.000000
    39  O3    s     0.676539    0.779806    0.555636    0.000000
    40  O3    s     0.218993    0.688691    0.431771    0.000000
    41  O3    s     0.280458    0.509662    0.258154    0.000000
    42  O3    s     0.670057    0.573969    0.744934    0.000000
    43  O3    s     0.507373    0.279643    0.350808    0.000000
    44  O3    s     0.502963    0.272645    0.665416    0.000000
    45  O3    s     0.456057    0.777229    0.653923    0.000000
    46  O3    s     0.427122    0.790157    0.332315    0.000000
    47  O1    s     0.211889    0.160541    0.195793    0.000000
    48  O1    s     0.811512    0.247260    0.810200    0.000000
    49  O3    s     0.724841    0.902244    0.790857    0.000000
    50  O3    s     0.148465    0.808289    0.192775    0.000000
    51  O3    s     0.290520    0.473808    0.652997    0.000000
    52  O3    s     0.648662    0.563097    0.339397    0.000000
    53  O3    s     0.240966    0.144195    0.681106    0.000000
    54  O3    s     0.782016    0.266497    0.344926    0.000000
    55  O1    s     0.724108    0.915641    0.326255    0.000000
    56  O1    s     0.154332    0.799450    0.659142    0.000000
    57  O1    s     0.939636    0.048772    0.548822    0.000000
    58  O1    s     0.005874    0.042384    0.310877    0.000000
    59  O1    s     0.028965    0.005524    0.815261    0.000000
    60  O1    s     0.927066    0.029479    0.033598    0.000000
--------------------------------------------------------------------------------

  Final Cartesian lattice vectors (Angstroms) :

        9.146609   -0.187289    0.125000
       -0.151441    7.756556    0.051196
       -3.183355    0.135296    9.858368


  Final cell parameters and derivatives :

--------------------------------------------------------------------------------
       a            9.149381 Angstrom     dE/de1(xx)     0.001738 eV/strain
       b            7.758203 Angstrom     dE/de2(yy)     0.009096 eV/strain
       c           10.360476 Angstrom     dE/de3(zz)    -0.000826 eV/strain
       alpha       88.548373 Degrees      dE/de4(yz)    -0.000080 eV/strain
       beta       107.123584 Degrees      dE/de5(xz)     0.000119 eV/strain
       gamma       92.286127 Degrees      dE/de6(xy)     0.000932 eV/strain
--------------------------------------------------------------------------------

  Primitive cell volume =           702.185090 Angs**3

  Density of cell =      2.547516 g/cm**3

  Non-primitive cell volume =           702.185090 Angs**3


  Final internal derivatives :

--------------------------------------------------------------------------------
   No.  Atomic          a             b             c           Radius
        Label          (eV)          (eV)          (eV)        (eV/Angs)
--------------------------------------------------------------------------------
      1 Ge    c       0.000000      0.000000      0.000000      0.000000
      2 Ge    c      -0.002519     -0.002775      0.003166      0.000000
      3 Ge    c      -0.002388      0.005158      0.003121      0.000000
      4 Ge    c      -0.000296      0.003022     -0.002489      0.000000
      5 Ge    c       0.000563      0.001443      0.002263      0.000000
      6 Ge    c      -0.003412      0.003440      0.003835      0.000000
      7 Ge    c      -0.005436      0.000549      0.007258      0.000000
      8 Ge    c       0.002338     -0.001770      0.003324      0.000000
      9 Si    c       0.002707      0.004249     -0.002670      0.000000
     10 Si    c       0.000242      0.005442     -0.003126      0.000000
     11 Si    c       0.004328     -0.004974     -0.004470      0.000000
     12 Si    c       0.007542     -0.006031     -0.005859      0.000000
     13 O3    c      -0.001290     -0.000043      0.004188      0.000000
     14 O3    c       0.004130     -0.001649     -0.003310      0.000000
     15 O3    c      -0.000760      0.000821      0.003242      0.000000
     16 O3    c      -0.002519      0.001486      0.000399      0.000000
     17 O3    c       0.000211     -0.006513     -0.005030      0.000000
     18 O3    c       0.000826     -0.000013      0.002045      0.000000
     19 O3    c      -0.000657     -0.002123     -0.001969      0.000000
     20 O3    c       0.000834      0.000249      0.000277      0.000000
     21 O3    c      -0.004084      0.001321      0.001603      0.000000
     22 O3    c       0.002755      0.001237     -0.002819      0.000000
     23 O1    c       0.000247     -0.000129      0.005257      0.000000
     24 O1    c      -0.000809      0.006036     -0.003361      0.000000
     25 O3    c      -0.002171     -0.002256      0.000688      0.000000
     26 O3    c       0.004906     -0.004256      0.001907      0.000000
     27 O3    c      -0.005222      0.004425      0.007476      0.000000
     28 O3    c       0.006661      0.001141     -0.006982      0.000000
     29 O3    c      -0.004153     -0.001216      0.005085      0.000000
     30 O3    c      -0.006357      0.005134      0.004880      0.000000
     31 O1    c      -0.001873     -0.000752      0.002075      0.000000
     32 O1    c       0.002597     -0.007952     -0.001070      0.000000
     33 O1    c      -0.004282     -0.002962     -0.001089      0.000000
     34 O1    c       0.006733     -0.000586     -0.007501      0.000000
     35 O1    c       0.003017      0.000538     -0.005963      0.000000
     36 O1    c       0.003578      0.000400     -0.000828      0.000000
     37 O3    s       0.000292      0.002123     -0.001153      0.000000
     38 O3    s      -0.001440      0.001113      0.002908      0.000000
     39 O3    s      -0.000304     -0.001562     -0.001581      0.000000
     40 O3    s       0.001852     -0.000465     -0.001014      0.000000
     41 O3    s      -0.000022      0.005181      0.003524      0.000000
     42 O3    s      -0.002680     -0.000326     -0.002067      0.000000
     43 O3    s       0.000845      0.003046      0.002427      0.000000
     44 O3    s      -0.000620      0.000573     -0.002710      0.000000
     45 O3    s       0.001648     -0.000772     -0.001537      0.000000
     46 O3    s      -0.001855     -0.003906      0.001339      0.000000
     47 O1    s       0.001383      0.002313     -0.007629      0.000000
     48 O1    s       0.000049     -0.003813      0.004928      0.000000
     49 O3    s       0.001600      0.001726      0.002286      0.000000
     50 O3    s      -0.002431     -0.000077     -0.000971      0.000000
     51 O3    s       0.007019     -0.001177     -0.006057      0.000000
     52 O3    s      -0.005049     -0.001620      0.006990      0.000000
     53 O3    s       0.002200      0.001182     -0.003879      0.000000
     54 O3    s       0.003076     -0.000830     -0.001792      0.000000
     55 O1    s       0.002646     -0.001411     -0.005126      0.000000
     56 O1    s      -0.002415      0.003707      0.002457      0.000000
     57 O1    s       0.004362     -0.000083      0.005348      0.000000
     58 O1    s      -0.006900     -0.000348      0.007243      0.000000
     59 O1    s      -0.001795      0.000145      0.004693      0.000000
     60 O1    s      -0.003065     -0.000326     -0.001645      0.000000
--------------------------------------------------------------------------------
  Maximum abs         0.007542      0.007952      0.007629      0.000000
--------------------------------------------------------------------------------


  Born effective charge tensors : 

-------------------------------------------------------------------------------
  Atom             x           y             z
-------------------------------------------------------------------------------
    1 Ge    x       3.7381      0.2083      0.4086
            y       0.2609      4.1139      0.2719
            z       0.1319      0.2848      3.6072
-------------------------------------------------------------------------------
    2 Ge    x       3.7537     -0.0615      0.3258
            y      -0.4486      4.1024     -0.2680
            z       0.2205     -0.2812      3.5914
-------------------------------------------------------------------------------
    3 Ge    x       3.9944      0.3334     -0.1681
            y       0.3726      4.1106     -0.0096
            z       0.1098     -0.0898      3.2520
-------------------------------------------------------------------------------
    4 Ge    x       4.0410     -0.1964     -0.1554
            y      -0.5070      4.0997      0.0223
            z       0.0028      0.1815      3.2818
-------------------------------------------------------------------------------
    5 Ge    x       4.5198     -0.2113      0.2776
            y       0.0952      3.9238      0.0757
            z      -0.4345      0.0924      3.5088
-------------------------------------------------------------------------------
    6 Ge    x       4.5094     -0.3102     -0.2626
            y       0.0756      3.9759      0.0715
            z      -0.2217     -0.0521      3.7286
-------------------------------------------------------------------------------
    7 Ge    x       3.9351     -0.2042     -0.1450
            y       0.1229      3.9087      0.0974
            z       0.7281     -0.0873      4.5684
-------------------------------------------------------------------------------
    8 Ge    x       3.9837     -0.3018      0.2977
            y       0.1364      3.9422     -0.0254
            z      -0.0074     -0.1279      4.7096
-------------------------------------------------------------------------------
    9 Si    x       3.5957      0.1840      0.3194
            y       0.1681      3.9493      0.1648
            z       0.1041      0.2926      3.4125
-------------------------------------------------------------------------------
   10 Si    x       3.5465     -0.0538      0.2917
            y      -0.3932      3.9067     -0.2268
            z       0.1574     -0.1903      3.3971
-------------------------------------------------------------------------------
   11 Si    x       3.7848      0.2919     -0.1474
            y       0.2128      3.9403     -0.0525
            z       0.1028     -0.0997      3.1810
-------------------------------------------------------------------------------
   12 Si    x       3.7871     -0.1555     -0.1032
            y      -0.4499      3.8924     -0.0254
            z       0.0813      0.1323      3.0828
-------------------------------------------------------------------------------
   13 O3    x      -1.4680     -0.1080      0.2709
            y      -0.1187     -1.3683     -0.0271
            z       0.2668     -0.0240     -2.4716
-------------------------------------------------------------------------------
   14 O3    x      -1.4586      0.0366      0.2968
            y       0.1071     -1.3651     -0.0050
            z       0.2821     -0.0054     -2.4508
-------------------------------------------------------------------------------
   15 O3    x      -1.5362     -0.1082      0.3892
            y      -0.1160     -1.3694     -0.0177
            z       0.3801     -0.0177     -2.4027
-------------------------------------------------------------------------------
   16 O3    x      -1.5285      0.0275      0.3949
            y       0.0910     -1.3559      0.0764
            z       0.3846      0.0462     -2.4120
-------------------------------------------------------------------------------
   17 O3    x      -1.2594      0.2218     -0.0613
            y       0.3032     -3.0083     -0.0127
            z      -0.0156     -0.0367     -1.2996
-------------------------------------------------------------------------------
   18 O3    x      -1.2506      0.1476     -0.0774
            y       0.2648     -2.9885      0.1128
            z      -0.0366      0.0847     -1.3373
-------------------------------------------------------------------------------
   19 O3    x      -2.7232     -0.2907     -0.4352
            y      -0.2172     -1.5291     -0.0839
            z      -0.4153     -0.1329     -1.2394
-------------------------------------------------------------------------------
   20 O3    x      -2.7951     -0.2186     -0.4647
            y      -0.1306     -1.4523     -0.0074
            z      -0.4644     -0.0017     -1.2665
-------------------------------------------------------------------------------
   21 O3    x      -2.7872     -0.1746     -0.4789
            y      -0.1070     -1.4505     -0.0672
            z      -0.4766     -0.1171     -1.2773
-------------------------------------------------------------------------------
   22 O3    x      -2.6795     -0.2959     -0.4616
            y      -0.2100     -1.5250     -0.0447
            z      -0.4950     -0.0418     -1.2829
-------------------------------------------------------------------------------
   23 O1    x      -1.9137     -0.7478     -0.4169
            y      -0.8226     -2.3662     -0.6780
            z      -0.4768     -0.6449     -1.9151
-------------------------------------------------------------------------------
   24 O1    x      -1.6867      0.6842     -0.5510
            y       0.6325     -2.6301      0.7715
            z      -0.4973      0.7894     -1.9652
-------------------------------------------------------------------------------
   25 O3    x      -1.6891     -0.6330     -0.5624
            y      -0.6888     -2.2468     -0.8016
            z      -0.5232     -0.8053     -1.9345
-------------------------------------------------------------------------------
   26 O3    x      -1.6393      0.6974     -0.4465
            y       0.6748     -2.3083      0.5908
            z      -0.5192      0.6508     -1.8153
-------------------------------------------------------------------------------
   27 O3    x      -1.3645      0.1878      0.0843
            y       0.2975     -3.0119      0.0100
            z       0.0394     -0.0278     -1.2040
-------------------------------------------------------------------------------
   28 O3    x      -1.3332      0.1723      0.0651
            y       0.2532     -2.9625      0.1308
            z       0.0090      0.1205     -1.2290
-------------------------------------------------------------------------------
   29 O3    x      -2.2784     -0.9618      0.3232
            y      -0.9941     -2.2418      0.2968
            z       0.2614      0.2886     -1.2928
-------------------------------------------------------------------------------
   30 O3    x      -2.2041      0.9362      0.1609
            y       0.8834     -2.2938     -0.0681
            z       0.2152     -0.1097     -1.2142
-------------------------------------------------------------------------------
   31 O1    x      -2.3510     -0.9999      0.0415
            y      -1.0633     -2.4111      0.0139
            z       0.1149      0.0639     -1.3629
-------------------------------------------------------------------------------
   32 O1    x      -2.3219      0.9981      0.3735
            y       0.9402     -2.6202     -0.3363
            z       0.3091     -0.2977     -1.3157
-------------------------------------------------------------------------------
   33 O1    x      -1.9170      0.1923     -0.6561
            y       0.0739     -1.3836      0.2217
            z      -0.3913      0.2400     -2.5512
-------------------------------------------------------------------------------
   34 O1    x      -2.7546      0.3284      0.9050
            y       0.1760     -1.3828     -0.1976
            z       0.8451     -0.2216     -2.0788
-------------------------------------------------------------------------------
   35 O1    x      -2.7128      0.2677      0.8266
            y       0.1121     -1.3085     -0.0826
            z       0.8472     -0.0979     -2.2071
-------------------------------------------------------------------------------
   36 O1    x      -1.5367      0.1178     -0.4587
            y       0.0125     -1.2863      0.1094
            z      -0.6186      0.2427     -3.7955
-------------------------------------------------------------------------------




  Elastic Constant Matrix: (Units=GPa)

-------------------------------------------------------------------------------
  Indices      1         2         3         4         5         6    
-------------------------------------------------------------------------------
       1     27.5721   10.7167    3.8930   -0.5779   -0.5850   -8.8827
       2     10.7167   38.9312    9.3951   -0.8536    3.3482  -10.6346
       3      3.8930    9.3951   25.2680   -2.4476   10.6013   -1.1868
       4     -0.5779   -0.8536   -2.4476    9.9512   -0.8632    3.9833
       5     -0.5850    3.3482   10.6013   -0.8632   11.0599   -1.4713
       6     -8.8827  -10.6346   -1.1868    3.9833   -1.4713   21.1917
-------------------------------------------------------------------------------


  Elastic Compliance Matrix: (Units=1/GPa)

-------------------------------------------------------------------------------
  Indices      1         2         3         4         5         6    
-------------------------------------------------------------------------------
       1    0.046587 -0.006717 -0.011941 -0.006441  0.017827  0.017936
       2   -0.006717  0.034397 -0.013017 -0.006425  0.003223  0.015148
       3   -0.011941 -0.013017  0.077113  0.017131 -0.071317 -0.015390
       4   -0.006441 -0.006425  0.017131  0.113764 -0.009530 -0.027010
       5    0.017827  0.003223 -0.071317 -0.009530  0.160398  0.018023
       6    0.017936  0.015148 -0.015390 -0.027010  0.018023  0.067774
-------------------------------------------------------------------------------

  Mechanical properties :

-------------------------------------------------------------------------------
  Convention :                    Reuss         Voigt         Hill
-------------------------------------------------------------------------------
  Bulk  Modulus (GPa)     =      10.55453      15.53120      13.04287
  Shear Modulus (GPa)     =       8.40385      12.95833      10.68109
-------------------------------------------------------------------------------
  Velocity S-wave (km/s)  =       1.81627       2.25536       2.04762
  Velocity P-wave (km/s)  =       2.92259       3.58871       3.27264
-------------------------------------------------------------------------------
  Compressibility (1/GPa) =    0.09474604
-------------------------------------------------------------------------------
  Stress axis :                     x             y             z
-------------------------------------------------------------------------------
  Youngs Moduli (GPa)     =      21.46523      29.07262      12.96793
-------------------------------------------------------------------------------
  Poissons Ratio (x)      =                     0.19529       0.15485
  Poissons Ratio (y)      =       0.14419                     0.16881
  Poissons Ratio (z)      =       0.25631       0.37845
-------------------------------------------------------------------------------


  Piezoelectric Strain Matrix: (Units=C/m**2)

-------------------------------------------------------------------------------
  Indices      1         2         3         4         5         6    
-------------------------------------------------------------------------------
       x     0.38506   0.16800  -0.27438  -0.22861  -0.17266  -0.07914
       y     0.29202   0.56736   0.50911  -0.76180   0.41590   0.04906
       z     0.06933  -0.11219   0.22260   0.07667  -0.91264   0.17082
-------------------------------------------------------------------------------


  Piezoelectric Stress Matrix: (Units=10**-11 C/N)

-------------------------------------------------------------------------------
  Indices      1         2         3         4         5         6    
-------------------------------------------------------------------------------
       x     1.70618   0.64773  -1.83281  -3.04846   0.00324   1.13733
       y     1.69146   1.79046  -1.50793  -8.87581   4.55798   3.73931
       z    -1.23738  -0.80687   8.15688   1.68933 -15.90379  -1.08237
-------------------------------------------------------------------------------


  Static dielectric constant tensor : 

-------------------------------------------------------------------------------
              x         y         z
-------------------------------------------------------------------------------
       x     5.03039  -0.07165   0.13677
       y    -0.07165   5.91866  -0.01470
       z     0.13677  -0.01470   4.24526
--------------------------------------------------------------------------------

  High frequency dielectric constant tensor : 

-------------------------------------------------------------------------------
              x         y         z
-------------------------------------------------------------------------------
       x     1.56597  -0.00331   0.01012
       y    -0.00331   1.57753   0.00066
       z     0.01012   0.00066   1.52315
-------------------------------------------------------------------------------

  Static refractive indices : 

-------------------------------------------------------------------------------
    1 =    2.05478      2 =    2.24664      3 =    2.43409
-------------------------------------------------------------------------------

  High frequency refractive indices : 

-------------------------------------------------------------------------------
    1 =    1.23323      2 =    1.25192      3 =    1.25638
-------------------------------------------------------------------------------


  Time to end of optimisation =       3.1006 seconds


  Peak dynamic memory used =       2.76 MB 


  Timing analysis for GULP :

--------------------------------------------------------------------------------
  Task / Subroutine                                          Time (Seconds)
--------------------------------------------------------------------------------
  Calculation of reciprocal space energy and derivatives          0.2168
  Calculation of real space energy and derivatives                2.5661
  Calculation of three-body energy and derivatives                0.0225
  Calculation and manipulation of Hessian matrix                  0.5091
  Calculation of matrix inversion                                 0.0044
  Global summation overhead                                       0.0001
--------------------------------------------------------------------------------
  Total CPU time                                                  3.1006
--------------------------------------------------------------------------------


  Dump file written as c00096.vasp.grs
  CIF file written as c00096.vasp.cif


  Job Finished at 11:42.45 22nd October    2025                               

