********************************************************************************
*                       GENERAL UTILITY LATTICE PROGRAM                        *
*                                 Julian Gale                                  *
*                       Curtin Institute for Computation                       *
*                    School of Molecular and Life Sciences                     *
*                    Curtin University, Western Australia                      *
********************************************************************************
* Version = 6.1.2 * Last modified =   3rd November 2022                        *
********************************************************************************
*  optimise     - perform optimisation run                                     *
*  conp         - constant pressure calculation                                *
*  property     - calculate properties for final geometry                      *
********************************************************************************

  Job Started  at 11:39.14 22nd October    2025                               

  Number of CPUs =     1


  Total number of configurations input =      1

********************************************************************************
*  Input for Configuration =   1 : c00047.vasp                                 *
********************************************************************************

  Formula = Ge8Si4O24                                                   

  Number of irreducible atoms/shells =      60


  Total number atoms/shells =      60

  Dimensionality = 3               :  Bulk   



  Cartesian lattice vectors (Angstroms) :

        9.086940    0.000000    0.000000
        0.000000    7.554810    0.000000
       -3.295144    0.000000    9.944380

  Cell parameters (Angstroms/Degrees):

  a =       9.0869    alpha =  90.0000
  b =       7.5548    beta  = 108.3330
  c =      10.4761    gamma =  90.0000

  Initial cell volume =         682.682735 Angs**3

  Temperature of configuration =   0.00     K 

  Pressure of configuration =         0.000 GPa 

  Fractional coordinates of asymmetric unit :

--------------------------------------------------------------------------------
   No.  Atomic       x           y          z         Charge      Occupancy
        Label      (Frac)      (Frac)     (Frac)        (e)         (Frac)  
--------------------------------------------------------------------------------
      1 Ge    c    0.313820    0.296860    0.309830     4.00000    1.000000    
      2 Ge    c    0.686180 *  0.296860 *  0.690170 *   4.00000    1.000000    
      3 Ge    c    0.686180 *  0.703140 *  0.690170 *   4.00000    1.000000    
      4 Ge    c    0.331050 *  0.296920 *  0.607380 *   4.00000    1.000000    
      5 Ge    c    0.668950 *  0.703080 *  0.392620 *   4.00000    1.000000    
      6 Ge    c    0.331050 *  0.703080 *  0.607380 *   4.00000    1.000000    
      7 Ge    c    0.879680 *  0.000000 *  0.350160 *   4.00000    1.000000    
      8 Ge    c    0.906930 *  0.000000 *  0.841770 *   4.00000    1.000000    
      9 Si    c    0.313820 *  0.703140 *  0.309830 *   4.00000    1.000000    
     10 Si    c    0.668950 *  0.296920 *  0.392620 *   4.00000    1.000000    
     11 Si    c    0.120320 *  0.000000 *  0.649840 *   4.00000    1.000000    
     12 Si    c    0.093070 *  0.000000 *  0.158230 *   4.00000    1.000000    
     13 O1    c    0.268740 *  0.279030 *  0.446100 *   1.73396    1.000000    
     14 O3    c    0.731260 *  0.279030 *  0.553900 *   1.33043    1.000000    
     15 O1    c    0.731260 *  0.720970 *  0.553900 *   1.73396    1.000000    
     16 O3    c    0.268740 *  0.720970 *  0.446100 *   1.33043    1.000000    
     17 O3    c    0.295480 *  0.500000 *  0.260860 *   1.33043    1.000000    
     18 O1    c    0.704520 *  0.500000 *  0.739140 *   1.73396    1.000000    
     19 O3    c    0.490600 *  0.234690 *  0.337530 *   1.33043    1.000000    
     20 O1    c    0.509400 *  0.234690 *  0.662470 *   1.73396    1.000000    
     21 O1    c    0.509400 *  0.765310 *  0.662470 *   1.73396    1.000000    
     22 O3    c    0.490600 *  0.765310 *  0.337530 *   1.33043    1.000000    
     23 O3    c    0.200440 *  0.174000 *  0.194980 *   1.33043    1.000000    
     24 O1    c    0.799560 *  0.174000 *  0.805020 *   1.73396    1.000000    
     25 O1    c    0.799560 *  0.826000 *  0.805020 *   1.73396    1.000000    
     26 O2    c    0.200440 *  0.826000 *  0.194980 *   0.87073    1.000000    
     27 O1    c    0.317860 *  0.500000 *  0.649090 *   1.73396    1.000000    
     28 O3    c    0.682140 *  0.500000 *  0.350910 *   1.33043    1.000000    
     29 O3    c    0.227920 *  0.173870 *  0.671620 *   1.33043    1.000000    
     30 O3    c    0.772080 *  0.173870 *  0.328380 *   1.33043    1.000000    
     31 O1    c    0.772080 *  0.826130 *  0.328380 *   1.73396    1.000000    
     32 O3    c    0.227920 *  0.826130 *  0.671620 *   1.33043    1.000000    
     33 O3    c    0.000000 *  0.000000 *  0.500000 *   1.33043    1.000000    
     34 O3    c    0.971960 *  0.000000 *  0.241930 *   1.33043    1.000000    
     35 O3    c    0.028040 *  0.000000 *  0.758070 *   1.33043    1.000000    
     36 O3    c    0.000000 *  0.000000 *  0.000000 *   1.33043    1.000000    
     37 O1    s    0.268740 *  0.279030 *  0.446100 *  -3.73396    1.000000    
     38 O3    s    0.731260 *  0.279030 *  0.553900 *  -3.33043    1.000000    
     39 O1    s    0.731260 *  0.720970 *  0.553900 *  -3.73396    1.000000    
     40 O3    s    0.268740 *  0.720970 *  0.446100 *  -3.33043    1.000000    
     41 O3    s    0.295480 *  0.500000 *  0.260860 *  -3.33043    1.000000    
     42 O1    s    0.704520 *  0.500000 *  0.739140 *  -3.73396    1.000000    
     43 O3    s    0.490600 *  0.234690 *  0.337530 *  -3.33043    1.000000    
     44 O1    s    0.509400 *  0.234690 *  0.662470 *  -3.73396    1.000000    
     45 O1    s    0.509400 *  0.765310 *  0.662470 *  -3.73396    1.000000    
     46 O3    s    0.490600 *  0.765310 *  0.337530 *  -3.33043    1.000000    
     47 O3    s    0.200440 *  0.174000 *  0.194980 *  -3.33043    1.000000    
     48 O1    s    0.799560 *  0.174000 *  0.805020 *  -3.73396    1.000000    
     49 O1    s    0.799560 *  0.826000 *  0.805020 *  -3.73396    1.000000    
     50 O2    s    0.200440 *  0.826000 *  0.194980 *  -2.87073    1.000000    
     51 O1    s    0.317860 *  0.500000 *  0.649090 *  -3.73396    1.000000    
     52 O3    s    0.682140 *  0.500000 *  0.350910 *  -3.33043    1.000000    
     53 O3    s    0.227920 *  0.173870 *  0.671620 *  -3.33043    1.000000    
     54 O3    s    0.772080 *  0.173870 *  0.328380 *  -3.33043    1.000000    
     55 O1    s    0.772080 *  0.826130 *  0.328380 *  -3.73396    1.000000    
     56 O3    s    0.227920 *  0.826130 *  0.671620 *  -3.33043    1.000000    
     57 O3    s    0.000000 *  0.000000 *  0.500000 *  -3.33043    1.000000    
     58 O3    s    0.971960 *  0.000000 *  0.241930 *  -3.33043    1.000000    
     59 O3    s    0.028040 *  0.000000 *  0.758070 *  -3.33043    1.000000    
     60 O3    s    0.000000 *  0.000000 *  0.000000 *  -3.33043    1.000000    
--------------------------------------------------------------------------------



********************************************************************************
*  General input information                                                   *
********************************************************************************

  Species output for all configurations : 

--------------------------------------------------------------------------------
  Species    Type    Atomic    Atomic    Charge       Radii (Angs)     Library
                     Number     Mass       (e)     Cova   Ionic  VDW   Symbol
--------------------------------------------------------------------------------
    Ge       Core       32      72.61   4.000000   1.170  0.000  1.750 Ge       
    Si       Core       14      28.09   4.000000   1.200  0.000  2.100 Si       
    O1       Core        8      16.00   1.733957   0.730  0.000  1.360 O1       
    O2       Core        8      16.00   0.870733   0.730  0.000  1.360 O2       
    O3       Core        8      16.00   1.330431   0.730  0.000  1.360 O3       
    O1       Shell       8       0.00  -3.733957   0.730  0.000  0.000 O1       
    O2       Shell       8       0.00  -2.870733   0.730  0.000  0.000 O2       
    O3       Shell       8       0.00  -3.330431   0.730  0.000  0.000 O3       
--------------------------------------------------------------------------------


  Lattice summation method               =    Ewald          (3-D)
                                         =    Parry          (2-D)
                                         =    Saunders et al (1-D)
  Accuracy factor for lattice sums       =   12.000


  Analytic derivatives to be used

  Time limit = Infinity

  Maximum range for interatomic potentials =    100000.000000 Angstroms

  General interatomic potentials :

--------------------------------------------------------------------------------
Atom  Types   Potential      Parameter       Value         Units   Cutoffs(Ang)
  1     2                                                            Min /  Max 
--------------------------------------------------------------------------------
Si   c O1   s Buckingham    Buckingham A     1315.2478    eV        0.000 16.000
                            Buckingham rho  0.31775900    Ang       
                            Buckingham C     10.141118    eV*Ang^6  
--------------------------------------------------------------------------------
Si   c O2   s Buckingham    Buckingham A     1315.2478    eV        0.000 16.000
                            Buckingham rho  0.31775900    Ang       
                            Buckingham C     10.141118    eV*Ang^6  
--------------------------------------------------------------------------------
Si   c O3   s Buckingham    Buckingham A     1315.2478    eV        0.000 16.000
                            Buckingham rho  0.31775900    Ang       
                            Buckingham C     10.141118    eV*Ang^6  
--------------------------------------------------------------------------------
Ge   c O1   s Buckingham    Buckingham A     1497.3996    eV        0.000 16.000
                            Buckingham rho  0.32564600    Ang       
                            Buckingham C     16.808599    eV*Ang^6  
--------------------------------------------------------------------------------
Ge   c O2   s Buckingham    Buckingham A     1497.3996    eV        0.000 16.000
                            Buckingham rho  0.32564600    Ang       
                            Buckingham C     16.808599    eV*Ang^6  
--------------------------------------------------------------------------------
Ge   c O3   s Buckingham    Buckingham A     1497.3996    eV        0.000 16.000
                            Buckingham rho  0.32564600    Ang       
                            Buckingham C     16.808599    eV*Ang^6  
--------------------------------------------------------------------------------
O1   s O1   s Buckingham    Buckingham A     22764.000    eV        0.000 16.000
                            Buckingham rho  0.14900000    Ang       
                            Buckingham C     10.937044    eV*Ang^6  
--------------------------------------------------------------------------------
O1   s O2   s Buckingham    Buckingham A     22764.000    eV        0.000 16.000
                            Buckingham rho  0.14900000    Ang       
                            Buckingham C     10.937044    eV*Ang^6  
--------------------------------------------------------------------------------
O1   s O3   s Buckingham    Buckingham A     22764.000    eV        0.000 16.000
                            Buckingham rho  0.14900000    Ang       
                            Buckingham C     10.937044    eV*Ang^6  
--------------------------------------------------------------------------------
O2   s O2   s Buckingham    Buckingham A     22764.000    eV        0.000 16.000
                            Buckingham rho  0.14900000    Ang       
                            Buckingham C     10.937044    eV*Ang^6  
--------------------------------------------------------------------------------
O2   s O3   s Buckingham    Buckingham A     22764.000    eV        0.000 16.000
                            Buckingham rho  0.14900000    Ang       
                            Buckingham C     10.937044    eV*Ang^6  
--------------------------------------------------------------------------------
O3   s O3   s Buckingham    Buckingham A     22764.000    eV        0.000 16.000
                            Buckingham rho  0.14900000    Ang       
                            Buckingham C     10.937044    eV*Ang^6  
--------------------------------------------------------------------------------
O1   c O1   s Spring (c-s)  Spring k 2       180.31577    eV*Ang^-2 0.000  0.800
                            Spring k 4       0.0000000    eV*Ang^-4 
--------------------------------------------------------------------------------
O2   c O2   s Spring (c-s)  Spring k 2       75.969800    eV*Ang^-2 0.000  0.800
                            Spring k 4       0.0000000    eV*Ang^-4 
--------------------------------------------------------------------------------
O3   c O3   s Spring (c-s)  Spring k 2       128.14270    eV*Ang^-2 0.000  0.800
                            Spring k 4       0.0000000    eV*Ang^-4 
--------------------------------------------------------------------------------

  General Three-body potentials :

--------------------------------------------------------------------------------
  Atoms       Potential      Parameter       Value         Units   Cutoffs(Ang)
  1 / 2 / 3                                                          Min /  Max 
--------------------------------------------------------------------------------
Si    core    Harmonic      Three-body cnst  1.2614000    eV*rad^-2 0.000  1.900
O1    shel                  Three-body angl  109.47000    degrees   0.000  1.900
O1    shel                  Three-body k4    0.0000000    eV*rad^-4 0.000  3.500
                            Three-body k3    0.0000000    eV*rad^-3 
--------------------------------------------------------------------------------
Si    core    Harmonic      Three-body cnst  1.2614000    eV*rad^-2 0.000  1.900
O1    shel                  Three-body angl  109.47000    degrees   0.000  1.900
õ(1   shel                  Three-body k4    0.0000000    eV*rad^-4 0.000  3.500
                            Three-body k3    0.0000000    eV*rad^-3 
--------------------------------------------------------------------------------
Si    core    Harmonic      Three-body cnst  1.2614000    eV*rad^-2 0.000  1.900
õ(1   shel                  Three-body angl  109.47000    degrees   0.000  1.900
õ(1   shel                  Three-body k4    0.0000000    eV*rad^-4 0.000  3.500
                            Three-body k3    0.0000000    eV*rad^-3 
--------------------------------------------------------------------------------
Si    core    Harmonic      Three-body cnst  1.2614000    eV*rad^-2 0.000  1.900
O1    shel                  Three-body angl  109.47000    degrees   0.000  1.900
O2    shel                  Three-body k4    0.0000000    eV*rad^-4 0.000  3.500
                            Three-body k3    0.0000000    eV*rad^-3 
--------------------------------------------------------------------------------
Si    core    Harmonic      Three-body cnst  1.2614000    eV*rad^-2 0.000  1.900
O1    shel                  Three-body angl  109.47000    degrees   0.000  1.900
õ(2   shel                  Three-body k4    0.0000000    eV*rad^-4 0.000  3.500
                            Three-body k3    0.0000000    eV*rad^-3 
--------------------------------------------------------------------------------
Si    core    Harmonic      Three-body cnst  1.2614000    eV*rad^-2 0.000  1.900
O2    shel                  Three-body angl  109.47000    degrees   0.000  1.900
õ(1   shel                  Three-body k4    0.0000000    eV*rad^-4 0.000  3.500
                            Three-body k3    0.0000000    eV*rad^-3 
--------------------------------------------------------------------------------
Si    core    Harmonic      Three-body cnst  1.2614000    eV*rad^-2 0.000  1.900
õ(1   shel                  Three-body angl  109.47000    degrees   0.000  1.900
õ(2   shel                  Three-body k4    0.0000000    eV*rad^-4 0.000  3.500
                            Three-body k3    0.0000000    eV*rad^-3 
--------------------------------------------------------------------------------
Si    core    Harmonic      Three-body cnst  1.2614000    eV*rad^-2 0.000  1.900
O2    shel                  Three-body angl  109.47000    degrees   0.000  1.900
O2    shel                  Three-body k4    0.0000000    eV*rad^-4 0.000  3.500
                            Three-body k3    0.0000000    eV*rad^-3 
--------------------------------------------------------------------------------
Si    core    Harmonic      Three-body cnst  1.2614000    eV*rad^-2 0.000  1.900
O2    shel                  Three-body angl  109.47000    degrees   0.000  1.900
õ(2   shel                  Three-body k4    0.0000000    eV*rad^-4 0.000  3.500
                            Three-body k3    0.0000000    eV*rad^-3 
--------------------------------------------------------------------------------
Si    core    Harmonic      Three-body cnst  1.2614000    eV*rad^-2 0.000  1.900
õ(2   shel                  Three-body angl  109.47000    degrees   0.000  1.900
õ(2   shel                  Three-body k4    0.0000000    eV*rad^-4 0.000  3.500
                            Three-body k3    0.0000000    eV*rad^-3 
--------------------------------------------------------------------------------

********************************************************************************
*  Output for configuration   1 : c00047.vasp                                  *
********************************************************************************


  Components of energy : 

--------------------------------------------------------------------------------
  Interatomic potentials     =         432.36203570 eV    
  Three-body potentials      =           0.00000000 eV    
  Monopole - monopole (real) =       -1236.99964305 eV    
  Monopole - monopole (recip)=        -659.26603192 eV    
  Monopole - monopole (total)=       -1896.26567496 eV    
--------------------------------------------------------------------------------
  Total lattice energy       =       -1463.90363926 eV    
--------------------------------------------------------------------------------
  Total lattice energy       =         -141244.3234 kJ/(mole unit cells)
--------------------------------------------------------------------------------


  Number of variables =      183

  Maximum number of calculations  =          1000
  Maximum Hessian update interval =            10
  Maximum step size               =   0.100000000
  Maximum parameter tolerance     =   0.000010000
  Maximum function  tolerance     =   0.000010000
  Maximum gradient  tolerance     =   0.001000000
  Maximum gradient  component     =   0.010000000

  Symmetry not applied to optimisation

  Cell parameters to be optimised using strains

  Newton-Raphson optimiser to be used

  BFGS hessian update to be used

  Lower half triangular hessian to be used

  Minimiser to switch to RFO
  When gradient norm is less than     0.050000

  Dumpfile to be written after every cycle

  Start of bulk optimisation :

  Cycle:      0 Energy:     -1463.903639  Gnorm:      6.399312  CPU:    0.039
  ** Hessian calculated **
  Cycle:      1 Energy:     -1482.943269  Gnorm:      1.761117  CPU:    0.080
  ** Hessian calculated **
  Cycle:      2 Energy:     -1485.314171  Gnorm:      0.938480  CPU:    0.150
  Cycle:      3 Energy:     -1486.134300  Gnorm:      0.532563  CPU:    0.194
  Cycle:      4 Energy:     -1486.695953  Gnorm:      0.421404  CPU:    0.247
  Cycle:      5 Energy:     -1487.300478  Gnorm:      0.341998  CPU:    0.300
  Cycle:      6 Energy:     -1487.640029  Gnorm:      0.253366  CPU:    0.345
  Cycle:      7 Energy:     -1487.794923  Gnorm:      0.203579  CPU:    0.390
  Cycle:      8 Energy:     -1487.863456  Gnorm:      0.126391  CPU:    0.434
  Cycle:      9 Energy:     -1487.891714  Gnorm:      0.103906  CPU:    0.479
  Cycle:     10 Energy:     -1487.919936  Gnorm:      0.095229  CPU:    0.531
  Cycle:     11 Energy:     -1487.945155  Gnorm:      0.092214  CPU:    0.584
  ** Hessian calculated **
  Cycle:     12 Energy:     -1487.959039  Gnorm:      0.090512  CPU:    0.666
  Cycle:     13 Energy:     -1487.984427  Gnorm:      0.086977  CPU:    0.725
  Cycle:     14 Energy:     -1488.019159  Gnorm:      0.081059  CPU:    0.773
  Cycle:     15 Energy:     -1488.066647  Gnorm:      0.071338  CPU:    0.825
  Cycle:     16 Energy:     -1488.087272  Gnorm:      0.065211  CPU:    0.890
  ** Hessian calculated **
  Cycle:     17 Energy:     -1488.145337  Gnorm:      0.051542  CPU:    0.984
  Cycle:     18 Energy:     -1488.207966  Gnorm:      0.031176  CPU:    1.031
  ** Hessian has wrong structure
  ** Imaginary eigenvectors =   2
  Cycle:     19 Energy:     -1488.224373  Gnorm:      0.196898  CPU:    1.124
  ** Hessian has wrong structure
  ** Imaginary eigenvectors =   2
  ** Hessian has required structure
  Cycle:     20 Energy:     -1488.311487  Gnorm:      0.193768  CPU:    1.275
  ** Hessian has required structure
  Cycle:     21 Energy:     -1488.430612  Gnorm:      0.101124  CPU:    1.331
  ** Hessian has required structure
  Cycle:     22 Energy:     -1488.481907  Gnorm:      0.049630  CPU:    1.371
  ** Hessian has required structure
  Cycle:     23 Energy:     -1488.521270  Gnorm:      0.069064  CPU:    1.426
  ** Hessian has required structure
  Cycle:     24 Energy:     -1488.546077  Gnorm:      0.066058  CPU:    1.474
  ** Hessian has required structure
  Cycle:     25 Energy:     -1488.558769  Gnorm:      0.045823  CPU:    1.522
  ** Hessian has required structure
  Cycle:     26 Energy:     -1488.567148  Gnorm:      0.032443  CPU:    1.577
  ** Hessian has required structure
  Cycle:     27 Energy:     -1488.570454  Gnorm:      0.025145  CPU:    1.625
  ** Hessian has required structure
  Cycle:     28 Energy:     -1488.572526  Gnorm:      0.018162  CPU:    1.674
  ** Hessian has required structure
  Cycle:     29 Energy:     -1488.573773  Gnorm:      0.009903  CPU:    1.721
  ** Hessian has required structure
  Cycle:     30 Energy:     -1488.576937  Gnorm:      0.010796  CPU:    1.810
  ** Hessian has wrong structure
  ** Imaginary eigenvectors =   1
  Cycle:     31 Energy:     -1488.576993  Gnorm:      0.011798  CPU:    1.919
  ** Hessian has wrong structure
  ** Imaginary eigenvectors =   1
  ** Hessian has required structure
  Cycle:     32 Energy:     -1488.591810  Gnorm:      0.019955  CPU:    2.086
  ** Hessian has required structure
  Cycle:     33 Energy:     -1488.598311  Gnorm:      0.033863  CPU:    2.134
  ** Hessian has required structure
  Cycle:     34 Energy:     -1488.606219  Gnorm:      0.032927  CPU:    2.190
  ** Hessian has required structure
  Cycle:     35 Energy:     -1488.617958  Gnorm:      0.022794  CPU:    2.246
  ** Hessian has required structure
  Cycle:     36 Energy:     -1488.625434  Gnorm:      0.032761  CPU:    2.302
  ** Hessian has required structure
  Cycle:     37 Energy:     -1488.637011  Gnorm:      0.024179  CPU:    2.357
  ** Hessian has required structure
  Cycle:     38 Energy:     -1488.644055  Gnorm:      0.023408  CPU:    2.414
  ** Hessian has required structure
  Cycle:     39 Energy:     -1488.653434  Gnorm:      0.020910  CPU:    2.470
  ** Hessian has required structure
  Cycle:     40 Energy:     -1488.664328  Gnorm:      0.036132  CPU:    2.525
  ** Hessian has required structure
  Cycle:     41 Energy:     -1488.676089  Gnorm:      0.042052  CPU:    2.574
  ** Hessian has required structure
  Cycle:     42 Energy:     -1488.703148  Gnorm:      0.042531  CPU:    2.648
  ** Hessian has required structure
  Cycle:     43 Energy:     -1488.718378  Gnorm:      0.031900  CPU:    2.697
  ** Hessian has required structure
  Cycle:     44 Energy:     -1488.725674  Gnorm:      0.024352  CPU:    2.746
  ** Hessian has required structure
  Cycle:     45 Energy:     -1488.738567  Gnorm:      0.022191  CPU:    2.794
  ** Hessian has required structure
  Cycle:     46 Energy:     -1488.743045  Gnorm:      0.033926  CPU:    2.843
  ** Hessian has required structure
  Cycle:     47 Energy:     -1488.751832  Gnorm:      0.031036  CPU:    2.899
  ** Hessian has required structure
  Cycle:     48 Energy:     -1488.756576  Gnorm:      0.026274  CPU:    2.955
  ** Hessian has required structure
  Cycle:     49 Energy:     -1488.765208  Gnorm:      0.018042  CPU:    3.003
  ** Hessian has required structure
  Cycle:     50 Energy:     -1488.769413  Gnorm:      0.015465  CPU:    3.052
  ** Hessian has required structure
  Cycle:     51 Energy:     -1488.771688  Gnorm:      0.009679  CPU:    3.100
  ** Hessian has required structure
  Cycle:     52 Energy:     -1488.773945  Gnorm:      0.006814  CPU:    3.182
  ** Hessian has required structure
  Cycle:     53 Energy:     -1488.775152  Gnorm:      0.004661  CPU:    3.230
  ** Hessian has required structure
  Cycle:     54 Energy:     -1488.775635  Gnorm:      0.002603  CPU:    3.299
  ** Hessian has required structure
  Cycle:     55 Energy:     -1488.775766  Gnorm:      0.001477  CPU:    3.380
  ** Hessian has required structure
  Cycle:     56 Energy:     -1488.775803  Gnorm:      0.000802  CPU:    3.461
  ** Hessian has required structure
  Cycle:     57 Energy:     -1488.775812  Gnorm:      0.000504  CPU:    3.530
  ** Hessian has required structure
  Cycle:     58 Energy:     -1488.775816  Gnorm:      0.000356  CPU:    3.588
  ** Hessian has required structure
  Cycle:     59 Energy:     -1488.759882  Gnorm:      0.078058  CPU:    3.681
  ** Hessian has required structure
  Cycle:     60 Energy:     -1488.764049  Gnorm:      0.067102  CPU:    3.791
  ** Hessian has required structure
  Cycle:     61 Energy:     -1488.769033  Gnorm:      0.050971  CPU:    3.874
  ** Hessian has required structure
  Cycle:     62 Energy:     -1488.773942  Gnorm:      0.026813  CPU:    3.954
  ** Hessian has required structure
  Cycle:     63 Energy:     -1488.775349  Gnorm:      0.013416  CPU:    4.034
  ** Hessian has required structure
  Cycle:     64 Energy:     -1488.775650  Gnorm:      0.008052  CPU:    4.102
  ** Hessian has required structure
  Cycle:     65 Energy:     -1488.775777  Gnorm:      0.004027  CPU:    4.224
  ** Hessian has required structure
  Cycle:     66 Energy:     -1488.775808  Gnorm:      0.002014  CPU:    4.311
  ** Hessian has required structure
  Cycle:     67 Energy:     -1488.775816  Gnorm:      0.001007  CPU:    4.401
  ** Hessian has required structure
  Cycle:     68 Energy:     -1488.775818  Gnorm:      0.000705  CPU:    4.463
  ** Hessian has required structure
  Cycle:     69 Energy:     -1488.775818  Gnorm:      0.000493  CPU:    4.523
  ** Hessian has required structure
  Cycle:     70 Energy:     -1488.775819  Gnorm:      0.000345  CPU:    4.621
  ** Hessian has required structure
  Cycle:     71 Energy:     -1488.775819  Gnorm:      0.000242  CPU:    4.688
  ** Hessian has required structure


  **** Optimisation achieved ****


  Final energy =   -1488.77581885 eV      
  Final Gnorm  =       0.00016925

  Components of energy : 

--------------------------------------------------------------------------------
  Interatomic potentials     =         396.59055320 eV    
  Three-body potentials      =           0.00000000 eV    
  Monopole - monopole (real) =        -664.72914018 eV    
  Monopole - monopole (recip)=       -1220.63723187 eV    
  Monopole - monopole (total)=       -1885.36637205 eV    
--------------------------------------------------------------------------------
  Total lattice energy       =       -1488.77581885 eV    
--------------------------------------------------------------------------------
  Total lattice energy       =         -143644.1085 kJ/(mole unit cells)
--------------------------------------------------------------------------------

  Final fractional coordinates of atoms :

--------------------------------------------------------------------------------
   No.  Atomic        x           y          z          Radius
        Label       (Frac)      (Frac)     (Frac)       (Angs) 
--------------------------------------------------------------------------------
     1  Ge    c     0.313820    0.296860    0.309830    0.000000
     2  Ge    c     0.714227    0.273998    0.713269    0.000000
     3  Ge    c     0.674000    0.692508    0.723988    0.000000
     4  Ge    c     0.347650    0.227101    0.643248    0.000000
     5  Ge    c     0.654501    0.732475    0.403986    0.000000
     6  Ge    c     0.325279    0.624644    0.639416    0.000000
     7  Ge    c     0.875348    0.039835    0.351578    0.000000
     8  Ge    c     0.934638    0.951038    0.868426    0.000000
     9  Si    c     0.313456    0.677175    0.324719    0.000000
    10  Si    c     0.675280    0.328179    0.396411    0.000000
    11  Si    c     0.119355    0.937589    0.652376    0.000000
    12  Si    c     0.106512    0.995544    0.185904    0.000000
    13  O1    c     0.302231    0.213505    0.466566    0.000000
    14  O3    c     0.702627    0.226566    0.547262    0.000000
    15  O1    c     0.673379    0.794340    0.565736    0.000000
    16  O3    c     0.377170    0.608413    0.489727    0.000000
    17  O3    c     0.239847    0.507020    0.254362    0.000000
    18  O1    c     0.743848    0.486395    0.738313    0.000000
    19  O3    c     0.497875    0.317887    0.306734    0.000000
    20  O1    c     0.540599    0.214578    0.728728    0.000000
    21  O1    c     0.496660    0.689729    0.746642    0.000000
    22  O3    c     0.464793    0.744993    0.294126    0.000000
    23  O3    c     0.216166    0.157236    0.191379    0.000000
    24  O1    c     0.864772    0.158101    0.828864    0.000000
    25  O1    c     0.787397    0.811465    0.850010    0.000000
    26  O2    c     0.192289    0.834311    0.296251    0.000000
    27  O1    c     0.281310    0.417241    0.679036    0.000000
    28  O3    c     0.724461    0.524261    0.416938    0.000000
    29  O3    c     0.266290    0.054323    0.710335    0.000000
    30  O3    c     0.773260    0.232512    0.320612    0.000000
    31  O1    c     0.759336    0.866360    0.330047    0.000000
    32  O3    c     0.170365    0.755483    0.614896    0.000000
    33  O3    c     0.007635    0.041105    0.515044    0.000000
    34  O3    c     0.960396    0.051457    0.223786    0.000000
    35  O3    c     0.036236    0.890520    0.764140    0.000000
    36  O3    c     0.060797    0.927880    0.035579    0.000000
    37  O1    s     0.306441    0.220915    0.467472    0.000000
    38  O3    s     0.701024    0.239533    0.545874    0.000000
    39  O1    s     0.672031    0.782703    0.564844    0.000000
    40  O3    s     0.368693    0.614950    0.486229    0.000000
    41  O3    s     0.252146    0.508179    0.265068    0.000000
    42  O1    s     0.736137    0.485417    0.735232    0.000000
    43  O3    s     0.500126    0.317188    0.315783    0.000000
    44  O1    s     0.538931    0.219935    0.721093    0.000000
    45  O1    s     0.496280    0.684987    0.736934    0.000000
    46  O3    s     0.464359    0.737609    0.305132    0.000000
    47  O3    s     0.213414    0.152876    0.200478    0.000000
    48  O1    s     0.858539    0.151117    0.823002    0.000000
    49  O1    s     0.790134    0.813159    0.841810    0.000000
    50  O2    s     0.196658    0.833517    0.288621    0.000000
    51  O1    s     0.289427    0.419082    0.673479    0.000000
    52  O3    s     0.714157    0.521480    0.413953    0.000000
    53  O3    s     0.258414    0.056475    0.699485    0.000000
    54  O3    s     0.771532    0.226953    0.330583    0.000000
    55  O1    s     0.760336    0.869656    0.337561    0.000000
    56  O3    s     0.178734    0.761480    0.620420    0.000000
    57  O3    s     0.007904    0.030834    0.515221    0.000000
    58  O3    s     0.968136    0.044900    0.230305    0.000000
    59  O3    s     0.036610    0.900283    0.760946    0.000000
    60  O3    s     0.055131    0.936707    0.037273    0.000000
--------------------------------------------------------------------------------

  Final Cartesian lattice vectors (Angstroms) :

        9.247788   -0.042547    0.009014
       -0.044587    7.788593    0.338828
       -3.322283    0.456273    9.638162


  Final cell parameters and derivatives :

--------------------------------------------------------------------------------
       a            9.247890 Angstrom     dE/de1(xx)    -0.007749 eV/strain
       b            7.796088 Angstrom     dE/de2(yy)     0.000682 eV/strain
       c           10.204897 Angstrom     dE/de3(zz)     0.001659 eV/strain
       alpha       84.975727 Degrees      dE/de4(yz)    -0.000693 eV/strain
       beta       108.955840 Degrees      dE/de5(xz)     0.001460 eV/strain
       gamma       90.588614 Degrees      dE/de6(xy)    -0.005748 eV/strain
--------------------------------------------------------------------------------

  Primitive cell volume =           693.043352 Angs**3

  Density of cell =      2.581119 g/cm**3

  Non-primitive cell volume =           693.043352 Angs**3


  Final internal derivatives :

--------------------------------------------------------------------------------
   No.  Atomic          a             b             c           Radius
        Label          (eV)          (eV)          (eV)        (eV/Angs)
--------------------------------------------------------------------------------
      1 Ge    c       0.000000      0.000000      0.000000      0.000000
      2 Ge    c      -0.005864      0.000112      0.001331      0.000000
      3 Ge    c      -0.004012      0.001967      0.001676      0.000000
      4 Ge    c      -0.000361     -0.003435      0.002142      0.000000
      5 Ge    c       0.001789      0.003426     -0.003440      0.000000
      6 Ge    c       0.003034     -0.000746      0.000119      0.000000
      7 Ge    c       0.000082     -0.004173     -0.003434      0.000000
      8 Ge    c      -0.001199     -0.004447     -0.003149      0.000000
      9 Si    c       0.005994     -0.000014     -0.002508      0.000000
     10 Si    c      -0.001853      0.000559     -0.000732      0.000000
     11 Si    c       0.000412      0.002849      0.005278      0.000000
     12 Si    c      -0.001193      0.004728      0.002941      0.000000
     13 O1    c       0.000146     -0.000060     -0.003548      0.000000
     14 O3    c       0.000075     -0.000688     -0.000505      0.000000
     15 O1    c      -0.000060      0.000433      0.002523      0.000000
     16 O3    c       0.000016     -0.000093      0.003414      0.000000
     17 O3    c      -0.001065      0.002631      0.000342      0.000000
     18 O1    c       0.001961     -0.002577     -0.000719      0.000000
     19 O3    c      -0.004053     -0.000215      0.002566      0.000000
     20 O1    c       0.006321      0.001857     -0.003866      0.000000
     21 O1    c       0.004661     -0.000881     -0.004363      0.000000
     22 O3    c      -0.006666     -0.001985      0.004007      0.000000
     23 O3    c      -0.003113     -0.003753      0.000387      0.000000
     24 O1    c       0.001751      0.001634      0.001211      0.000000
     25 O1    c       0.005779      0.004115     -0.000528      0.000000
     26 O2    c      -0.001003     -0.000121      0.001597      0.000000
     27 O1    c      -0.001377      0.004190      0.001171      0.000000
     28 O3    c       0.001087     -0.002956     -0.000520      0.000000
     29 O3    c      -0.001199      0.000636     -0.003400      0.000000
     30 O3    c      -0.001316      0.002476      0.000440      0.000000
     31 O1    c      -0.002151      0.000070      0.005285      0.000000
     32 O3    c      -0.000358     -0.001490     -0.001027      0.000000
     33 O3    c      -0.000320      0.001709     -0.000938      0.000000
     34 O3    c       0.000496     -0.000774      0.001724      0.000000
     35 O3    c       0.002158      0.001014     -0.003476      0.000000
     36 O3    c       0.001093     -0.000771     -0.000125      0.000000
     37 O1    s       0.000554      0.000003      0.001742      0.000000
     38 O3    s       0.000169      0.000241      0.000497      0.000000
     39 O1    s      -0.000749      0.000000     -0.001301      0.000000
     40 O3    s      -0.000287     -0.000398     -0.002029      0.000000
     41 O3    s       0.001290     -0.001215     -0.001161      0.000000
     42 O1    s      -0.001850      0.001049      0.000865      0.000000
     43 O3    s       0.001926      0.000157     -0.001308      0.000000
     44 O1    s      -0.002925     -0.001037      0.002160      0.000000
     45 O1    s      -0.002760      0.000597      0.002868      0.000000
     46 O3    s       0.002537      0.000883     -0.001880      0.000000
     47 O3    s       0.000878      0.001779     -0.000107      0.000000
     48 O1    s      -0.001898     -0.001196     -0.000022      0.000000
     49 O1    s      -0.003015     -0.002048      0.000169      0.000000
     50 O2    s       0.001151      0.000267     -0.000989      0.000000
     51 O1    s       0.001718     -0.001944     -0.001198      0.000000
     52 O3    s      -0.000962      0.001072      0.000132      0.000000
     53 O3    s       0.000810     -0.000816      0.002235      0.000000
     54 O3    s      -0.000062     -0.001349     -0.000339      0.000000
     55 O1    s       0.001188      0.000081     -0.003283      0.000000
     56 O3    s       0.000546      0.000917      0.000739      0.000000
     57 O3    s      -0.000232     -0.000945      0.000627      0.000000
     58 O3    s      -0.000020      0.000594     -0.001819      0.000000
     59 O3    s      -0.000614     -0.000371      0.002034      0.000000
     60 O3    s      -0.000548      0.000180      0.000130      0.000000
--------------------------------------------------------------------------------
  Maximum abs         0.006666      0.004728      0.005285      0.000000
--------------------------------------------------------------------------------


  Born effective charge tensors : 

-------------------------------------------------------------------------------
  Atom             x           y             z
-------------------------------------------------------------------------------
    1 Ge    x       3.7136      0.4833      0.0918
            y       0.1969      4.2608      0.2036
            z       0.1214      0.1869      3.5145
-------------------------------------------------------------------------------
    2 Ge    x       3.9721     -0.1934      0.1911
            y      -0.2397      4.2063     -0.2938
            z       0.4082     -0.0681      3.6303
-------------------------------------------------------------------------------
    3 Ge    x       3.9676      0.3360      0.2093
            y       0.0712      4.1881      0.3858
            z       0.2761      0.1883      3.7266
-------------------------------------------------------------------------------
    4 Ge    x       4.0126      0.3585      0.0419
            y       0.1131      4.2041      0.0506
            z       0.0814      0.0939      3.4857
-------------------------------------------------------------------------------
    5 Ge    x       4.1032      0.4467     -0.0016
            y       0.3161      4.1087     -0.1280
            z      -0.1083      0.1434      3.3847
-------------------------------------------------------------------------------
    6 Ge    x       4.0167     -0.1530      0.2596
            y      -0.2130      4.2045     -0.1078
            z      -0.1711      0.1813      3.2420
-------------------------------------------------------------------------------
    7 Ge    x       4.4401      0.0255     -0.0582
            y      -0.0032      3.9545      0.0679
            z      -0.2772      0.1299      3.5797
-------------------------------------------------------------------------------
    8 Ge    x       3.9675     -0.2427     -0.0216
            y       0.2245      3.8989      0.0800
            z       0.4385      0.0324      4.5613
-------------------------------------------------------------------------------
    9 Si    x       3.3910     -0.0172     -0.0487
            y      -0.0578      3.8033      0.1138
            z       0.3985     -0.2524      3.0741
-------------------------------------------------------------------------------
   10 Si    x       3.8641     -0.3365     -0.0229
            y      -0.3186      3.9295      0.3400
            z      -0.0075     -0.0486      3.1682
-------------------------------------------------------------------------------
   11 Si    x       4.1292     -0.1538     -0.1512
            y       0.1140      3.6892      0.2258
            z      -0.3686     -0.2671      3.4476
-------------------------------------------------------------------------------
   12 Si    x       3.7003     -0.0610      0.1541
            y       0.1802      3.5826     -0.0204
            z      -0.1095      0.6612      4.0825
-------------------------------------------------------------------------------
   13 O1    x      -1.4832     -0.2199      0.4061
            y      -0.1672     -1.5393      0.0983
            z       0.3401      0.1334     -2.6697
-------------------------------------------------------------------------------
   14 O3    x      -1.3838      0.0848      0.3078
            y       0.0572     -1.5208      0.2131
            z       0.2567      0.1949     -2.4203
-------------------------------------------------------------------------------
   15 O1    x      -1.4922     -0.1508      0.3017
            y      -0.0883     -1.6023     -0.0338
            z       0.3310     -0.0055     -2.5632
-------------------------------------------------------------------------------
   16 O3    x      -1.4929      0.0670      0.2716
            y       0.1162     -1.4788      0.1464
            z       0.2538      0.1944     -2.4083
-------------------------------------------------------------------------------
   17 O3    x      -1.2806     -0.0037     -0.1176
            y      -0.0052     -2.9272     -0.2488
            z      -0.1974     -0.2108     -1.3483
-------------------------------------------------------------------------------
   18 O1    x      -1.3779      0.1675     -0.0605
            y       0.2643     -3.3096     -0.1584
            z      -0.0962     -0.1285     -1.3185
-------------------------------------------------------------------------------
   19 O3    x      -2.8344     -0.1301     -0.4986
            y      -0.0342     -1.3725     -0.0941
            z      -0.5119     -0.0675     -1.3678
-------------------------------------------------------------------------------
   20 O1    x      -3.0771     -0.2203     -0.3923
            y      -0.1836     -1.4639      0.0468
            z      -0.4081      0.0051     -1.4160
-------------------------------------------------------------------------------
   21 O1    x      -2.8339     -0.2354     -0.4001
            y      -0.1544     -1.4359     -0.1620
            z      -0.4183     -0.1978     -1.5676
-------------------------------------------------------------------------------
   22 O3    x      -2.7169     -0.2600     -0.2947
            y      -0.1746     -1.3927      0.0553
            z      -0.2928      0.0641     -1.3280
-------------------------------------------------------------------------------
   23 O3    x      -1.7257     -0.7969     -0.3662
            y      -0.7645     -2.4398     -0.5123
            z      -0.3547     -0.6496     -1.6607
-------------------------------------------------------------------------------
   24 O1    x      -1.8062      0.7800     -0.4795
            y       0.7250     -2.4923      0.6506
            z      -0.5779      0.6563     -1.9032
-------------------------------------------------------------------------------
   25 O1    x      -2.0612     -0.7806     -0.5053
            y      -0.8516     -2.1939     -0.6609
            z      -0.5930     -0.6410     -1.9742
-------------------------------------------------------------------------------
   26 O2    x      -1.4687      0.5628     -0.2365
            y       0.5073     -1.9805      0.3955
            z      -0.2643      0.4253     -1.4385
-------------------------------------------------------------------------------
   27 O1    x      -1.5044      0.0465      0.1023
            y       0.0858     -3.1811     -0.0255
            z       0.1680     -0.0589     -1.2631
-------------------------------------------------------------------------------
   28 O3    x      -1.4031      0.0189     -0.0310
            y       0.0611     -3.0872     -0.1765
            z      -0.0002     -0.1177     -1.1264
-------------------------------------------------------------------------------
   29 O3    x      -2.2177     -0.9175     -0.0728
            y      -0.8855     -2.1787     -0.0542
            z      -0.0230      0.0072     -1.2956
-------------------------------------------------------------------------------
   30 O3    x      -2.2696      1.0102      0.3546
            y       0.9301     -2.2283     -0.2668
            z       0.3283     -0.2021     -1.3424
-------------------------------------------------------------------------------
   31 O1    x      -2.4551     -1.1337      0.2009
            y      -1.0696     -2.4663      0.1671
            z       0.2137      0.0990     -1.3251
-------------------------------------------------------------------------------
   32 O3    x      -2.0750      0.9538      0.0834
            y       0.8829     -2.4667     -0.1912
            z       0.2105     -0.2143     -1.1969
-------------------------------------------------------------------------------
   33 O3    x      -1.7466      0.2144     -0.6964
            y       0.1300     -1.4080      0.2833
            z      -0.4612      0.3418     -2.3808
-------------------------------------------------------------------------------
   34 O3    x      -2.8072      0.3267      0.7562
            y       0.2539     -1.3003     -0.0694
            z       0.8023     -0.1732     -1.8264
-------------------------------------------------------------------------------
   35 O3    x      -2.4753      0.0690      1.0171
            y      -0.0022     -1.2640     -0.0734
            z       0.9811     -0.0019     -2.1569
-------------------------------------------------------------------------------
   36 O3    x      -1.2895      0.0549     -0.2942
            y      -0.0167     -1.3005     -0.2464
            z      -0.3686     -0.4340     -3.5995
-------------------------------------------------------------------------------




  Elastic Constant Matrix: (Units=GPa)

-------------------------------------------------------------------------------
  Indices      1         2         3         4         5         6    
-------------------------------------------------------------------------------
       1     39.6761   26.9995   12.8298    3.0713    0.8294  -11.5006
       2     26.9995   67.4759   10.5643    6.3449    6.6053   -9.1253
       3     12.8298   10.5643   30.5792    7.8757    4.9392    3.0679
       4      3.0713    6.3449    7.8757   10.9155    2.7256    3.0547
       5      0.8294    6.6053    4.9392    2.7256    9.6141    4.1392
       6    -11.5006   -9.1253    3.0679    3.0547    4.1392   18.5240
-------------------------------------------------------------------------------


  Elastic Compliance Matrix: (Units=1/GPa)

-------------------------------------------------------------------------------
  Indices      1         2         3         4         5         6    
-------------------------------------------------------------------------------
       1    0.047195 -0.012884 -0.018311 -0.000519  0.003440  0.025304
       2   -0.012884  0.023411  0.001576 -0.009316 -0.016831  0.008570
       3   -0.018311  0.001576  0.049528 -0.025003 -0.012771 -0.011818
       4   -0.000519 -0.009316 -0.025003  0.122402 -0.007069 -0.019376
       5    0.003440 -0.016831 -0.012771 -0.007069  0.138398 -0.033799
       6    0.025304  0.008570 -0.011818 -0.019376 -0.033799  0.086621
-------------------------------------------------------------------------------

  Mechanical properties :

-------------------------------------------------------------------------------
  Convention :                    Reuss         Voigt         Hill
-------------------------------------------------------------------------------
  Bulk  Modulus (GPa)     =      16.42123      26.50205      21.46164
  Shear Modulus (GPa)     =       9.13923      13.63322      11.38623
-------------------------------------------------------------------------------
  Velocity S-wave (km/s)  =       1.88170       2.29824       2.10032
  Velocity P-wave (km/s)  =       3.32913       4.16055       3.76785
-------------------------------------------------------------------------------
  Compressibility (1/GPa) =    0.06089677
-------------------------------------------------------------------------------
  Stress axis :                     x             y             z
-------------------------------------------------------------------------------
  Youngs Moduli (GPa)     =      21.18854      42.71445      20.19051
-------------------------------------------------------------------------------
  Poissons Ratio (x)      =                     0.55032       0.36971
  Poissons Ratio (y)      =       0.27299                    -0.03181
  Poissons Ratio (z)      =       0.38798      -0.06730
-------------------------------------------------------------------------------


  Piezoelectric Strain Matrix: (Units=C/m**2)

-------------------------------------------------------------------------------
  Indices      1         2         3         4         5         6    
-------------------------------------------------------------------------------
       x    -0.16503  -0.27740   1.02265   0.32140  -0.37322   0.71611
       y     1.24874  -0.39540  -0.26156  -0.04557   0.18588  -0.77060
       z    -0.71954  -0.60336  -0.99790  -0.71761   1.36328   0.01083
-------------------------------------------------------------------------------


  Piezoelectric Stress Matrix: (Units=10**-11 C/N)

-------------------------------------------------------------------------------
  Indices      1         2         3         4         5         6    
-------------------------------------------------------------------------------
       x    -0.62711   0.66681   4.15024   0.52038  -8.70882   4.97779
       y     4.99821  -3.50656  -2.85705   1.76139   6.63844  -4.08494
       z    -0.25763  -2.25953  -3.67953  -6.67394  21.38060  -4.28207
-------------------------------------------------------------------------------


  Static dielectric constant tensor : 

-------------------------------------------------------------------------------
              x         y         z
-------------------------------------------------------------------------------
       x     5.40654   0.18158   0.17946
       y     0.18158   5.59459   0.35664
       z     0.17946   0.35664   4.28025
--------------------------------------------------------------------------------

  High frequency dielectric constant tensor : 

-------------------------------------------------------------------------------
              x         y         z
-------------------------------------------------------------------------------
       x     1.57903  -0.00183   0.00639
       y    -0.00183   1.58516   0.00766
       z     0.00639   0.00766   1.53582
-------------------------------------------------------------------------------

  Static refractive indices : 

-------------------------------------------------------------------------------
    1 =    2.04347      2 =    2.30148      3 =    2.41014
-------------------------------------------------------------------------------

  High frequency refractive indices : 

-------------------------------------------------------------------------------
    1 =    1.23843      2 =    1.25693      3 =    1.25954
-------------------------------------------------------------------------------


  Time to end of optimisation =       4.8251 seconds


  Peak dynamic memory used =       2.76 MB 


  Timing analysis for GULP :

--------------------------------------------------------------------------------
  Task / Subroutine                                          Time (Seconds)
--------------------------------------------------------------------------------
  Calculation of reciprocal space energy and derivatives          0.2794
  Calculation of real space energy and derivatives                4.0344
  Calculation of three-body energy and derivatives                0.0397
  Calculation and manipulation of Hessian matrix                  0.6114
  Calculation of matrix inversion                                 0.0041
  Global summation overhead                                       0.0002
--------------------------------------------------------------------------------
  Total CPU time                                                  4.8252
--------------------------------------------------------------------------------


  Dump file written as c00047.vasp.grs
  CIF file written as c00047.vasp.cif


  Job Finished at 11:39.18 22nd October    2025                               

