********************************************************************************
*                       GENERAL UTILITY LATTICE PROGRAM                        *
*                                 Julian Gale                                  *
*                       Curtin Institute for Computation                       *
*                    School of Molecular and Life Sciences                     *
*                    Curtin University, Western Australia                      *
********************************************************************************
* Version = 6.1.2 * Last modified =   3rd November 2022                        *
********************************************************************************
*  optimise     - perform optimisation run                                     *
*  conp         - constant pressure calculation                                *
*  property     - calculate properties for final geometry                      *
********************************************************************************

  Job Started  at 11:40.02 22nd October    2025                               

  Number of CPUs =     1


  Total number of configurations input =      1

********************************************************************************
*  Input for Configuration =   1 : c00057.vasp                                 *
********************************************************************************

  Formula = Ge8Si4O24                                                   

  Number of irreducible atoms/shells =      60


  Total number atoms/shells =      60

  Dimensionality = 3               :  Bulk   



  Cartesian lattice vectors (Angstroms) :

        9.086940    0.000000    0.000000
        0.000000    7.554810    0.000000
       -3.295144    0.000000    9.944380

  Cell parameters (Angstroms/Degrees):

  a =       9.0869    alpha =  90.0000
  b =       7.5548    beta  = 108.3330
  c =      10.4761    gamma =  90.0000

  Initial cell volume =         682.682735 Angs**3

  Temperature of configuration =   0.00     K 

  Pressure of configuration =         0.000 GPa 

  Fractional coordinates of asymmetric unit :

--------------------------------------------------------------------------------
   No.  Atomic       x           y          z         Charge      Occupancy
        Label      (Frac)      (Frac)     (Frac)        (e)         (Frac)  
--------------------------------------------------------------------------------
      1 Ge    c    0.313820    0.296860    0.309830     4.00000    1.000000    
      2 Ge    c    0.686180 *  0.296860 *  0.690170 *   4.00000    1.000000    
      3 Ge    c    0.686180 *  0.703140 *  0.690170 *   4.00000    1.000000    
      4 Ge    c    0.331050 *  0.296920 *  0.607380 *   4.00000    1.000000    
      5 Ge    c    0.331050 *  0.703080 *  0.607380 *   4.00000    1.000000    
      6 Ge    c    0.879680 *  0.000000 *  0.350160 *   4.00000    1.000000    
      7 Ge    c    0.093070 *  0.000000 *  0.158230 *   4.00000    1.000000    
      8 Ge    c    0.906930 *  0.000000 *  0.841770 *   4.00000    1.000000    
      9 Si    c    0.313820 *  0.703140 *  0.309830 *   4.00000    1.000000    
     10 Si    c    0.668950 *  0.296920 *  0.392620 *   4.00000    1.000000    
     11 Si    c    0.668950 *  0.703080 *  0.392620 *   4.00000    1.000000    
     12 Si    c    0.120320 *  0.000000 *  0.649840 *   4.00000    1.000000    
     13 O1    c    0.268740 *  0.279030 *  0.446100 *   1.73396    1.000000    
     14 O3    c    0.731260 *  0.279030 *  0.553900 *   1.33043    1.000000    
     15 O3    c    0.731260 *  0.720970 *  0.553900 *   1.33043    1.000000    
     16 O3    c    0.268740 *  0.720970 *  0.446100 *   1.33043    1.000000    
     17 O3    c    0.295480 *  0.500000 *  0.260860 *   1.33043    1.000000    
     18 O1    c    0.704520 *  0.500000 *  0.739140 *   1.73396    1.000000    
     19 O3    c    0.490600 *  0.234690 *  0.337530 *   1.33043    1.000000    
     20 O1    c    0.509400 *  0.234690 *  0.662470 *   1.73396    1.000000    
     21 O1    c    0.509400 *  0.765310 *  0.662470 *   1.73396    1.000000    
     22 O2    c    0.490600 *  0.765310 *  0.337530 *   0.87073    1.000000    
     23 O1    c    0.200440 *  0.174000 *  0.194980 *   1.73396    1.000000    
     24 O1    c    0.799560 *  0.174000 *  0.805020 *   1.73396    1.000000    
     25 O1    c    0.799560 *  0.826000 *  0.805020 *   1.73396    1.000000    
     26 O3    c    0.200440 *  0.826000 *  0.194980 *   1.33043    1.000000    
     27 O1    c    0.317860 *  0.500000 *  0.649090 *   1.73396    1.000000    
     28 O2    c    0.682140 *  0.500000 *  0.350910 *   0.87073    1.000000    
     29 O3    c    0.227920 *  0.173870 *  0.671620 *   1.33043    1.000000    
     30 O3    c    0.772080 *  0.173870 *  0.328380 *   1.33043    1.000000    
     31 O3    c    0.772080 *  0.826130 *  0.328380 *   1.33043    1.000000    
     32 O3    c    0.227920 *  0.826130 *  0.671620 *   1.33043    1.000000    
     33 O3    c    0.000000 *  0.000000 *  0.500000 *   1.33043    1.000000    
     34 O1    c    0.971960 *  0.000000 *  0.241930 *   1.73396    1.000000    
     35 O3    c    0.028040 *  0.000000 *  0.758070 *   1.33043    1.000000    
     36 O1    c    0.000000 *  0.000000 *  0.000000 *   1.73396    1.000000    
     37 O1    s    0.268740 *  0.279030 *  0.446100 *  -3.73396    1.000000    
     38 O3    s    0.731260 *  0.279030 *  0.553900 *  -3.33043    1.000000    
     39 O3    s    0.731260 *  0.720970 *  0.553900 *  -3.33043    1.000000    
     40 O3    s    0.268740 *  0.720970 *  0.446100 *  -3.33043    1.000000    
     41 O3    s    0.295480 *  0.500000 *  0.260860 *  -3.33043    1.000000    
     42 O1    s    0.704520 *  0.500000 *  0.739140 *  -3.73396    1.000000    
     43 O3    s    0.490600 *  0.234690 *  0.337530 *  -3.33043    1.000000    
     44 O1    s    0.509400 *  0.234690 *  0.662470 *  -3.73396    1.000000    
     45 O1    s    0.509400 *  0.765310 *  0.662470 *  -3.73396    1.000000    
     46 O2    s    0.490600 *  0.765310 *  0.337530 *  -2.87073    1.000000    
     47 O1    s    0.200440 *  0.174000 *  0.194980 *  -3.73396    1.000000    
     48 O1    s    0.799560 *  0.174000 *  0.805020 *  -3.73396    1.000000    
     49 O1    s    0.799560 *  0.826000 *  0.805020 *  -3.73396    1.000000    
     50 O3    s    0.200440 *  0.826000 *  0.194980 *  -3.33043    1.000000    
     51 O1    s    0.317860 *  0.500000 *  0.649090 *  -3.73396    1.000000    
     52 O2    s    0.682140 *  0.500000 *  0.350910 *  -2.87073    1.000000    
     53 O3    s    0.227920 *  0.173870 *  0.671620 *  -3.33043    1.000000    
     54 O3    s    0.772080 *  0.173870 *  0.328380 *  -3.33043    1.000000    
     55 O3    s    0.772080 *  0.826130 *  0.328380 *  -3.33043    1.000000    
     56 O3    s    0.227920 *  0.826130 *  0.671620 *  -3.33043    1.000000    
     57 O3    s    0.000000 *  0.000000 *  0.500000 *  -3.33043    1.000000    
     58 O1    s    0.971960 *  0.000000 *  0.241930 *  -3.73396    1.000000    
     59 O3    s    0.028040 *  0.000000 *  0.758070 *  -3.33043    1.000000    
     60 O1    s    0.000000 *  0.000000 *  0.000000 *  -3.73396    1.000000    
--------------------------------------------------------------------------------



********************************************************************************
*  General input information                                                   *
********************************************************************************

  Species output for all configurations : 

--------------------------------------------------------------------------------
  Species    Type    Atomic    Atomic    Charge       Radii (Angs)     Library
                     Number     Mass       (e)     Cova   Ionic  VDW   Symbol
--------------------------------------------------------------------------------
    Ge       Core       32      72.61   4.000000   1.170  0.000  1.750 Ge       
    Si       Core       14      28.09   4.000000   1.200  0.000  2.100 Si       
    O1       Core        8      16.00   1.733957   0.730  0.000  1.360 O1       
    O2       Core        8      16.00   0.870733   0.730  0.000  1.360 O2       
    O3       Core        8      16.00   1.330431   0.730  0.000  1.360 O3       
    O1       Shell       8       0.00  -3.733957   0.730  0.000  0.000 O1       
    O2       Shell       8       0.00  -2.870733   0.730  0.000  0.000 O2       
    O3       Shell       8       0.00  -3.330431   0.730  0.000  0.000 O3       
--------------------------------------------------------------------------------


  Lattice summation method               =    Ewald          (3-D)
                                         =    Parry          (2-D)
                                         =    Saunders et al (1-D)
  Accuracy factor for lattice sums       =   12.000


  Analytic derivatives to be used

  Time limit = Infinity

  Maximum range for interatomic potentials =    100000.000000 Angstroms

  General interatomic potentials :

--------------------------------------------------------------------------------
Atom  Types   Potential      Parameter       Value         Units   Cutoffs(Ang)
  1     2                                                            Min /  Max 
--------------------------------------------------------------------------------
Si   c O1   s Buckingham    Buckingham A     1315.2478    eV        0.000 16.000
                            Buckingham rho  0.31775900    Ang       
                            Buckingham C     10.141118    eV*Ang^6  
--------------------------------------------------------------------------------
Si   c O2   s Buckingham    Buckingham A     1315.2478    eV        0.000 16.000
                            Buckingham rho  0.31775900    Ang       
                            Buckingham C     10.141118    eV*Ang^6  
--------------------------------------------------------------------------------
Si   c O3   s Buckingham    Buckingham A     1315.2478    eV        0.000 16.000
                            Buckingham rho  0.31775900    Ang       
                            Buckingham C     10.141118    eV*Ang^6  
--------------------------------------------------------------------------------
Ge   c O1   s Buckingham    Buckingham A     1497.3996    eV        0.000 16.000
                            Buckingham rho  0.32564600    Ang       
                            Buckingham C     16.808599    eV*Ang^6  
--------------------------------------------------------------------------------
Ge   c O2   s Buckingham    Buckingham A     1497.3996    eV        0.000 16.000
                            Buckingham rho  0.32564600    Ang       
                            Buckingham C     16.808599    eV*Ang^6  
--------------------------------------------------------------------------------
Ge   c O3   s Buckingham    Buckingham A     1497.3996    eV        0.000 16.000
                            Buckingham rho  0.32564600    Ang       
                            Buckingham C     16.808599    eV*Ang^6  
--------------------------------------------------------------------------------
O1   s O1   s Buckingham    Buckingham A     22764.000    eV        0.000 16.000
                            Buckingham rho  0.14900000    Ang       
                            Buckingham C     10.937044    eV*Ang^6  
--------------------------------------------------------------------------------
O1   s O2   s Buckingham    Buckingham A     22764.000    eV        0.000 16.000
                            Buckingham rho  0.14900000    Ang       
                            Buckingham C     10.937044    eV*Ang^6  
--------------------------------------------------------------------------------
O1   s O3   s Buckingham    Buckingham A     22764.000    eV        0.000 16.000
                            Buckingham rho  0.14900000    Ang       
                            Buckingham C     10.937044    eV*Ang^6  
--------------------------------------------------------------------------------
O2   s O2   s Buckingham    Buckingham A     22764.000    eV        0.000 16.000
                            Buckingham rho  0.14900000    Ang       
                            Buckingham C     10.937044    eV*Ang^6  
--------------------------------------------------------------------------------
O2   s O3   s Buckingham    Buckingham A     22764.000    eV        0.000 16.000
                            Buckingham rho  0.14900000    Ang       
                            Buckingham C     10.937044    eV*Ang^6  
--------------------------------------------------------------------------------
O3   s O3   s Buckingham    Buckingham A     22764.000    eV        0.000 16.000
                            Buckingham rho  0.14900000    Ang       
                            Buckingham C     10.937044    eV*Ang^6  
--------------------------------------------------------------------------------
O1   c O1   s Spring (c-s)  Spring k 2       180.31577    eV*Ang^-2 0.000  0.800
                            Spring k 4       0.0000000    eV*Ang^-4 
--------------------------------------------------------------------------------
O2   c O2   s Spring (c-s)  Spring k 2       75.969800    eV*Ang^-2 0.000  0.800
                            Spring k 4       0.0000000    eV*Ang^-4 
--------------------------------------------------------------------------------
O3   c O3   s Spring (c-s)  Spring k 2       128.14270    eV*Ang^-2 0.000  0.800
                            Spring k 4       0.0000000    eV*Ang^-4 
--------------------------------------------------------------------------------

  General Three-body potentials :

--------------------------------------------------------------------------------
  Atoms       Potential      Parameter       Value         Units   Cutoffs(Ang)
  1 / 2 / 3                                                          Min /  Max 
--------------------------------------------------------------------------------
Si    core    Harmonic      Three-body cnst  1.2614000    eV*rad^-2 0.000  1.900
O1    shel                  Three-body angl  109.47000    degrees   0.000  1.900
O1    shel                  Three-body k4    0.0000000    eV*rad^-4 0.000  3.500
                            Three-body k3    0.0000000    eV*rad^-3 
--------------------------------------------------------------------------------
Si    core    Harmonic      Three-body cnst  1.2614000    eV*rad^-2 0.000  1.900
O1    shel                  Three-body angl  109.47000    degrees   0.000  1.900
õ(1   shel                  Three-body k4    0.0000000    eV*rad^-4 0.000  3.500
                            Three-body k3    0.0000000    eV*rad^-3 
--------------------------------------------------------------------------------
Si    core    Harmonic      Three-body cnst  1.2614000    eV*rad^-2 0.000  1.900
õ(1   shel                  Three-body angl  109.47000    degrees   0.000  1.900
õ(1   shel                  Three-body k4    0.0000000    eV*rad^-4 0.000  3.500
                            Three-body k3    0.0000000    eV*rad^-3 
--------------------------------------------------------------------------------
Si    core    Harmonic      Three-body cnst  1.2614000    eV*rad^-2 0.000  1.900
O1    shel                  Three-body angl  109.47000    degrees   0.000  1.900
O2    shel                  Three-body k4    0.0000000    eV*rad^-4 0.000  3.500
                            Three-body k3    0.0000000    eV*rad^-3 
--------------------------------------------------------------------------------
Si    core    Harmonic      Three-body cnst  1.2614000    eV*rad^-2 0.000  1.900
O1    shel                  Three-body angl  109.47000    degrees   0.000  1.900
õ(2   shel                  Three-body k4    0.0000000    eV*rad^-4 0.000  3.500
                            Three-body k3    0.0000000    eV*rad^-3 
--------------------------------------------------------------------------------
Si    core    Harmonic      Three-body cnst  1.2614000    eV*rad^-2 0.000  1.900
O2    shel                  Three-body angl  109.47000    degrees   0.000  1.900
õ(1   shel                  Three-body k4    0.0000000    eV*rad^-4 0.000  3.500
                            Three-body k3    0.0000000    eV*rad^-3 
--------------------------------------------------------------------------------
Si    core    Harmonic      Three-body cnst  1.2614000    eV*rad^-2 0.000  1.900
õ(1   shel                  Three-body angl  109.47000    degrees   0.000  1.900
õ(2   shel                  Three-body k4    0.0000000    eV*rad^-4 0.000  3.500
                            Three-body k3    0.0000000    eV*rad^-3 
--------------------------------------------------------------------------------
Si    core    Harmonic      Three-body cnst  1.2614000    eV*rad^-2 0.000  1.900
O2    shel                  Three-body angl  109.47000    degrees   0.000  1.900
O2    shel                  Three-body k4    0.0000000    eV*rad^-4 0.000  3.500
                            Three-body k3    0.0000000    eV*rad^-3 
--------------------------------------------------------------------------------
Si    core    Harmonic      Three-body cnst  1.2614000    eV*rad^-2 0.000  1.900
O2    shel                  Three-body angl  109.47000    degrees   0.000  1.900
õ(2   shel                  Three-body k4    0.0000000    eV*rad^-4 0.000  3.500
                            Three-body k3    0.0000000    eV*rad^-3 
--------------------------------------------------------------------------------
Si    core    Harmonic      Three-body cnst  1.2614000    eV*rad^-2 0.000  1.900
õ(2   shel                  Three-body angl  109.47000    degrees   0.000  1.900
õ(2   shel                  Three-body k4    0.0000000    eV*rad^-4 0.000  3.500
                            Three-body k3    0.0000000    eV*rad^-3 
--------------------------------------------------------------------------------

********************************************************************************
*  Output for configuration   1 : c00057.vasp                                  *
********************************************************************************


  Components of energy : 

--------------------------------------------------------------------------------
  Interatomic potentials     =         432.37864253 eV    
  Three-body potentials      =           0.00000001 eV    
  Monopole - monopole (real) =       -1236.99964305 eV    
  Monopole - monopole (recip)=        -659.26603192 eV    
  Monopole - monopole (total)=       -1896.26567496 eV    
--------------------------------------------------------------------------------
  Total lattice energy       =       -1463.88703242 eV    
--------------------------------------------------------------------------------
  Total lattice energy       =         -141242.7211 kJ/(mole unit cells)
--------------------------------------------------------------------------------


  Number of variables =      183

  Maximum number of calculations  =          1000
  Maximum Hessian update interval =            10
  Maximum step size               =   0.100000000
  Maximum parameter tolerance     =   0.000010000
  Maximum function  tolerance     =   0.000010000
  Maximum gradient  tolerance     =   0.001000000
  Maximum gradient  component     =   0.010000000

  Symmetry not applied to optimisation

  Cell parameters to be optimised using strains

  Newton-Raphson optimiser to be used

  BFGS hessian update to be used

  Lower half triangular hessian to be used

  Minimiser to switch to RFO
  When gradient norm is less than     0.050000

  Dumpfile to be written after every cycle

  Start of bulk optimisation :

  Cycle:      0 Energy:     -1463.887032  Gnorm:      6.275455  CPU:    0.039
  ** Hessian calculated **
  Cycle:      1 Energy:     -1482.795630  Gnorm:      1.703456  CPU:    0.080
  ** Hessian calculated **
  Cycle:      2 Energy:     -1485.116790  Gnorm:      0.912222  CPU:    0.147
  Cycle:      3 Energy:     -1485.889755  Gnorm:      0.506818  CPU:    0.188
  Cycle:      4 Energy:     -1486.423122  Gnorm:      0.417376  CPU:    0.236
  Cycle:      5 Energy:     -1487.036688  Gnorm:      0.353955  CPU:    0.284
  Cycle:      6 Energy:     -1487.476505  Gnorm:      0.277597  CPU:    0.325
  Cycle:      7 Energy:     -1487.688179  Gnorm:      0.221786  CPU:    0.365
  Cycle:      8 Energy:     -1487.783827  Gnorm:      0.150730  CPU:    0.406
  Cycle:      9 Energy:     -1487.823208  Gnorm:      0.116705  CPU:    0.447
  Cycle:     10 Energy:     -1487.853626  Gnorm:      0.103457  CPU:    0.488
  Cycle:     11 Energy:     -1487.886622  Gnorm:      0.100850  CPU:    0.537
  ** Hessian calculated **
  Cycle:     12 Energy:     -1487.908369  Gnorm:      0.097556  CPU:    0.612
  Cycle:     13 Energy:     -1487.942601  Gnorm:      0.092035  CPU:    0.668
  Cycle:     14 Energy:     -1487.964665  Gnorm:      0.088037  CPU:    0.716
  ** Hessian calculated **
  Cycle:     15 Energy:     -1488.005057  Gnorm:      0.081124  CPU:    0.791
  Cycle:     16 Energy:     -1488.066077  Gnorm:      0.068775  CPU:    0.839
  Cycle:     17 Energy:     -1488.155742  Gnorm:      0.044523  CPU:    0.887
  ** Hessian has wrong structure
  ** Imaginary eigenvectors =   2
  Cycle:     18 Energy:     -1488.178723  Gnorm:      0.190169  CPU:    0.988
  ** Hessian has wrong structure
  ** Imaginary eigenvectors =   2
  ** Hessian has wrong structure
  ** Imaginary eigenvectors =   2
  Cycle:     19 Energy:     -1488.255059  Gnorm:      0.210401  CPU:    1.142
  ** Hessian has wrong structure
  ** Imaginary eigenvectors =   1
  ** Hessian has required structure
  Cycle:     20 Energy:     -1488.396266  Gnorm:      0.113910  CPU:    1.262
  ** Hessian has required structure
  Cycle:     21 Energy:     -1488.448506  Gnorm:      0.066524  CPU:    1.318
  ** Hessian has required structure
  Cycle:     22 Energy:     -1488.475571  Gnorm:      0.041208  CPU:    1.374
  ** Hessian has required structure
  Cycle:     23 Energy:     -1488.493791  Gnorm:      0.030171  CPU:    1.430
  ** Hessian has required structure
  Cycle:     24 Energy:     -1488.502325  Gnorm:      0.038922  CPU:    1.479
  ** Hessian has required structure
  Cycle:     25 Energy:     -1488.508387  Gnorm:      0.029330  CPU:    1.519
  ** Hessian has required structure
  Cycle:     26 Energy:     -1488.513689  Gnorm:      0.026731  CPU:    1.575
  ** Hessian has required structure
  Cycle:     27 Energy:     -1488.517027  Gnorm:      0.025236  CPU:    1.631
  ** Hessian has required structure
  Cycle:     28 Energy:     -1488.520036  Gnorm:      0.019067  CPU:    1.688
  ** Hessian has required structure
  Cycle:     29 Energy:     -1488.522959  Gnorm:      0.012964  CPU:    1.736
  ** Hessian has required structure
  Cycle:     30 Energy:     -1488.529263  Gnorm:      0.013037  CPU:    1.819
  ** Hessian has required structure
  Cycle:     31 Energy:     -1488.534553  Gnorm:      0.024206  CPU:    1.868
  ** Hessian has required structure
  Cycle:     32 Energy:     -1488.540241  Gnorm:      0.033851  CPU:    1.916
  ** Hessian has required structure
  Cycle:     33 Energy:     -1488.547552  Gnorm:      0.031866  CPU:    1.972
  ** Hessian has required structure
  Cycle:     34 Energy:     -1488.554718  Gnorm:      0.044176  CPU:    2.028
  ** Hessian has required structure
  Cycle:     35 Energy:     -1488.569772  Gnorm:      0.041636  CPU:    2.085
  ** Hessian has required structure
  Cycle:     36 Energy:     -1488.585550  Gnorm:      0.026663  CPU:    2.142
  ** Hessian has required structure
  Cycle:     37 Energy:     -1488.594484  Gnorm:      0.039333  CPU:    2.199
  ** Hessian has required structure
  Cycle:     38 Energy:     -1488.604934  Gnorm:      0.025098  CPU:    2.255
  ** Hessian has required structure
  Cycle:     39 Energy:     -1488.610651  Gnorm:      0.027386  CPU:    2.304
  ** Hessian has required structure
  Cycle:     40 Energy:     -1488.619015  Gnorm:      0.018152  CPU:    2.387
  ** Hessian has required structure
  Cycle:     41 Energy:     -1488.623633  Gnorm:      0.015080  CPU:    2.452
  ** Hessian has required structure
  Cycle:     42 Energy:     -1488.627826  Gnorm:      0.009764  CPU:    2.536
  ** Hessian has required structure
  Cycle:     43 Energy:     -1488.630724  Gnorm:      0.011561  CPU:    2.619
  ** Hessian has required structure
  Cycle:     44 Energy:     -1488.633326  Gnorm:      0.004952  CPU:    2.689
  ** Hessian has required structure
  Cycle:     45 Energy:     -1488.634678  Gnorm:      0.009456  CPU:    2.771
  ** Hessian has required structure
  Cycle:     46 Energy:     -1488.635615  Gnorm:      0.007237  CPU:    2.888
  ** Hessian has required structure
  Cycle:     47 Energy:     -1488.636358  Gnorm:      0.005840  CPU:    2.973
  ** Hessian has required structure
  Cycle:     48 Energy:     -1488.636822  Gnorm:      0.002564  CPU:    3.044
  ** Hessian has required structure
  Cycle:     49 Energy:     -1488.637067  Gnorm:      0.003009  CPU:    3.115
  ** Hessian has required structure
  Cycle:     50 Energy:     -1488.637296  Gnorm:      0.001737  CPU:    3.230
  ** Hessian has required structure
  Cycle:     51 Energy:     -1488.637374  Gnorm:      0.001101  CPU:    3.314
  ** Hessian has required structure
  Cycle:     52 Energy:     -1488.637408  Gnorm:      0.000636  CPU:    3.397
  ** Hessian has required structure
  Cycle:     53 Energy:     -1488.637421  Gnorm:      0.000361  CPU:    3.480
  ** Hessian has required structure
  Cycle:     54 Energy:     -1488.637426  Gnorm:      0.000259  CPU:    3.539
  ** Hessian has required structure
  Cycle:     55 Energy:     -1488.637426  Gnorm:      0.000258  CPU:    3.599
  ** Hessian has required structure
  Cycle:     56 Energy:     -1488.637426  Gnorm:      0.000257  CPU:    3.658
  ** Hessian has required structure
  Cycle:     57 Energy:     -1488.637426  Gnorm:      0.000257  CPU:    3.718
  ** Hessian has required structure
  Cycle:     58 Energy:     -1488.637426  Gnorm:      0.000257  CPU:    3.777
  ** Hessian has required structure
  Cycle:     59 Energy:     -1488.637426  Gnorm:      0.000256  CPU:    3.836
  ** Hessian has required structure
  Cycle:     60 Energy:     -1488.637426  Gnorm:      0.000256  CPU:    3.962
  ** Hessian calculated **


  **** Optimisation achieved ****


  Final energy =   -1488.63742596 eV      
  Final Gnorm  =       0.00025615

  Components of energy : 

--------------------------------------------------------------------------------
  Interatomic potentials     =         395.73319908 eV    
  Three-body potentials      =           0.00439467 eV    
  Monopole - monopole (real) =        -665.12133770 eV    
  Monopole - monopole (recip)=       -1219.25368201 eV    
  Monopole - monopole (total)=       -1884.37501971 eV    
--------------------------------------------------------------------------------
  Total lattice energy       =       -1488.63742596 eV    
--------------------------------------------------------------------------------
  Total lattice energy       =         -143630.7557 kJ/(mole unit cells)
--------------------------------------------------------------------------------

  Final fractional coordinates of atoms :

--------------------------------------------------------------------------------
   No.  Atomic        x           y          z          Radius
        Label       (Frac)      (Frac)     (Frac)       (Angs) 
--------------------------------------------------------------------------------
     1  Ge    c     0.313820    0.296860    0.309830    0.000000
     2  Ge    c     0.706288    0.254370    0.713429    0.000000
     3  Ge    c     0.665052    0.681439    0.723180    0.000000
     4  Ge    c     0.342644    0.207621    0.636405    0.000000
     5  Ge    c     0.324112    0.609350    0.644955    0.000000
     6  Ge    c     0.864659    0.035129    0.345684    0.000000
     7  Ge    c     0.098451    0.994205    0.180766    0.000000
     8  Ge    c     0.930171    0.934225    0.863569    0.000000
     9  Si    c     0.317109    0.677383    0.333798    0.000000
    10  Si    c     0.676707    0.325687    0.400471    0.000000
    11  Si    c     0.650776    0.732411    0.407650    0.000000
    12  Si    c     0.110426    0.920369    0.642637    0.000000
    13  O1    c     0.276629    0.217332    0.457700    0.000000
    14  O3    c     0.737173    0.237058    0.557177    0.000000
    15  O3    c     0.680042    0.772085    0.564935    0.000000
    16  O3    c     0.364824    0.583487    0.491951    0.000000
    17  O3    c     0.260504    0.514454    0.246883    0.000000
    18  O1    c     0.707275    0.462686    0.752583    0.000000
    19  O3    c     0.503100    0.281713    0.330776    0.000000
    20  O1    c     0.533300    0.164392    0.698190    0.000000
    21  O1    c     0.487236    0.703101    0.736544    0.000000
    22  O2    c     0.472648    0.760466    0.318011    0.000000
    23  O1    c     0.207201    0.174312    0.184880    0.000000
    24  O1    c     0.852322    0.140452    0.835487    0.000000
    25  O1    c     0.786922    0.789049    0.848711    0.000000
    26  O3    c     0.195948    0.828997    0.307303    0.000000
    27  O1    c     0.303588    0.395677    0.698040    0.000000
    28  O2    c     0.700666    0.533296    0.403224    0.000000
    29  O3    c     0.254974    0.037467    0.702986    0.000000
    30  O3    c     0.772897    0.235798    0.321076    0.000000
    31  O3    c     0.744260    0.862137    0.337792    0.000000
    32  O3    c     0.164453    0.728606    0.623775    0.000000
    33  O3    c     0.015396    0.019588    0.495627    0.000000
    34  O1    c     0.932508    0.035744    0.209314    0.000000
    35  O3    c     0.013411    0.886886    0.743567    0.000000
    36  O1    c     0.062297    0.912989    0.024187    0.000000
    37  O1    s     0.284169    0.222590    0.459499    0.000000
    38  O3    s     0.729016    0.246770    0.554083    0.000000
    39  O3    s     0.676122    0.761625    0.561708    0.000000
    40  O3    s     0.358207    0.592807    0.488927    0.000000
    41  O3    s     0.269770    0.514586    0.259797    0.000000
    42  O1    s     0.703876    0.462683    0.747065    0.000000
    43  O3    s     0.504804    0.287391    0.336025    0.000000
    44  O1    s     0.531829    0.174272    0.694687    0.000000
    45  O1    s     0.487663    0.694448    0.728668    0.000000
    46  O2    s     0.474935    0.749563    0.328324    0.000000
    47  O1    s     0.206985    0.169820    0.194108    0.000000
    48  O1    s     0.846937    0.133804    0.828255    0.000000
    49  O1    s     0.788208    0.791556    0.839970    0.000000
    50  O3    s     0.201339    0.825473    0.300806    0.000000
    51  O1    s     0.307924    0.398333    0.689686    0.000000
    52  O2    s     0.692999    0.532105    0.403354    0.000000
    53  O3    s     0.247762    0.039267    0.692026    0.000000
    54  O3    s     0.770526    0.229204    0.330807    0.000000
    55  O3    s     0.744304    0.862688    0.345759    0.000000
    56  O3    s     0.172957    0.736312    0.627259    0.000000
    57  O3    s     0.012179    0.011147    0.497565    0.000000
    58  O1    s     0.939986    0.032507    0.217521    0.000000
    59  O3    s     0.016775    0.894354    0.742802    0.000000
    60  O1    s     0.054768    0.920832    0.023626    0.000000
--------------------------------------------------------------------------------

  Final Cartesian lattice vectors (Angstroms) :

        9.359368   -0.051257    0.031272
       -0.058795    7.703863    0.388923
       -3.328946    0.526050    9.672641


  Final cell parameters and derivatives :

--------------------------------------------------------------------------------
       a            9.359561 Angstrom     dE/de1(xx)     0.016766 eV/strain
       b            7.713898 Angstrom     dE/de2(yy)     0.012734 eV/strain
       c           10.242978 Angstrom     dE/de3(zz)     0.015730 eV/strain
       alpha       84.181435 Degrees      dE/de4(yz)    -0.000325 eV/strain
       beta       108.791017 Degrees      dE/de5(xz)    -0.000716 eV/strain
       gamma       90.740432 Degrees      dE/de6(xy)    -0.001624 eV/strain
--------------------------------------------------------------------------------

  Primitive cell volume =           696.352654 Angs**3

  Density of cell =      2.568853 g/cm**3

  Non-primitive cell volume =           696.352654 Angs**3


  Final internal derivatives :

--------------------------------------------------------------------------------
   No.  Atomic          a             b             c           Radius
        Label          (eV)          (eV)          (eV)        (eV/Angs)
--------------------------------------------------------------------------------
      1 Ge    c       0.000000      0.000000      0.000000      0.000000
      2 Ge    c       0.000122      0.000622      0.007147      0.000000
      3 Ge    c       0.000838      0.005657     -0.003271      0.000000
      4 Ge    c      -0.005090     -0.000465      0.000974      0.000000
      5 Ge    c       0.000140     -0.000294     -0.003083      0.000000
      6 Ge    c      -0.003391      0.000307     -0.002384      0.000000
      7 Ge    c       0.000327      0.000571     -0.001273      0.000000
      8 Ge    c      -0.007016      0.001097      0.005790      0.000000
      9 Si    c       0.001153     -0.001123      0.000457      0.000000
     10 Si    c       0.003547      0.002605     -0.004935      0.000000
     11 Si    c       0.000110     -0.001170      0.000222      0.000000
     12 Si    c       0.009615      0.002106     -0.001345      0.000000
     13 O1    c      -0.004349     -0.001053      0.002775      0.000000
     14 O3    c       0.010115     -0.003726     -0.008902      0.000000
     15 O3    c      -0.000579     -0.000372      0.000809      0.000000
     16 O3    c       0.002523     -0.001751     -0.000526      0.000000
     17 O3    c      -0.000379      0.001531     -0.001186      0.000000
     18 O1    c      -0.000349     -0.008081      0.003869      0.000000
     19 O3    c       0.003714     -0.003429     -0.002369      0.000000
     20 O1    c      -0.003170     -0.008027      0.000909      0.000000
     21 O1    c      -0.000762      0.002620      0.004126      0.000000
     22 O2    c      -0.000416     -0.000264     -0.000305      0.000000
     23 O1    c       0.000019      0.000054      0.000441      0.000000
     24 O1    c       0.000034      0.001620      0.001945      0.000000
     25 O1    c       0.000639      0.000351      0.002633      0.000000
     26 O3    c       0.000780      0.001379     -0.000234      0.000000
     27 O1    c      -0.002463      0.001337      0.003638      0.000000
     28 O2    c       0.000348      0.001878      0.001884      0.000000
     29 O3    c      -0.000989     -0.000436     -0.000011      0.000000
     30 O3    c      -0.000612     -0.000055      0.001171      0.000000
     31 O3    c       0.000512      0.000017      0.000357      0.000000
     32 O3    c       0.000398     -0.008051     -0.001972      0.000000
     33 O3    c       0.002304      0.003962     -0.009697      0.000000
     34 O1    c      -0.001495      0.000282     -0.000208      0.000000
     35 O3    c      -0.007482     -0.004794      0.000280      0.000000
     36 O1    c       0.003785      0.000270      0.007799      0.000000
     37 O1    s      -0.000680     -0.001822     -0.001526      0.000000
     38 O3    s       0.002969     -0.002419      0.002417      0.000000
     39 O3    s       0.001711      0.003624     -0.001734      0.000000
     40 O3    s      -0.003340      0.002257      0.000847      0.000000
     41 O3    s      -0.001928      0.001079     -0.002776      0.000000
     42 O1    s       0.002386      0.006044      0.002426      0.000000
     43 O3    s      -0.001718     -0.002027     -0.003816      0.000000
     44 O1    s      -0.001148     -0.000040     -0.000054      0.000000
     45 O1    s      -0.002912      0.000511      0.000715      0.000000
     46 O2    s       0.000556      0.001153     -0.001882      0.000000
     47 O1    s      -0.001062     -0.000975     -0.001306      0.000000
     48 O1    s       0.000728      0.001082      0.001916      0.000000
     49 O1    s      -0.001814     -0.000359      0.000931      0.000000
     50 O3    s      -0.001551      0.000408      0.001883      0.000000
     51 O1    s       0.000313      0.000412      0.002108      0.000000
     52 O2    s       0.003353      0.001791     -0.003160      0.000000
     53 O3    s       0.003175      0.001607      0.002003      0.000000
     54 O3    s       0.001544     -0.000369     -0.002762      0.000000
     55 O3    s      -0.000718      0.000205     -0.000466      0.000000
     56 O3    s       0.003279      0.000082     -0.001053      0.000000
     57 O3    s      -0.001808      0.001399     -0.000732      0.000000
     58 O1    s       0.001234     -0.000569     -0.000144      0.000000
     59 O3    s       0.000712      0.001904      0.004026      0.000000
     60 O1    s      -0.000115     -0.001105     -0.002330      0.000000
--------------------------------------------------------------------------------
  Maximum abs         0.010115      0.008081      0.009697      0.000000
--------------------------------------------------------------------------------


  Born effective charge tensors : 

-------------------------------------------------------------------------------
  Atom             x           y             z
-------------------------------------------------------------------------------
    1 Ge    x       3.8003      0.3564      0.2029
            y       0.3310      4.2264      0.2535
            z       0.1469      0.2662      3.6073
-------------------------------------------------------------------------------
    2 Ge    x       3.9237     -0.1040      0.3155
            y      -0.3112      4.2127     -0.2296
            z       0.2942     -0.0701      3.6524
-------------------------------------------------------------------------------
    3 Ge    x       3.9787      0.2565      0.2699
            y       0.1910      4.1564      0.3584
            z       0.2615      0.1567      3.6732
-------------------------------------------------------------------------------
    4 Ge    x       4.0624      0.2851     -0.0723
            y       0.1651      4.2039      0.1016
            z       0.1333      0.0446      3.4085
-------------------------------------------------------------------------------
    5 Ge    x       4.0553     -0.0755      0.1739
            y      -0.2839      4.1861     -0.1356
            z      -0.1697      0.2197      3.1766
-------------------------------------------------------------------------------
    6 Ge    x       4.4989     -0.1121     -0.2026
            y      -0.0308      3.9377      0.0312
            z      -0.3143      0.0879      3.6470
-------------------------------------------------------------------------------
    7 Ge    x       4.1083     -0.0516      0.3151
            y       0.1361      3.9522     -0.1375
            z      -0.1180      0.5913      4.4647
-------------------------------------------------------------------------------
    8 Ge    x       4.0120     -0.2242     -0.0471
            y       0.1713      3.8785      0.1261
            z       0.5777      0.0802      4.6534
-------------------------------------------------------------------------------
    9 Si    x       3.3223     -0.2593      0.0467
            y      -0.4243      3.8882      0.1335
            z       0.4399     -0.2733      3.0572
-------------------------------------------------------------------------------
   10 Si    x       3.7723     -0.2651     -0.0649
            y      -0.4342      3.6766      0.2624
            z       0.0737      0.0188      3.1278
-------------------------------------------------------------------------------
   11 Si    x       3.5405      0.4356     -0.1683
            y       0.4107      3.6017     -0.0937
            z      -0.1494      0.0819      3.0627
-------------------------------------------------------------------------------
   12 Si    x       4.1945     -0.2116     -0.0179
            y       0.1216      3.6929      0.1706
            z      -0.3748     -0.2312      3.3634
-------------------------------------------------------------------------------
   13 O1    x      -1.5601     -0.2351      0.4158
            y      -0.2258     -1.5481      0.1631
            z       0.3187      0.1811     -2.5560
-------------------------------------------------------------------------------
   14 O3    x      -1.3954      0.1020      0.2580
            y       0.1110     -1.5111      0.2843
            z       0.2489      0.2412     -2.4049
-------------------------------------------------------------------------------
   15 O3    x      -1.4077     -0.1257      0.2863
            y      -0.0941     -1.4442     -0.1277
            z       0.3255     -0.0472     -2.4886
-------------------------------------------------------------------------------
   16 O3    x      -1.4884      0.0210      0.3440
            y       0.0863     -1.5280      0.1903
            z       0.3115      0.2182     -2.3181
-------------------------------------------------------------------------------
   17 O3    x      -1.2444      0.0045     -0.1039
            y       0.0074     -2.7857     -0.2983
            z      -0.1612     -0.2761     -1.4427
-------------------------------------------------------------------------------
   18 O1    x      -1.3316      0.1997     -0.0543
            y       0.2796     -3.3443     -0.1442
            z      -0.0600     -0.1104     -1.3551
-------------------------------------------------------------------------------
   19 O3    x      -2.8504     -0.1575     -0.5060
            y      -0.0919     -1.4223     -0.1237
            z      -0.5164     -0.1112     -1.3004
-------------------------------------------------------------------------------
   20 O1    x      -3.0496     -0.2047     -0.4411
            y      -0.1822     -1.5600      0.0134
            z      -0.4446      0.0016     -1.3364
-------------------------------------------------------------------------------
   21 O1    x      -2.8430     -0.2330     -0.3645
            y      -0.1166     -1.4943     -0.1720
            z      -0.3636     -0.2195     -1.4845
-------------------------------------------------------------------------------
   22 O2    x      -2.1674     -0.1436     -0.2816
            y      -0.0910     -1.2918      0.0332
            z      -0.2995      0.0483     -1.1786
-------------------------------------------------------------------------------
   23 O1    x      -1.7942     -0.7726     -0.4600
            y      -0.8054     -2.5098     -0.6059
            z      -0.4451     -0.7365     -1.9023
-------------------------------------------------------------------------------
   24 O1    x      -1.8262      0.7673     -0.4770
            y       0.7512     -2.4433      0.5961
            z      -0.5634      0.5811     -1.9241
-------------------------------------------------------------------------------
   25 O1    x      -2.0930     -0.7642     -0.5054
            y      -0.8717     -2.1470     -0.6346
            z      -0.5987     -0.5861     -1.9848
-------------------------------------------------------------------------------
   26 O3    x      -1.8474      0.8337     -0.3769
            y       0.8113     -2.3251      0.5230
            z      -0.3930      0.5435     -1.5743
-------------------------------------------------------------------------------
   27 O1    x      -1.4465      0.0321      0.1436
            y       0.1000     -3.1684     -0.0874
            z       0.1708     -0.0917     -1.3378
-------------------------------------------------------------------------------
   28 O2    x      -1.2563      0.0889      0.0195
            y       0.1458     -2.5194     -0.1193
            z       0.0213     -0.0847     -1.0245
-------------------------------------------------------------------------------
   29 O3    x      -2.2664     -0.9091     -0.1027
            y      -0.9028     -2.1621     -0.0780
            z      -0.0483     -0.0227     -1.2879
-------------------------------------------------------------------------------
   30 O3    x      -2.1983      0.9550      0.4062
            y       0.9006     -2.2850     -0.3002
            z       0.3462     -0.2444     -1.3490
-------------------------------------------------------------------------------
   31 O3    x      -2.3286     -1.0693      0.2769
            y      -1.0466     -2.3218      0.2486
            z       0.2574      0.1882     -1.2461
-------------------------------------------------------------------------------
   32 O3    x      -2.1365      0.9487      0.0187
            y       0.8785     -2.4476     -0.1061
            z       0.1674     -0.1524     -1.1391
-------------------------------------------------------------------------------
   33 O3    x      -1.8120      0.2067     -0.7293
            y       0.0929     -1.3933      0.2849
            z      -0.4638      0.3741     -2.3419
-------------------------------------------------------------------------------
   34 O1    x      -2.9570      0.2742      0.8154
            y       0.2006     -1.3304     -0.0433
            z       0.9019     -0.1613     -2.0839
-------------------------------------------------------------------------------
   35 O3    x      -2.5382      0.0908      1.0330
            y       0.0072     -1.2461     -0.0982
            z       0.9290     -0.0461     -2.0896
-------------------------------------------------------------------------------
   36 O1    x      -1.4305      0.0601     -0.3652
            y       0.0131     -1.3842     -0.2390
            z      -0.4416     -0.4598     -3.7434
-------------------------------------------------------------------------------




  Elastic Constant Matrix: (Units=GPa)

-------------------------------------------------------------------------------
  Indices      1         2         3         4         5         6    
-------------------------------------------------------------------------------
       1     46.5475   24.6850   14.2302    3.5478    3.2908   -9.7421
       2     24.6850   48.1090   11.3514    5.2740    5.7853   -3.1598
       3     14.2302   11.3514   23.6916    7.8008    6.0236    3.3532
       4      3.5478    5.2740    7.8008    9.8515    3.8684    4.7539
       5      3.2908    5.7853    6.0236    3.8684    7.7926    5.3489
       6     -9.7421   -3.1598    3.3532    4.7539    5.3489   18.3625
-------------------------------------------------------------------------------


  Elastic Compliance Matrix: (Units=1/GPa)

-------------------------------------------------------------------------------
  Indices      1         2         3         4         5         6    
-------------------------------------------------------------------------------
       1    0.040429 -0.013343 -0.018633 -0.001224 -0.009820  0.025734
       2   -0.013343  0.030961 -0.001059 -0.006851 -0.016598  0.005051
       3   -0.018633 -0.001059  0.073759 -0.038240 -0.025018 -0.006350
       4   -0.001224 -0.006851 -0.038240  0.159356 -0.023955 -0.029123
       5   -0.009820 -0.016598 -0.025018 -0.023955  0.217697 -0.060710
       6    0.025734  0.005051 -0.006350 -0.029123 -0.060710  0.095364
-------------------------------------------------------------------------------

  Mechanical properties :

-------------------------------------------------------------------------------
  Convention :                    Reuss         Voigt         Hill
-------------------------------------------------------------------------------
  Bulk  Modulus (GPa)     =      12.64558      24.32015      18.48286
  Shear Modulus (GPa)     =       7.04229      11.74009       9.39119
-------------------------------------------------------------------------------
  Velocity S-wave (km/s)  =       1.65572       2.13779       1.91201
  Velocity P-wave (km/s)  =       2.92880       3.94473       3.47410
-------------------------------------------------------------------------------
  Compressibility (1/GPa) =    0.07907902
-------------------------------------------------------------------------------
  Stress axis :                     x             y             z
-------------------------------------------------------------------------------
  Youngs Moduli (GPa)     =      24.73460      32.29862      13.55772
-------------------------------------------------------------------------------
  Poissons Ratio (x)      =                     0.43095       0.25262
  Poissons Ratio (y)      =       0.33003                     0.01436
  Poissons Ratio (z)      =       0.46088       0.03421
-------------------------------------------------------------------------------


  Piezoelectric Strain Matrix: (Units=C/m**2)

-------------------------------------------------------------------------------
  Indices      1         2         3         4         5         6    
-------------------------------------------------------------------------------
       x    -1.28231  -2.38560   1.23475  -0.20826   0.29746   1.42150
       y    -0.08956  -0.54073  -0.03839  -0.21226   0.18025   0.16649
       z    -1.27237  -1.31241  -1.58979  -1.36789   1.85927   0.46273
-------------------------------------------------------------------------------


  Piezoelectric Stress Matrix: (Units=10**-11 C/N)

-------------------------------------------------------------------------------
  Indices      1         2         3         4         5         6    
-------------------------------------------------------------------------------
       x    -0.91057  -5.43899  10.89899 -11.10147   0.47456   7.06785
       y     0.70837  -1.62028   0.19600  -3.77091   4.50311   0.63245
       z    -0.89840  -4.11256  -8.93070 -20.46544  48.34861  -5.81885
-------------------------------------------------------------------------------


  Static dielectric constant tensor : 

-------------------------------------------------------------------------------
              x         y         z
-------------------------------------------------------------------------------
       x     5.60739   0.34967   0.53570
       y     0.34967   5.39160   0.45866
       z     0.53570   0.45866   4.63714
--------------------------------------------------------------------------------

  High frequency dielectric constant tensor : 

-------------------------------------------------------------------------------
              x         y         z
-------------------------------------------------------------------------------
       x     1.57964  -0.00145   0.00659
       y    -0.00145   1.58396   0.00718
       z     0.00659   0.00718   1.52869
-------------------------------------------------------------------------------

  Static refractive indices : 

-------------------------------------------------------------------------------
    1 =    2.07723      2 =    2.26622      3 =    2.48706
-------------------------------------------------------------------------------

  High frequency refractive indices : 

-------------------------------------------------------------------------------
    1 =    1.23568      2 =    1.25715      3 =    1.25895
-------------------------------------------------------------------------------


  Time to end of optimisation =       4.1428 seconds


  Peak dynamic memory used =       2.76 MB 


  Timing analysis for GULP :

--------------------------------------------------------------------------------
  Task / Subroutine                                          Time (Seconds)
--------------------------------------------------------------------------------
  Calculation of reciprocal space energy and derivatives          0.2360
  Calculation of real space energy and derivatives                3.4754
  Calculation of three-body energy and derivatives                0.0401
  Calculation and manipulation of Hessian matrix                  0.4996
  Calculation of matrix inversion                                 0.0043
  Global summation overhead                                       0.0001
--------------------------------------------------------------------------------
  Total CPU time                                                  4.1428
--------------------------------------------------------------------------------


  Dump file written as c00057.vasp.grs
  CIF file written as c00057.vasp.cif


  Job Finished at 11:40.06 22nd October    2025                               

