********************************************************************************
*                       GENERAL UTILITY LATTICE PROGRAM                        *
*                                 Julian Gale                                  *
*                       Curtin Institute for Computation                       *
*                    School of Molecular and Life Sciences                     *
*                    Curtin University, Western Australia                      *
********************************************************************************
* Version = 6.1.2 * Last modified =   3rd November 2022                        *
********************************************************************************
*  optimise     - perform optimisation run                                     *
*  conp         - constant pressure calculation                                *
*  property     - calculate properties for final geometry                      *
********************************************************************************

  Job Started  at 11:38.32 22nd October    2025                               

  Number of CPUs =     1


  Total number of configurations input =      1

********************************************************************************
*  Input for Configuration =   1 : c00037.vasp                                 *
********************************************************************************

  Formula = Ge8Si4O24                                                   

  Number of irreducible atoms/shells =      60


  Total number atoms/shells =      60

  Dimensionality = 3               :  Bulk   



  Cartesian lattice vectors (Angstroms) :

        9.086940    0.000000    0.000000
        0.000000    7.554810    0.000000
       -3.295144    0.000000    9.944380

  Cell parameters (Angstroms/Degrees):

  a =       9.0869    alpha =  90.0000
  b =       7.5548    beta  = 108.3330
  c =      10.4761    gamma =  90.0000

  Initial cell volume =         682.682735 Angs**3

  Temperature of configuration =   0.00     K 

  Pressure of configuration =         0.000 GPa 

  Fractional coordinates of asymmetric unit :

--------------------------------------------------------------------------------
   No.  Atomic       x           y          z         Charge      Occupancy
        Label      (Frac)      (Frac)     (Frac)        (e)         (Frac)  
--------------------------------------------------------------------------------
      1 Ge    c    0.313820    0.296860    0.309830     4.00000    1.000000    
      2 Ge    c    0.686180 *  0.296860 *  0.690170 *   4.00000    1.000000    
      3 Ge    c    0.686180 *  0.703140 *  0.690170 *   4.00000    1.000000    
      4 Ge    c    0.331050 *  0.296920 *  0.607380 *   4.00000    1.000000    
      5 Ge    c    0.668950 *  0.296920 *  0.392620 *   4.00000    1.000000    
      6 Ge    c    0.331050 *  0.703080 *  0.607380 *   4.00000    1.000000    
      7 Ge    c    0.879680 *  0.000000 *  0.350160 *   4.00000    1.000000    
      8 Ge    c    0.906930 *  0.000000 *  0.841770 *   4.00000    1.000000    
      9 Si    c    0.313820 *  0.703140 *  0.309830 *   4.00000    1.000000    
     10 Si    c    0.668950 *  0.703080 *  0.392620 *   4.00000    1.000000    
     11 Si    c    0.120320 *  0.000000 *  0.649840 *   4.00000    1.000000    
     12 Si    c    0.093070 *  0.000000 *  0.158230 *   4.00000    1.000000    
     13 O1    c    0.268740 *  0.279030 *  0.446100 *   1.73396    1.000000    
     14 O1    c    0.731260 *  0.279030 *  0.553900 *   1.73396    1.000000    
     15 O3    c    0.731260 *  0.720970 *  0.553900 *   1.33043    1.000000    
     16 O3    c    0.268740 *  0.720970 *  0.446100 *   1.33043    1.000000    
     17 O3    c    0.295480 *  0.500000 *  0.260860 *   1.33043    1.000000    
     18 O1    c    0.704520 *  0.500000 *  0.739140 *   1.73396    1.000000    
     19 O1    c    0.490600 *  0.234690 *  0.337530 *   1.73396    1.000000    
     20 O1    c    0.509400 *  0.234690 *  0.662470 *   1.73396    1.000000    
     21 O1    c    0.509400 *  0.765310 *  0.662470 *   1.73396    1.000000    
     22 O2    c    0.490600 *  0.765310 *  0.337530 *   0.87073    1.000000    
     23 O3    c    0.200440 *  0.174000 *  0.194980 *   1.33043    1.000000    
     24 O1    c    0.799560 *  0.174000 *  0.805020 *   1.73396    1.000000    
     25 O1    c    0.799560 *  0.826000 *  0.805020 *   1.73396    1.000000    
     26 O2    c    0.200440 *  0.826000 *  0.194980 *   0.87073    1.000000    
     27 O1    c    0.317860 *  0.500000 *  0.649090 *   1.73396    1.000000    
     28 O3    c    0.682140 *  0.500000 *  0.350910 *   1.33043    1.000000    
     29 O3    c    0.227920 *  0.173870 *  0.671620 *   1.33043    1.000000    
     30 O1    c    0.772080 *  0.173870 *  0.328380 *   1.73396    1.000000    
     31 O3    c    0.772080 *  0.826130 *  0.328380 *   1.33043    1.000000    
     32 O3    c    0.227920 *  0.826130 *  0.671620 *   1.33043    1.000000    
     33 O3    c    0.000000 *  0.000000 *  0.500000 *   1.33043    1.000000    
     34 O3    c    0.971960 *  0.000000 *  0.241930 *   1.33043    1.000000    
     35 O3    c    0.028040 *  0.000000 *  0.758070 *   1.33043    1.000000    
     36 O3    c    0.000000 *  0.000000 *  0.000000 *   1.33043    1.000000    
     37 O1    s    0.268740 *  0.279030 *  0.446100 *  -3.73396    1.000000    
     38 O1    s    0.731260 *  0.279030 *  0.553900 *  -3.73396    1.000000    
     39 O3    s    0.731260 *  0.720970 *  0.553900 *  -3.33043    1.000000    
     40 O3    s    0.268740 *  0.720970 *  0.446100 *  -3.33043    1.000000    
     41 O3    s    0.295480 *  0.500000 *  0.260860 *  -3.33043    1.000000    
     42 O1    s    0.704520 *  0.500000 *  0.739140 *  -3.73396    1.000000    
     43 O1    s    0.490600 *  0.234690 *  0.337530 *  -3.73396    1.000000    
     44 O1    s    0.509400 *  0.234690 *  0.662470 *  -3.73396    1.000000    
     45 O1    s    0.509400 *  0.765310 *  0.662470 *  -3.73396    1.000000    
     46 O2    s    0.490600 *  0.765310 *  0.337530 *  -2.87073    1.000000    
     47 O3    s    0.200440 *  0.174000 *  0.194980 *  -3.33043    1.000000    
     48 O1    s    0.799560 *  0.174000 *  0.805020 *  -3.73396    1.000000    
     49 O1    s    0.799560 *  0.826000 *  0.805020 *  -3.73396    1.000000    
     50 O2    s    0.200440 *  0.826000 *  0.194980 *  -2.87073    1.000000    
     51 O1    s    0.317860 *  0.500000 *  0.649090 *  -3.73396    1.000000    
     52 O3    s    0.682140 *  0.500000 *  0.350910 *  -3.33043    1.000000    
     53 O3    s    0.227920 *  0.173870 *  0.671620 *  -3.33043    1.000000    
     54 O1    s    0.772080 *  0.173870 *  0.328380 *  -3.73396    1.000000    
     55 O3    s    0.772080 *  0.826130 *  0.328380 *  -3.33043    1.000000    
     56 O3    s    0.227920 *  0.826130 *  0.671620 *  -3.33043    1.000000    
     57 O3    s    0.000000 *  0.000000 *  0.500000 *  -3.33043    1.000000    
     58 O3    s    0.971960 *  0.000000 *  0.241930 *  -3.33043    1.000000    
     59 O3    s    0.028040 *  0.000000 *  0.758070 *  -3.33043    1.000000    
     60 O3    s    0.000000 *  0.000000 *  0.000000 *  -3.33043    1.000000    
--------------------------------------------------------------------------------



********************************************************************************
*  General input information                                                   *
********************************************************************************

  Species output for all configurations : 

--------------------------------------------------------------------------------
  Species    Type    Atomic    Atomic    Charge       Radii (Angs)     Library
                     Number     Mass       (e)     Cova   Ionic  VDW   Symbol
--------------------------------------------------------------------------------
    Ge       Core       32      72.61   4.000000   1.170  0.000  1.750 Ge       
    Si       Core       14      28.09   4.000000   1.200  0.000  2.100 Si       
    O1       Core        8      16.00   1.733957   0.730  0.000  1.360 O1       
    O2       Core        8      16.00   0.870733   0.730  0.000  1.360 O2       
    O3       Core        8      16.00   1.330431   0.730  0.000  1.360 O3       
    O1       Shell       8       0.00  -3.733957   0.730  0.000  0.000 O1       
    O2       Shell       8       0.00  -2.870733   0.730  0.000  0.000 O2       
    O3       Shell       8       0.00  -3.330431   0.730  0.000  0.000 O3       
--------------------------------------------------------------------------------


  Lattice summation method               =    Ewald          (3-D)
                                         =    Parry          (2-D)
                                         =    Saunders et al (1-D)
  Accuracy factor for lattice sums       =   12.000


  Analytic derivatives to be used

  Time limit = Infinity

  Maximum range for interatomic potentials =    100000.000000 Angstroms

  General interatomic potentials :

--------------------------------------------------------------------------------
Atom  Types   Potential      Parameter       Value         Units   Cutoffs(Ang)
  1     2                                                            Min /  Max 
--------------------------------------------------------------------------------
Si   c O1   s Buckingham    Buckingham A     1315.2478    eV        0.000 16.000
                            Buckingham rho  0.31775900    Ang       
                            Buckingham C     10.141118    eV*Ang^6  
--------------------------------------------------------------------------------
Si   c O2   s Buckingham    Buckingham A     1315.2478    eV        0.000 16.000
                            Buckingham rho  0.31775900    Ang       
                            Buckingham C     10.141118    eV*Ang^6  
--------------------------------------------------------------------------------
Si   c O3   s Buckingham    Buckingham A     1315.2478    eV        0.000 16.000
                            Buckingham rho  0.31775900    Ang       
                            Buckingham C     10.141118    eV*Ang^6  
--------------------------------------------------------------------------------
Ge   c O1   s Buckingham    Buckingham A     1497.3996    eV        0.000 16.000
                            Buckingham rho  0.32564600    Ang       
                            Buckingham C     16.808599    eV*Ang^6  
--------------------------------------------------------------------------------
Ge   c O2   s Buckingham    Buckingham A     1497.3996    eV        0.000 16.000
                            Buckingham rho  0.32564600    Ang       
                            Buckingham C     16.808599    eV*Ang^6  
--------------------------------------------------------------------------------
Ge   c O3   s Buckingham    Buckingham A     1497.3996    eV        0.000 16.000
                            Buckingham rho  0.32564600    Ang       
                            Buckingham C     16.808599    eV*Ang^6  
--------------------------------------------------------------------------------
O1   s O1   s Buckingham    Buckingham A     22764.000    eV        0.000 16.000
                            Buckingham rho  0.14900000    Ang       
                            Buckingham C     10.937044    eV*Ang^6  
--------------------------------------------------------------------------------
O1   s O2   s Buckingham    Buckingham A     22764.000    eV        0.000 16.000
                            Buckingham rho  0.14900000    Ang       
                            Buckingham C     10.937044    eV*Ang^6  
--------------------------------------------------------------------------------
O1   s O3   s Buckingham    Buckingham A     22764.000    eV        0.000 16.000
                            Buckingham rho  0.14900000    Ang       
                            Buckingham C     10.937044    eV*Ang^6  
--------------------------------------------------------------------------------
O2   s O2   s Buckingham    Buckingham A     22764.000    eV        0.000 16.000
                            Buckingham rho  0.14900000    Ang       
                            Buckingham C     10.937044    eV*Ang^6  
--------------------------------------------------------------------------------
O2   s O3   s Buckingham    Buckingham A     22764.000    eV        0.000 16.000
                            Buckingham rho  0.14900000    Ang       
                            Buckingham C     10.937044    eV*Ang^6  
--------------------------------------------------------------------------------
O3   s O3   s Buckingham    Buckingham A     22764.000    eV        0.000 16.000
                            Buckingham rho  0.14900000    Ang       
                            Buckingham C     10.937044    eV*Ang^6  
--------------------------------------------------------------------------------
O1   c O1   s Spring (c-s)  Spring k 2       180.31577    eV*Ang^-2 0.000  0.800
                            Spring k 4       0.0000000    eV*Ang^-4 
--------------------------------------------------------------------------------
O2   c O2   s Spring (c-s)  Spring k 2       75.969800    eV*Ang^-2 0.000  0.800
                            Spring k 4       0.0000000    eV*Ang^-4 
--------------------------------------------------------------------------------
O3   c O3   s Spring (c-s)  Spring k 2       128.14270    eV*Ang^-2 0.000  0.800
                            Spring k 4       0.0000000    eV*Ang^-4 
--------------------------------------------------------------------------------

  General Three-body potentials :

--------------------------------------------------------------------------------
  Atoms       Potential      Parameter       Value         Units   Cutoffs(Ang)
  1 / 2 / 3                                                          Min /  Max 
--------------------------------------------------------------------------------
Si    core    Harmonic      Three-body cnst  1.2614000    eV*rad^-2 0.000  1.900
O1    shel                  Three-body angl  109.47000    degrees   0.000  1.900
O1    shel                  Three-body k4    0.0000000    eV*rad^-4 0.000  3.500
                            Three-body k3    0.0000000    eV*rad^-3 
--------------------------------------------------------------------------------
Si    core    Harmonic      Three-body cnst  1.2614000    eV*rad^-2 0.000  1.900
O1    shel                  Three-body angl  109.47000    degrees   0.000  1.900
õ(1   shel                  Three-body k4    0.0000000    eV*rad^-4 0.000  3.500
                            Three-body k3    0.0000000    eV*rad^-3 
--------------------------------------------------------------------------------
Si    core    Harmonic      Three-body cnst  1.2614000    eV*rad^-2 0.000  1.900
õ(1   shel                  Three-body angl  109.47000    degrees   0.000  1.900
õ(1   shel                  Three-body k4    0.0000000    eV*rad^-4 0.000  3.500
                            Three-body k3    0.0000000    eV*rad^-3 
--------------------------------------------------------------------------------
Si    core    Harmonic      Three-body cnst  1.2614000    eV*rad^-2 0.000  1.900
O1    shel                  Three-body angl  109.47000    degrees   0.000  1.900
O2    shel                  Three-body k4    0.0000000    eV*rad^-4 0.000  3.500
                            Three-body k3    0.0000000    eV*rad^-3 
--------------------------------------------------------------------------------
Si    core    Harmonic      Three-body cnst  1.2614000    eV*rad^-2 0.000  1.900
O1    shel                  Three-body angl  109.47000    degrees   0.000  1.900
õ(2   shel                  Three-body k4    0.0000000    eV*rad^-4 0.000  3.500
                            Three-body k3    0.0000000    eV*rad^-3 
--------------------------------------------------------------------------------
Si    core    Harmonic      Three-body cnst  1.2614000    eV*rad^-2 0.000  1.900
O2    shel                  Three-body angl  109.47000    degrees   0.000  1.900
õ(1   shel                  Three-body k4    0.0000000    eV*rad^-4 0.000  3.500
                            Three-body k3    0.0000000    eV*rad^-3 
--------------------------------------------------------------------------------
Si    core    Harmonic      Three-body cnst  1.2614000    eV*rad^-2 0.000  1.900
õ(1   shel                  Three-body angl  109.47000    degrees   0.000  1.900
õ(2   shel                  Three-body k4    0.0000000    eV*rad^-4 0.000  3.500
                            Three-body k3    0.0000000    eV*rad^-3 
--------------------------------------------------------------------------------
Si    core    Harmonic      Three-body cnst  1.2614000    eV*rad^-2 0.000  1.900
O2    shel                  Three-body angl  109.47000    degrees   0.000  1.900
O2    shel                  Three-body k4    0.0000000    eV*rad^-4 0.000  3.500
                            Three-body k3    0.0000000    eV*rad^-3 
--------------------------------------------------------------------------------
Si    core    Harmonic      Three-body cnst  1.2614000    eV*rad^-2 0.000  1.900
O2    shel                  Three-body angl  109.47000    degrees   0.000  1.900
õ(2   shel                  Three-body k4    0.0000000    eV*rad^-4 0.000  3.500
                            Three-body k3    0.0000000    eV*rad^-3 
--------------------------------------------------------------------------------
Si    core    Harmonic      Three-body cnst  1.2614000    eV*rad^-2 0.000  1.900
õ(2   shel                  Three-body angl  109.47000    degrees   0.000  1.900
õ(2   shel                  Three-body k4    0.0000000    eV*rad^-4 0.000  3.500
                            Three-body k3    0.0000000    eV*rad^-3 
--------------------------------------------------------------------------------

********************************************************************************
*  Output for configuration   1 : c00037.vasp                                  *
********************************************************************************


  Components of energy : 

--------------------------------------------------------------------------------
  Interatomic potentials     =         432.36203570 eV    
  Three-body potentials      =           0.00000065 eV    
  Monopole - monopole (real) =       -1236.99964305 eV    
  Monopole - monopole (recip)=        -659.26603192 eV    
  Monopole - monopole (total)=       -1896.26567496 eV    
--------------------------------------------------------------------------------
  Total lattice energy       =       -1463.90363861 eV    
--------------------------------------------------------------------------------
  Total lattice energy       =         -141244.3233 kJ/(mole unit cells)
--------------------------------------------------------------------------------


  Number of variables =      183

  Maximum number of calculations  =          1000
  Maximum Hessian update interval =            10
  Maximum step size               =   0.100000000
  Maximum parameter tolerance     =   0.000010000
  Maximum function  tolerance     =   0.000010000
  Maximum gradient  tolerance     =   0.001000000
  Maximum gradient  component     =   0.010000000

  Symmetry not applied to optimisation

  Cell parameters to be optimised using strains

  Newton-Raphson optimiser to be used

  BFGS hessian update to be used

  Lower half triangular hessian to be used

  Minimiser to switch to RFO
  When gradient norm is less than     0.050000

  Dumpfile to be written after every cycle

  Start of bulk optimisation :

  Cycle:      0 Energy:     -1463.903639  Gnorm:      6.393779  CPU:    0.038
  ** Hessian calculated **
  Cycle:      1 Energy:     -1482.868475  Gnorm:      1.741631  CPU:    0.078
  ** Hessian calculated **
  Cycle:      2 Energy:     -1485.209338  Gnorm:      0.918181  CPU:    0.143
  Cycle:      3 Energy:     -1485.994887  Gnorm:      0.509296  CPU:    0.182
  Cycle:      4 Energy:     -1486.510658  Gnorm:      0.404383  CPU:    0.229
  Cycle:      5 Energy:     -1487.075390  Gnorm:      0.331753  CPU:    0.276
  Cycle:      6 Energy:     -1487.432685  Gnorm:      0.253097  CPU:    0.317
  Cycle:      7 Energy:     -1487.605441  Gnorm:      0.209380  CPU:    0.358
  Cycle:      8 Energy:     -1487.686379  Gnorm:      0.135521  CPU:    0.402
  Cycle:      9 Energy:     -1487.720838  Gnorm:      0.112185  CPU:    0.446
  Cycle:     10 Energy:     -1487.750096  Gnorm:      0.098364  CPU:    0.490
  Cycle:     11 Energy:     -1487.782564  Gnorm:      0.098898  CPU:    0.554
  ** Hessian calculated **
  Cycle:     12 Energy:     -1487.803554  Gnorm:      0.096185  CPU:    0.651
  Cycle:     13 Energy:     -1487.839056  Gnorm:      0.091216  CPU:    0.702
  Cycle:     14 Energy:     -1487.882809  Gnorm:      0.084295  CPU:    0.748
  Cycle:     15 Energy:     -1487.949028  Gnorm:      0.072575  CPU:    0.800
  Cycle:     16 Energy:     -1488.014060  Gnorm:      0.058754  CPU:    0.844
  Cycle:     17 Energy:     -1488.072438  Gnorm:      0.050505  CPU:    0.890
  Cycle:     18 Energy:     -1488.077413  Gnorm:      0.055550  CPU:    0.921
  ** Hessian calculated **
  Cycle:     19 Energy:     -1488.137290  Gnorm:      0.057913  CPU:    0.985
  Cycle:     20 Energy:     -1488.169281  Gnorm:      0.070403  CPU:    1.025
  ** Hessian calculated **
  Cycle:     21 Energy:     -1488.181083  Gnorm:      0.032555  CPU:    1.090
  ** Hessian has required structure
  Cycle:     22 Energy:     -1488.182628  Gnorm:      0.049309  CPU:    1.130
  ** Hessian has required structure
  Cycle:     23 Energy:     -1488.184210  Gnorm:      0.052340  CPU:    1.179
  ** Hessian has required structure
  Cycle:     24 Energy:     -1488.185558  Gnorm:      0.054734  CPU:    1.219
  ** Hessian has required structure
  Cycle:     25 Energy:     -1488.186827  Gnorm:      0.049524  CPU:    1.259
  ** Hessian has required structure
  Cycle:     26 Energy:     -1488.187625  Gnorm:      0.040511  CPU:    1.299
  ** Hessian has required structure
  Cycle:     27 Energy:     -1488.188078  Gnorm:      0.035312  CPU:    1.339
  ** Hessian has required structure
  Cycle:     28 Energy:     -1488.188579  Gnorm:      0.034269  CPU:    1.380
  ** Hessian has required structure
  Cycle:     29 Energy:     -1488.188978  Gnorm:      0.031803  CPU:    1.420
  ** Hessian has required structure
  Cycle:     30 Energy:     -1488.189421  Gnorm:      0.031921  CPU:    1.460
  ** Hessian has wrong structure
  ** Imaginary eigenvectors =   2
  ** Hessian has wrong structure
  ** Imaginary eigenvectors =   1
  Cycle:     31 Energy:     -1488.228236  Gnorm:      0.066082  CPU:    1.616
  ** Hessian has wrong structure
  ** Imaginary eigenvectors =   1
  Cycle:     32 Energy:     -1488.259371  Gnorm:      0.084240  CPU:    1.711
  ** Hessian has required structure
  Cycle:     33 Energy:     -1488.367756  Gnorm:      0.058230  CPU:    1.792
  ** Hessian has required structure
  Cycle:     34 Energy:     -1488.420372  Gnorm:      0.040338  CPU:    1.847
  ** Hessian has required structure
  Cycle:     35 Energy:     -1488.448137  Gnorm:      0.025321  CPU:    1.901
  ** Hessian has required structure
  Cycle:     36 Energy:     -1488.460404  Gnorm:      0.023822  CPU:    1.955
  ** Hessian has required structure
  Cycle:     37 Energy:     -1488.464810  Gnorm:      0.012626  CPU:    2.002
  ** Hessian has required structure
  Cycle:     38 Energy:     -1488.467226  Gnorm:      0.014331  CPU:    2.049
  ** Hessian has required structure
  Cycle:     39 Energy:     -1488.468207  Gnorm:      0.010261  CPU:    2.094
  ** Hessian has required structure
  Cycle:     40 Energy:     -1488.468429  Gnorm:      0.007790  CPU:    2.148
  ** Hessian has required structure
  Cycle:     41 Energy:     -1488.468694  Gnorm:      0.004410  CPU:    2.202
  ** Hessian has required structure
  Cycle:     42 Energy:     -1488.468784  Gnorm:      0.002871  CPU:    2.249
  ** Hessian has required structure
  Cycle:     43 Energy:     -1488.468842  Gnorm:      0.001435  CPU:    2.328
  ** Hessian has required structure
  Cycle:     44 Energy:     -1488.468857  Gnorm:      0.000575  CPU:    2.390
  ** Hessian has required structure
  Cycle:     45 Energy:     -1488.468859  Gnorm:      0.000402  CPU:    2.430
  ** Hessian has required structure
  Cycle:     46 Energy:     -1488.468860  Gnorm:      0.000281  CPU:    2.470
  ** Hessian has required structure
  Cycle:     47 Energy:     -1488.468860  Gnorm:      0.000196  CPU:    2.510
  ** Hessian has required structure
  Cycle:     48 Energy:     -1488.468860  Gnorm:      0.000137  CPU:    2.550
  ** Hessian has required structure


  **** Optimisation achieved ****


  Final energy =   -1488.46886017 eV      
  Final Gnorm  =       0.00009623

  Components of energy : 

--------------------------------------------------------------------------------
  Interatomic potentials     =         395.48140959 eV    
  Three-body potentials      =           0.00060252 eV    
  Monopole - monopole (real) =        -664.19480648 eV    
  Monopole - monopole (recip)=       -1219.75606580 eV    
  Monopole - monopole (total)=       -1883.95087227 eV    
--------------------------------------------------------------------------------
  Total lattice energy       =       -1488.46886017 eV    
--------------------------------------------------------------------------------
  Total lattice energy       =         -143614.4917 kJ/(mole unit cells)
--------------------------------------------------------------------------------

  Final fractional coordinates of atoms :

--------------------------------------------------------------------------------
   No.  Atomic        x           y          z          Radius
        Label       (Frac)      (Frac)     (Frac)       (Angs) 
--------------------------------------------------------------------------------
     1  Ge    c     0.313820    0.296860    0.309830    0.000000
     2  Ge    c     0.692189    0.291668    0.720843    0.000000
     3  Ge    c     0.664721    0.699431    0.721839    0.000000
     4  Ge    c     0.320109    0.252887    0.629372    0.000000
     5  Ge    c     0.695334    0.325046    0.403361    0.000000
     6  Ge    c     0.296316    0.656915    0.633970    0.000000
     7  Ge    c     0.884060    0.011858    0.344856    0.000000
     8  Ge    c     0.899705    0.983540    0.863164    0.000000
     9  Si    c     0.301633    0.681324    0.328725    0.000000
    10  Si    c     0.669690    0.714871    0.416355    0.000000
    11  Si    c     0.092151    0.956216    0.649869    0.000000
    12  Si    c     0.111924    0.991557    0.160296    0.000000
    13  O1    c     0.253370    0.262317    0.453729    0.000000
    14  O1    c     0.758276    0.297016    0.577612    0.000000
    15  O3    c     0.736279    0.723939    0.579250    0.000000
    16  O3    c     0.231677    0.657658    0.456337    0.000000
    17  O3    c     0.279995    0.507938    0.250434    0.000000
    18  O1    c     0.678492    0.489423    0.775172    0.000000
    19  O1    c     0.506565    0.258115    0.341971    0.000000
    20  O1    c     0.510667    0.200132    0.671699    0.000000
    21  O1    c     0.474217    0.753149    0.685638    0.000000
    22  O2    c     0.484536    0.716011    0.392199    0.000000
    23  O3    c     0.202917    0.168557    0.187150    0.000000
    24  O1    c     0.808688    0.172771    0.852721    0.000000
    25  O1    c     0.769882    0.818715    0.851399    0.000000
    26  O2    c     0.226390    0.840314    0.232184    0.000000
    27  O1    c     0.301188    0.449080    0.690423    0.000000
    28  O3    c     0.713753    0.540057    0.363784    0.000000
    29  O3    c     0.219539    0.103852    0.700835    0.000000
    30  O1    c     0.811756    0.211892    0.333925    0.000000
    31  O3    c     0.730984    0.871199    0.340017    0.000000
    32  O3    c     0.168929    0.772397    0.691759    0.000000
    33  O3    c     0.037086    0.975251    0.485381    0.000000
    34  O3    c     0.953693    0.988233    0.205002    0.000000
    35  O3    c     0.951480    0.977321    0.711448    0.000000
    36  O3    c     0.060643    0.964289    0.999376    0.000000
    37  O1    s     0.262877    0.264250    0.455557    0.000000
    38  O1    s     0.748697    0.298684    0.575132    0.000000
    39  O3    s     0.724666    0.721265    0.574434    0.000000
    40  O3    s     0.243474    0.659898    0.457095    0.000000
    41  O3    s     0.284572    0.509127    0.262362    0.000000
    42  O1    s     0.678505    0.489821    0.766855    0.000000
    43  O1    s     0.505783    0.266183    0.344083    0.000000
    44  O1    s     0.509465    0.210889    0.672067    0.000000
    45  O1    s     0.475134    0.741789    0.684417    0.000000
    46  O2    s     0.484729    0.712176    0.388204    0.000000
    47  O3    s     0.202831    0.161296    0.194412    0.000000
    48  O1    s     0.806913    0.167232    0.843647    0.000000
    49  O1    s     0.771775    0.822151    0.842432    0.000000
    50  O2    s     0.222398    0.838900    0.235201    0.000000
    51  O1    s     0.302167    0.450848    0.681734    0.000000
    52  O3    s     0.708127    0.540372    0.371842    0.000000
    53  O3    s     0.215771    0.102178    0.690246    0.000000
    54  O1    s     0.808339    0.205311    0.340068    0.000000
    55  O3    s     0.736712    0.866309    0.348154    0.000000
    56  O3    s     0.171758    0.780491    0.683300    0.000000
    57  O3    s     0.029585    0.976531    0.489195    0.000000
    58  O3    s     0.963106    0.990415    0.211717    0.000000
    59  O3    s     0.962261    0.975624    0.716610    0.000000
    60  O3    s     0.052220    0.968570    0.003766    0.000000
--------------------------------------------------------------------------------

  Final Cartesian lattice vectors (Angstroms) :

        8.997665   -0.135478    0.209427
       -0.106297    7.890948    0.169894
       -3.032549    0.281926    9.732376


  Final cell parameters and derivatives :

--------------------------------------------------------------------------------
       a            9.001122 Angstrom     dE/de1(xx)    -0.000640 eV/strain
       b            7.893493 Angstrom     dE/de2(yy)    -0.001073 eV/strain
       c           10.197792 Angstrom     dE/de3(zz)    -0.000111 eV/strain
       alpha       87.008814 Degrees      dE/de4(yz)     0.000149 eV/strain
       beta       105.990029 Degrees      dE/de5(xz)     0.000393 eV/strain
       gamma       91.604882 Degrees      dE/de6(xy)     0.000097 eV/strain
--------------------------------------------------------------------------------

  Primitive cell volume =           695.503646 Angs**3

  Density of cell =      2.571989 g/cm**3

  Non-primitive cell volume =           695.503646 Angs**3


  Final internal derivatives :

--------------------------------------------------------------------------------
   No.  Atomic          a             b             c           Radius
        Label          (eV)          (eV)          (eV)        (eV/Angs)
--------------------------------------------------------------------------------
      1 Ge    c       0.000000      0.000000      0.000000      0.000000
      2 Ge    c       0.000492     -0.000537     -0.000260      0.000000
      3 Ge    c       0.000013     -0.000293      0.000102      0.000000
      4 Ge    c      -0.000420      0.000020      0.000140      0.000000
      5 Ge    c       0.000246     -0.000621      0.000400      0.000000
      6 Ge    c       0.000042     -0.000451     -0.000269      0.000000
      7 Ge    c      -0.000860      0.000749     -0.000938      0.000000
      8 Ge    c       0.000846     -0.000298     -0.005688      0.000000
      9 Si    c      -0.000273      0.000583     -0.000210      0.000000
     10 Si    c       0.000403      0.000694     -0.001593      0.000000
     11 Si    c       0.001255     -0.000565     -0.001982      0.000000
     12 Si    c       0.000342     -0.000506      0.000414      0.000000
     13 O1    c       0.000117     -0.000023      0.000662      0.000000
     14 O1    c      -0.000658      0.000458      0.000817      0.000000
     15 O3    c      -0.000289     -0.000129      0.000768      0.000000
     16 O3    c      -0.000236     -0.000002      0.000321      0.000000
     17 O3    c      -0.000026     -0.000392      0.000178      0.000000
     18 O1    c       0.000153     -0.000448     -0.000139      0.000000
     19 O1    c       0.000707     -0.000274      0.000002      0.000000
     20 O1    c       0.000809      0.000099     -0.000310      0.000000
     21 O1    c      -0.000405      0.000323      0.000146      0.000000
     22 O2    c       0.000264     -0.000146     -0.000170      0.000000
     23 O3    c       0.000799      0.001308      0.001043      0.000000
     24 O1    c      -0.000775      0.000509     -0.000964      0.000000
     25 O1    c       0.000302      0.000341      0.000581      0.000000
     26 O2    c       0.000437     -0.000554      0.000634      0.000000
     27 O1    c       0.000173      0.000179     -0.000412      0.000000
     28 O3    c      -0.000264      0.001389      0.000414      0.000000
     29 O3    c       0.000675      0.000570     -0.000955      0.000000
     30 O1    c       0.001334     -0.001705     -0.000347      0.000000
     31 O3    c      -0.001365     -0.001634      0.002163      0.000000
     32 O3    c      -0.001351      0.001731      0.000469      0.000000
     33 O3    c       0.001700     -0.000097      0.002419      0.000000
     34 O3    c      -0.001527      0.000029      0.001340      0.000000
     35 O3    c      -0.006397      0.001042      0.007648      0.000000
     36 O3    c       0.001931     -0.000632      0.006987      0.000000
     37 O1    s      -0.000365     -0.000013     -0.000124      0.000000
     38 O1    s       0.000458     -0.000141     -0.000113      0.000000
     39 O3    s       0.000998      0.000568     -0.001237      0.000000
     40 O3    s       0.000347      0.000082     -0.000482      0.000000
     41 O3    s       0.000215      0.000349     -0.000215      0.000000
     42 O1    s      -0.000245     -0.000082      0.000219      0.000000
     43 O1    s      -0.000519      0.000000     -0.000502      0.000000
     44 O1    s      -0.000374      0.000203      0.000104      0.000000
     45 O1    s       0.000247     -0.000210     -0.000153      0.000000
     46 O2    s       0.000147     -0.000474     -0.000121      0.000000
     47 O3    s      -0.000119     -0.000244     -0.000702      0.000000
     48 O1    s       0.000604     -0.000263      0.000377      0.000000
     49 O1    s       0.000421      0.000046     -0.001326      0.000000
     50 O2    s       0.000237     -0.000086     -0.000024      0.000000
     51 O1    s      -0.000076     -0.000336      0.000203      0.000000
     52 O3    s      -0.000258      0.000143     -0.000105      0.000000
     53 O3    s      -0.000149     -0.000563      0.000738      0.000000
     54 O1    s      -0.000678      0.000824      0.000256      0.000000
     55 O3    s       0.000315      0.000384     -0.000179      0.000000
     56 O3    s      -0.000084     -0.000450      0.000155      0.000000
     57 O3    s      -0.001049     -0.000381     -0.001091      0.000000
     58 O3    s       0.000610     -0.000012     -0.000432      0.000000
     59 O3    s       0.003049     -0.000467     -0.004560      0.000000
     60 O3    s      -0.001212      0.000497     -0.003774      0.000000
--------------------------------------------------------------------------------
  Maximum abs         0.006397      0.001731      0.007648      0.000000
--------------------------------------------------------------------------------


  Born effective charge tensors : 

-------------------------------------------------------------------------------
  Atom             x           y             z
-------------------------------------------------------------------------------
    1 Ge    x       3.9424      0.1621      0.2401
            y       0.2683      4.1911      0.2410
            z       0.0658      0.2570      3.5604
-------------------------------------------------------------------------------
    2 Ge    x       3.8812     -0.1131      0.3673
            y      -0.3466      4.2068     -0.2301
            z       0.1336     -0.1954      3.7757
-------------------------------------------------------------------------------
    3 Ge    x       3.9058      0.1378      0.4491
            y       0.2437      4.1448      0.2678
            z       0.1486      0.2327      3.7412
-------------------------------------------------------------------------------
    4 Ge    x       4.0495      0.2152     -0.1027
            y       0.2459      4.1952      0.0533
            z       0.1905     -0.0590      3.3995
-------------------------------------------------------------------------------
    5 Ge    x       4.1372     -0.2653     -0.0445
            y      -0.4171      4.2056      0.1254
            z       0.1179      0.1629      3.4365
-------------------------------------------------------------------------------
    6 Ge    x       4.0176     -0.0854     -0.1266
            y      -0.3834      4.2000     -0.0249
            z       0.1339      0.1314      3.3156
-------------------------------------------------------------------------------
    7 Ge    x       4.3607     -0.2794     -0.2427
            y       0.1035      3.9888     -0.0017
            z      -0.1945     -0.0027      3.6169
-------------------------------------------------------------------------------
    8 Ge    x       3.8155     -0.0638     -0.1829
            y       0.0727      3.9373      0.1037
            z       0.7335     -0.0127      4.4517
-------------------------------------------------------------------------------
    9 Si    x       3.2455     -0.2020      0.1563
            y      -0.2211      3.7382      0.0932
            z      -0.1056     -0.1565      3.1999
-------------------------------------------------------------------------------
   10 Si    x       3.5107      0.4351     -0.3013
            y       0.1758      3.9169      0.0289
            z       0.0446     -0.0061      3.1404
-------------------------------------------------------------------------------
   11 Si    x       4.0622     -0.1700      0.1902
            y       0.0803      3.7220      0.0591
            z      -0.4795      0.0847      3.3520
-------------------------------------------------------------------------------
   12 Si    x       3.6517      0.1554      0.2054
            y       0.0792      3.5803      0.0072
            z      -0.0403      0.2947      4.2759
-------------------------------------------------------------------------------
   13 O1    x      -1.5922     -0.1567      0.3837
            y      -0.1737     -1.4762      0.0723
            z       0.3738      0.0891     -2.6005
-------------------------------------------------------------------------------
   14 O1    x      -1.6159      0.0689      0.3944
            y       0.0932     -1.4622      0.1527
            z       0.3821      0.1113     -2.5810
-------------------------------------------------------------------------------
   15 O3    x      -1.5305     -0.1322      0.1792
            y      -0.1179     -1.3260     -0.0740
            z       0.2528     -0.0519     -2.4905
-------------------------------------------------------------------------------
   16 O3    x      -1.6510      0.0236      0.5158
            y       0.0658     -1.3499      0.0655
            z       0.4555      0.0844     -2.3482
-------------------------------------------------------------------------------
   17 O3    x      -1.2267      0.0484     -0.0905
            y       0.1041     -3.0452     -0.2666
            z      -0.0227     -0.2499     -1.3807
-------------------------------------------------------------------------------
   18 O1    x      -1.3154      0.1294     -0.0509
            y       0.1743     -3.2465     -0.0268
            z       0.0007      0.0104     -1.3974
-------------------------------------------------------------------------------
   19 O1    x      -3.0611     -0.0812     -0.5792
            y      -0.0667     -1.5160     -0.0890
            z      -0.5511     -0.1039     -1.3776
-------------------------------------------------------------------------------
   20 O1    x      -2.9806     -0.1381     -0.5513
            y      -0.1175     -1.5534     -0.0309
            z      -0.5581     -0.0075     -1.3728
-------------------------------------------------------------------------------
   21 O1    x      -2.9665     -0.1191     -0.5150
            y      -0.0454     -1.5174     -0.0733
            z      -0.5206     -0.1169     -1.3974
-------------------------------------------------------------------------------
   22 O2    x      -2.3348     -0.0799     -0.3859
            y      -0.0453     -1.2491     -0.0128
            z      -0.3865      0.0135     -1.1985
-------------------------------------------------------------------------------
   23 O3    x      -1.5826     -0.6957     -0.4176
            y      -0.7031     -2.5530     -0.6731
            z      -0.3780     -0.6967     -1.7653
-------------------------------------------------------------------------------
   24 O1    x      -1.7420      0.7880     -0.4098
            y       0.7446     -2.4716      0.6256
            z      -0.4705      0.6376     -1.9590
-------------------------------------------------------------------------------
   25 O1    x      -1.8789     -0.7915     -0.4308
            y      -0.7900     -2.2979     -0.6782
            z      -0.4959     -0.6808     -2.0204
-------------------------------------------------------------------------------
   26 O2    x      -1.3850      0.5123     -0.3669
            y       0.4832     -2.0066      0.5696
            z      -0.2934      0.5746     -1.5630
-------------------------------------------------------------------------------
   27 O1    x      -1.3942      0.0571      0.1066
            y       0.1576     -3.2751     -0.0332
            z       0.0393     -0.0103     -1.3302
-------------------------------------------------------------------------------
   28 O3    x      -1.4285      0.2108      0.1207
            y       0.2475     -2.9932     -0.1811
            z       0.0578     -0.1518     -1.1819
-------------------------------------------------------------------------------
   29 O3    x      -2.1232     -0.9305     -0.0022
            y      -0.9332     -2.2694     -0.0302
            z       0.0429     -0.0275     -1.2982
-------------------------------------------------------------------------------
   30 O1    x      -2.2417      1.0346      0.3207
            y       0.9593     -2.6867     -0.2571
            z       0.2516     -0.2112     -1.3356
-------------------------------------------------------------------------------
   31 O3    x      -2.1974     -1.0013      0.3180
            y      -0.9739     -2.3318      0.3386
            z       0.2087      0.2920     -1.3002
-------------------------------------------------------------------------------
   32 O3    x      -2.0368      0.9069      0.0858
            y       0.8512     -2.4190      0.0102
            z       0.1395     -0.0186     -1.2582
-------------------------------------------------------------------------------
   33 O3    x      -1.6468      0.0860     -0.4659
            y       0.0034     -1.2875      0.1141
            z      -0.2760      0.1467     -2.5691
-------------------------------------------------------------------------------
   34 O3    x      -2.6731      0.1319      0.7643
            y       0.0763     -1.2305     -0.0487
            z       0.8030     -0.0985     -2.0020
-------------------------------------------------------------------------------
   35 O3    x      -2.5578      0.1784      0.8312
            y       0.0907     -1.2622     -0.1133
            z       0.7950     -0.1255     -1.9961
-------------------------------------------------------------------------------
   36 O3    x      -1.4171      0.0232     -0.3620
            y       0.0144     -1.2007     -0.0833
            z      -0.5986     -0.1397     -3.5420
-------------------------------------------------------------------------------




  Elastic Constant Matrix: (Units=GPa)

-------------------------------------------------------------------------------
  Indices      1         2         3         4         5         6    
-------------------------------------------------------------------------------
       1     26.3001   21.8069    9.5306    3.3747    2.1181   -6.1266
       2     21.8069   59.9668   19.0514    0.8450    9.5066  -12.5543
       3      9.5306   19.0514   31.9639    4.3771   12.7774    2.2010
       4      3.3747    0.8450    4.3771    8.7196    3.3371    1.3560
       5      2.1181    9.5066   12.7774    3.3371   12.9591    2.9806
       6     -6.1266  -12.5543    2.2010    1.3560    2.9806   14.9615
-------------------------------------------------------------------------------


  Elastic Compliance Matrix: (Units=1/GPa)

-------------------------------------------------------------------------------
  Indices      1         2         3         4         5         6    
-------------------------------------------------------------------------------
       1    0.062751 -0.020070 -0.012312 -0.025634  0.021191  0.008768
       2   -0.020070  0.036391 -0.010225  0.014025 -0.023194  0.027171
       3   -0.012312 -0.010225  0.061278 -0.005161 -0.046613 -0.012883
       4   -0.025634  0.014025 -0.005161  0.140281 -0.036342 -0.003443
       5    0.021191 -0.023194 -0.046613 -0.036342  0.153201 -0.031154
       6    0.008768  0.027171 -0.012883 -0.003443 -0.031154  0.101641
-------------------------------------------------------------------------------

  Mechanical properties :

-------------------------------------------------------------------------------
  Convention :                    Reuss         Voigt         Hill
-------------------------------------------------------------------------------
  Bulk  Modulus (GPa)     =      13.29714      24.33429      18.81572
  Shear Modulus (GPa)     =       7.50946      11.85084       9.68015
-------------------------------------------------------------------------------
  Velocity S-wave (km/s)  =       1.70872       2.14655       1.94002
  Velocity P-wave (km/s)  =       3.01047       3.95029       3.51196
-------------------------------------------------------------------------------
  Compressibility (1/GPa) =    0.07520414
-------------------------------------------------------------------------------
  Stress axis :                     x             y             z
-------------------------------------------------------------------------------
  Youngs Moduli (GPa)     =      15.93611      27.47951      16.31897
-------------------------------------------------------------------------------
  Poissons Ratio (x)      =                     0.55152       0.20092
  Poissons Ratio (y)      =       0.31984                     0.16687
  Poissons Ratio (z)      =       0.19621       0.28099
-------------------------------------------------------------------------------


  Piezoelectric Strain Matrix: (Units=C/m**2)

-------------------------------------------------------------------------------
  Indices      1         2         3         4         5         6    
-------------------------------------------------------------------------------
       x     0.04278  -0.28976   0.60610  -0.02873   0.00643  -0.15041
       y     0.07269   0.62741   0.27265   0.19547   0.16920  -1.28760
       z     0.34432   0.11605   0.10560  -0.76342   1.39010  -0.48784
-------------------------------------------------------------------------------


  Piezoelectric Stress Matrix: (Units=10**-11 C/N)

-------------------------------------------------------------------------------
  Indices      1         2         3         4         5         6    
-------------------------------------------------------------------------------
       x     0.05917  -2.22397   4.13634  -1.20347  -1.39102  -3.06951
       y    -2.41021  -1.75831   1.70885   3.12336   3.32112 -12.26453
       z     6.27266  -5.99717  -5.35277 -16.36765  25.55900  -8.54517
-------------------------------------------------------------------------------


  Static dielectric constant tensor : 

-------------------------------------------------------------------------------
              x         y         z
-------------------------------------------------------------------------------
       x     4.93017  -0.04872   0.21547
       y    -0.04872   6.01323   0.29425
       z     0.21547   0.29425   3.97960
--------------------------------------------------------------------------------

  High frequency dielectric constant tensor : 

-------------------------------------------------------------------------------
              x         y         z
-------------------------------------------------------------------------------
       x     1.57429  -0.00108   0.00792
       y    -0.00108   1.58531   0.00427
       z     0.00792   0.00427   1.53882
-------------------------------------------------------------------------------

  Static refractive indices : 

-------------------------------------------------------------------------------
    1 =    1.97262      2 =    2.23082      3 =    2.46074
-------------------------------------------------------------------------------

  High frequency refractive indices : 

-------------------------------------------------------------------------------
    1 =    1.23965      2 =    1.25538      3 =    1.25925
-------------------------------------------------------------------------------


  Time to end of optimisation =       2.6407 seconds


  Peak dynamic memory used =       2.76 MB 


  Timing analysis for GULP :

--------------------------------------------------------------------------------
  Task / Subroutine                                          Time (Seconds)
--------------------------------------------------------------------------------
  Calculation of reciprocal space energy and derivatives          0.1777
  Calculation of real space energy and derivatives                2.1859
  Calculation of three-body energy and derivatives                0.0286
  Calculation and manipulation of Hessian matrix                  0.2966
  Calculation of matrix inversion                                 0.0048
--------------------------------------------------------------------------------
  Total CPU time                                                  2.6407
--------------------------------------------------------------------------------


  Dump file written as c00037.vasp.grs
  CIF file written as c00037.vasp.cif


  Job Finished at 11:38.35 22nd October    2025                               

