********************************************************************************
*                       GENERAL UTILITY LATTICE PROGRAM                        *
*                                 Julian Gale                                  *
*                       Curtin Institute for Computation                       *
*                    School of Molecular and Life Sciences                     *
*                    Curtin University, Western Australia                      *
********************************************************************************
* Version = 6.1.2 * Last modified =   3rd November 2022                        *
********************************************************************************
*  optimise     - perform optimisation run                                     *
*  conp         - constant pressure calculation                                *
*  property     - calculate properties for final geometry                      *
********************************************************************************

  Job Started  at 11:39.19 22nd October    2025                               

  Number of CPUs =     1


  Total number of configurations input =      1

********************************************************************************
*  Input for Configuration =   1 : c00048.vasp                                 *
********************************************************************************

  Formula = Ge8Si4O24                                                   

  Number of irreducible atoms/shells =      60


  Total number atoms/shells =      60

  Dimensionality = 3               :  Bulk   



  Cartesian lattice vectors (Angstroms) :

        9.086940    0.000000    0.000000
        0.000000    7.554810    0.000000
       -3.295144    0.000000    9.944380

  Cell parameters (Angstroms/Degrees):

  a =       9.0869    alpha =  90.0000
  b =       7.5548    beta  = 108.3330
  c =      10.4761    gamma =  90.0000

  Initial cell volume =         682.682735 Angs**3

  Temperature of configuration =   0.00     K 

  Pressure of configuration =         0.000 GPa 

  Fractional coordinates of asymmetric unit :

--------------------------------------------------------------------------------
   No.  Atomic       x           y          z         Charge      Occupancy
        Label      (Frac)      (Frac)     (Frac)        (e)         (Frac)  
--------------------------------------------------------------------------------
      1 Ge    c    0.313820    0.296860    0.309830     4.00000    1.000000    
      2 Ge    c    0.686180 *  0.296860 *  0.690170 *   4.00000    1.000000    
      3 Ge    c    0.686180 *  0.703140 *  0.690170 *   4.00000    1.000000    
      4 Ge    c    0.331050 *  0.296920 *  0.607380 *   4.00000    1.000000    
      5 Ge    c    0.668950 *  0.703080 *  0.392620 *   4.00000    1.000000    
      6 Ge    c    0.331050 *  0.703080 *  0.607380 *   4.00000    1.000000    
      7 Ge    c    0.120320 *  0.000000 *  0.649840 *   4.00000    1.000000    
      8 Ge    c    0.093070 *  0.000000 *  0.158230 *   4.00000    1.000000    
      9 Si    c    0.313820 *  0.703140 *  0.309830 *   4.00000    1.000000    
     10 Si    c    0.668950 *  0.296920 *  0.392620 *   4.00000    1.000000    
     11 Si    c    0.879680 *  0.000000 *  0.350160 *   4.00000    1.000000    
     12 Si    c    0.906930 *  0.000000 *  0.841770 *   4.00000    1.000000    
     13 O1    c    0.268740 *  0.279030 *  0.446100 *   1.73396    1.000000    
     14 O3    c    0.731260 *  0.279030 *  0.553900 *   1.33043    1.000000    
     15 O1    c    0.731260 *  0.720970 *  0.553900 *   1.73396    1.000000    
     16 O3    c    0.268740 *  0.720970 *  0.446100 *   1.33043    1.000000    
     17 O3    c    0.295480 *  0.500000 *  0.260860 *   1.33043    1.000000    
     18 O1    c    0.704520 *  0.500000 *  0.739140 *   1.73396    1.000000    
     19 O3    c    0.490600 *  0.234690 *  0.337530 *   1.33043    1.000000    
     20 O1    c    0.509400 *  0.234690 *  0.662470 *   1.73396    1.000000    
     21 O1    c    0.509400 *  0.765310 *  0.662470 *   1.73396    1.000000    
     22 O3    c    0.490600 *  0.765310 *  0.337530 *   1.33043    1.000000    
     23 O1    c    0.200440 *  0.174000 *  0.194980 *   1.73396    1.000000    
     24 O3    c    0.799560 *  0.174000 *  0.805020 *   1.33043    1.000000    
     25 O3    c    0.799560 *  0.826000 *  0.805020 *   1.33043    1.000000    
     26 O3    c    0.200440 *  0.826000 *  0.194980 *   1.33043    1.000000    
     27 O1    c    0.317860 *  0.500000 *  0.649090 *   1.73396    1.000000    
     28 O3    c    0.682140 *  0.500000 *  0.350910 *   1.33043    1.000000    
     29 O1    c    0.227920 *  0.173870 *  0.671620 *   1.73396    1.000000    
     30 O2    c    0.772080 *  0.173870 *  0.328380 *   0.87073    1.000000    
     31 O3    c    0.772080 *  0.826130 *  0.328380 *   1.33043    1.000000    
     32 O1    c    0.227920 *  0.826130 *  0.671620 *   1.73396    1.000000    
     33 O3    c    0.000000 *  0.000000 *  0.500000 *   1.33043    1.000000    
     34 O3    c    0.971960 *  0.000000 *  0.241930 *   1.33043    1.000000    
     35 O3    c    0.028040 *  0.000000 *  0.758070 *   1.33043    1.000000    
     36 O3    c    0.000000 *  0.000000 *  0.000000 *   1.33043    1.000000    
     37 O1    s    0.268740 *  0.279030 *  0.446100 *  -3.73396    1.000000    
     38 O3    s    0.731260 *  0.279030 *  0.553900 *  -3.33043    1.000000    
     39 O1    s    0.731260 *  0.720970 *  0.553900 *  -3.73396    1.000000    
     40 O3    s    0.268740 *  0.720970 *  0.446100 *  -3.33043    1.000000    
     41 O3    s    0.295480 *  0.500000 *  0.260860 *  -3.33043    1.000000    
     42 O1    s    0.704520 *  0.500000 *  0.739140 *  -3.73396    1.000000    
     43 O3    s    0.490600 *  0.234690 *  0.337530 *  -3.33043    1.000000    
     44 O1    s    0.509400 *  0.234690 *  0.662470 *  -3.73396    1.000000    
     45 O1    s    0.509400 *  0.765310 *  0.662470 *  -3.73396    1.000000    
     46 O3    s    0.490600 *  0.765310 *  0.337530 *  -3.33043    1.000000    
     47 O1    s    0.200440 *  0.174000 *  0.194980 *  -3.73396    1.000000    
     48 O3    s    0.799560 *  0.174000 *  0.805020 *  -3.33043    1.000000    
     49 O3    s    0.799560 *  0.826000 *  0.805020 *  -3.33043    1.000000    
     50 O3    s    0.200440 *  0.826000 *  0.194980 *  -3.33043    1.000000    
     51 O1    s    0.317860 *  0.500000 *  0.649090 *  -3.73396    1.000000    
     52 O3    s    0.682140 *  0.500000 *  0.350910 *  -3.33043    1.000000    
     53 O1    s    0.227920 *  0.173870 *  0.671620 *  -3.73396    1.000000    
     54 O2    s    0.772080 *  0.173870 *  0.328380 *  -2.87073    1.000000    
     55 O3    s    0.772080 *  0.826130 *  0.328380 *  -3.33043    1.000000    
     56 O1    s    0.227920 *  0.826130 *  0.671620 *  -3.73396    1.000000    
     57 O3    s    0.000000 *  0.000000 *  0.500000 *  -3.33043    1.000000    
     58 O3    s    0.971960 *  0.000000 *  0.241930 *  -3.33043    1.000000    
     59 O3    s    0.028040 *  0.000000 *  0.758070 *  -3.33043    1.000000    
     60 O3    s    0.000000 *  0.000000 *  0.000000 *  -3.33043    1.000000    
--------------------------------------------------------------------------------



********************************************************************************
*  General input information                                                   *
********************************************************************************

  Species output for all configurations : 

--------------------------------------------------------------------------------
  Species    Type    Atomic    Atomic    Charge       Radii (Angs)     Library
                     Number     Mass       (e)     Cova   Ionic  VDW   Symbol
--------------------------------------------------------------------------------
    Ge       Core       32      72.61   4.000000   1.170  0.000  1.750 Ge       
    Si       Core       14      28.09   4.000000   1.200  0.000  2.100 Si       
    O1       Core        8      16.00   1.733957   0.730  0.000  1.360 O1       
    O2       Core        8      16.00   0.870733   0.730  0.000  1.360 O2       
    O3       Core        8      16.00   1.330431   0.730  0.000  1.360 O3       
    O1       Shell       8       0.00  -3.733957   0.730  0.000  0.000 O1       
    O2       Shell       8       0.00  -2.870733   0.730  0.000  0.000 O2       
    O3       Shell       8       0.00  -3.330431   0.730  0.000  0.000 O3       
--------------------------------------------------------------------------------


  Lattice summation method               =    Ewald          (3-D)
                                         =    Parry          (2-D)
                                         =    Saunders et al (1-D)
  Accuracy factor for lattice sums       =   12.000


  Analytic derivatives to be used

  Time limit = Infinity

  Maximum range for interatomic potentials =    100000.000000 Angstroms

  General interatomic potentials :

--------------------------------------------------------------------------------
Atom  Types   Potential      Parameter       Value         Units   Cutoffs(Ang)
  1     2                                                            Min /  Max 
--------------------------------------------------------------------------------
Si   c O1   s Buckingham    Buckingham A     1315.2478    eV        0.000 16.000
                            Buckingham rho  0.31775900    Ang       
                            Buckingham C     10.141118    eV*Ang^6  
--------------------------------------------------------------------------------
Si   c O2   s Buckingham    Buckingham A     1315.2478    eV        0.000 16.000
                            Buckingham rho  0.31775900    Ang       
                            Buckingham C     10.141118    eV*Ang^6  
--------------------------------------------------------------------------------
Si   c O3   s Buckingham    Buckingham A     1315.2478    eV        0.000 16.000
                            Buckingham rho  0.31775900    Ang       
                            Buckingham C     10.141118    eV*Ang^6  
--------------------------------------------------------------------------------
Ge   c O1   s Buckingham    Buckingham A     1497.3996    eV        0.000 16.000
                            Buckingham rho  0.32564600    Ang       
                            Buckingham C     16.808599    eV*Ang^6  
--------------------------------------------------------------------------------
Ge   c O2   s Buckingham    Buckingham A     1497.3996    eV        0.000 16.000
                            Buckingham rho  0.32564600    Ang       
                            Buckingham C     16.808599    eV*Ang^6  
--------------------------------------------------------------------------------
Ge   c O3   s Buckingham    Buckingham A     1497.3996    eV        0.000 16.000
                            Buckingham rho  0.32564600    Ang       
                            Buckingham C     16.808599    eV*Ang^6  
--------------------------------------------------------------------------------
O1   s O1   s Buckingham    Buckingham A     22764.000    eV        0.000 16.000
                            Buckingham rho  0.14900000    Ang       
                            Buckingham C     10.937044    eV*Ang^6  
--------------------------------------------------------------------------------
O1   s O2   s Buckingham    Buckingham A     22764.000    eV        0.000 16.000
                            Buckingham rho  0.14900000    Ang       
                            Buckingham C     10.937044    eV*Ang^6  
--------------------------------------------------------------------------------
O1   s O3   s Buckingham    Buckingham A     22764.000    eV        0.000 16.000
                            Buckingham rho  0.14900000    Ang       
                            Buckingham C     10.937044    eV*Ang^6  
--------------------------------------------------------------------------------
O2   s O2   s Buckingham    Buckingham A     22764.000    eV        0.000 16.000
                            Buckingham rho  0.14900000    Ang       
                            Buckingham C     10.937044    eV*Ang^6  
--------------------------------------------------------------------------------
O2   s O3   s Buckingham    Buckingham A     22764.000    eV        0.000 16.000
                            Buckingham rho  0.14900000    Ang       
                            Buckingham C     10.937044    eV*Ang^6  
--------------------------------------------------------------------------------
O3   s O3   s Buckingham    Buckingham A     22764.000    eV        0.000 16.000
                            Buckingham rho  0.14900000    Ang       
                            Buckingham C     10.937044    eV*Ang^6  
--------------------------------------------------------------------------------
O1   c O1   s Spring (c-s)  Spring k 2       180.31577    eV*Ang^-2 0.000  0.800
                            Spring k 4       0.0000000    eV*Ang^-4 
--------------------------------------------------------------------------------
O2   c O2   s Spring (c-s)  Spring k 2       75.969800    eV*Ang^-2 0.000  0.800
                            Spring k 4       0.0000000    eV*Ang^-4 
--------------------------------------------------------------------------------
O3   c O3   s Spring (c-s)  Spring k 2       128.14270    eV*Ang^-2 0.000  0.800
                            Spring k 4       0.0000000    eV*Ang^-4 
--------------------------------------------------------------------------------

  General Three-body potentials :

--------------------------------------------------------------------------------
  Atoms       Potential      Parameter       Value         Units   Cutoffs(Ang)
  1 / 2 / 3                                                          Min /  Max 
--------------------------------------------------------------------------------
Si    core    Harmonic      Three-body cnst  1.2614000    eV*rad^-2 0.000  1.900
O1    shel                  Three-body angl  109.47000    degrees   0.000  1.900
O1    shel                  Three-body k4    0.0000000    eV*rad^-4 0.000  3.500
                            Three-body k3    0.0000000    eV*rad^-3 
--------------------------------------------------------------------------------
Si    core    Harmonic      Three-body cnst  1.2614000    eV*rad^-2 0.000  1.900
O1    shel                  Three-body angl  109.47000    degrees   0.000  1.900
õ(1   shel                  Three-body k4    0.0000000    eV*rad^-4 0.000  3.500
                            Three-body k3    0.0000000    eV*rad^-3 
--------------------------------------------------------------------------------
Si    core    Harmonic      Three-body cnst  1.2614000    eV*rad^-2 0.000  1.900
õ(1   shel                  Three-body angl  109.47000    degrees   0.000  1.900
õ(1   shel                  Three-body k4    0.0000000    eV*rad^-4 0.000  3.500
                            Three-body k3    0.0000000    eV*rad^-3 
--------------------------------------------------------------------------------
Si    core    Harmonic      Three-body cnst  1.2614000    eV*rad^-2 0.000  1.900
O1    shel                  Three-body angl  109.47000    degrees   0.000  1.900
O2    shel                  Three-body k4    0.0000000    eV*rad^-4 0.000  3.500
                            Three-body k3    0.0000000    eV*rad^-3 
--------------------------------------------------------------------------------
Si    core    Harmonic      Three-body cnst  1.2614000    eV*rad^-2 0.000  1.900
O1    shel                  Three-body angl  109.47000    degrees   0.000  1.900
õ(2   shel                  Three-body k4    0.0000000    eV*rad^-4 0.000  3.500
                            Three-body k3    0.0000000    eV*rad^-3 
--------------------------------------------------------------------------------
Si    core    Harmonic      Three-body cnst  1.2614000    eV*rad^-2 0.000  1.900
O2    shel                  Three-body angl  109.47000    degrees   0.000  1.900
õ(1   shel                  Three-body k4    0.0000000    eV*rad^-4 0.000  3.500
                            Three-body k3    0.0000000    eV*rad^-3 
--------------------------------------------------------------------------------
Si    core    Harmonic      Three-body cnst  1.2614000    eV*rad^-2 0.000  1.900
õ(1   shel                  Three-body angl  109.47000    degrees   0.000  1.900
õ(2   shel                  Three-body k4    0.0000000    eV*rad^-4 0.000  3.500
                            Three-body k3    0.0000000    eV*rad^-3 
--------------------------------------------------------------------------------
Si    core    Harmonic      Three-body cnst  1.2614000    eV*rad^-2 0.000  1.900
O2    shel                  Three-body angl  109.47000    degrees   0.000  1.900
O2    shel                  Three-body k4    0.0000000    eV*rad^-4 0.000  3.500
                            Three-body k3    0.0000000    eV*rad^-3 
--------------------------------------------------------------------------------
Si    core    Harmonic      Three-body cnst  1.2614000    eV*rad^-2 0.000  1.900
O2    shel                  Three-body angl  109.47000    degrees   0.000  1.900
õ(2   shel                  Three-body k4    0.0000000    eV*rad^-4 0.000  3.500
                            Three-body k3    0.0000000    eV*rad^-3 
--------------------------------------------------------------------------------
Si    core    Harmonic      Three-body cnst  1.2614000    eV*rad^-2 0.000  1.900
õ(2   shel                  Three-body angl  109.47000    degrees   0.000  1.900
õ(2   shel                  Three-body k4    0.0000000    eV*rad^-4 0.000  3.500
                            Three-body k3    0.0000000    eV*rad^-3 
--------------------------------------------------------------------------------

********************************************************************************
*  Output for configuration   1 : c00048.vasp                                  *
********************************************************************************


  Components of energy : 

--------------------------------------------------------------------------------
  Interatomic potentials     =         432.36203570 eV    
  Three-body potentials      =           0.00000000 eV    
  Monopole - monopole (real) =       -1236.99964305 eV    
  Monopole - monopole (recip)=        -659.26603192 eV    
  Monopole - monopole (total)=       -1896.26567496 eV    
--------------------------------------------------------------------------------
  Total lattice energy       =       -1463.90363926 eV    
--------------------------------------------------------------------------------
  Total lattice energy       =         -141244.3234 kJ/(mole unit cells)
--------------------------------------------------------------------------------


  Number of variables =      183

  Maximum number of calculations  =          1000
  Maximum Hessian update interval =            10
  Maximum step size               =   0.100000000
  Maximum parameter tolerance     =   0.000010000
  Maximum function  tolerance     =   0.000010000
  Maximum gradient  tolerance     =   0.001000000
  Maximum gradient  component     =   0.010000000

  Symmetry not applied to optimisation

  Cell parameters to be optimised using strains

  Newton-Raphson optimiser to be used

  BFGS hessian update to be used

  Lower half triangular hessian to be used

  Minimiser to switch to RFO
  When gradient norm is less than     0.050000

  Dumpfile to be written after every cycle

  Start of bulk optimisation :

  Cycle:      0 Energy:     -1463.903639  Gnorm:      6.397875  CPU:    0.044
  ** Hessian calculated **
  Cycle:      1 Energy:     -1482.916118  Gnorm:      1.759072  CPU:    0.092
  ** Hessian calculated **
  Cycle:      2 Energy:     -1485.294269  Gnorm:      0.940690  CPU:    0.172
  Cycle:      3 Energy:     -1486.118392  Gnorm:      0.534140  CPU:    0.219
  Cycle:      4 Energy:     -1486.679543  Gnorm:      0.423721  CPU:    0.275
  Cycle:      5 Energy:     -1487.287120  Gnorm:      0.349949  CPU:    0.330
  Cycle:      6 Energy:     -1487.657387  Gnorm:      0.278913  CPU:    0.377
  Cycle:      7 Energy:     -1487.832025  Gnorm:      0.222928  CPU:    0.423
  Cycle:      8 Energy:     -1487.904254  Gnorm:      0.129826  CPU:    0.470
  Cycle:      9 Energy:     -1487.933721  Gnorm:      0.103732  CPU:    0.517
  Cycle:     10 Energy:     -1487.957077  Gnorm:      0.086857  CPU:    0.564
  Cycle:     11 Energy:     -1487.976598  Gnorm:      0.078993  CPU:    0.610
  ** Hessian calculated **
  Cycle:     12 Energy:     -1487.984663  Gnorm:      0.077940  CPU:    0.700
  Cycle:     13 Energy:     -1487.999737  Gnorm:      0.075655  CPU:    0.763
  Cycle:     14 Energy:     -1488.022632  Gnorm:      0.071293  CPU:    0.818
  Cycle:     15 Energy:     -1488.056440  Gnorm:      0.063776  CPU:    0.882
  Cycle:     16 Energy:     -1488.084601  Gnorm:      0.055863  CPU:    0.936
  Cycle:     17 Energy:     -1488.095764  Gnorm:      0.051945  CPU:    0.991
  ** Hessian calculated **
  Cycle:     18 Energy:     -1488.149973  Gnorm:      0.043761  CPU:    1.080
  ** Hessian has wrong structure
  ** Imaginary eigenvectors =   2
  Cycle:     19 Energy:     -1488.175291  Gnorm:      0.094343  CPU:    1.196
  ** Hessian has wrong structure
  ** Imaginary eigenvectors =   2
  ** Hessian has wrong structure
  ** Imaginary eigenvectors =   1
  Cycle:     20 Energy:     -1488.254746  Gnorm:      0.113358  CPU:    1.367
  ** Hessian has wrong structure
  ** Imaginary eigenvectors =   1
  Cycle:     21 Energy:     -1488.298428  Gnorm:      0.134558  CPU:    1.498
  ** Hessian has required structure
  Cycle:     22 Energy:     -1488.434843  Gnorm:      0.074300  CPU:    1.594
  ** Hessian has required structure
  Cycle:     23 Energy:     -1488.492984  Gnorm:      0.049730  CPU:    1.658
  ** Hessian has required structure
  Cycle:     24 Energy:     -1488.527734  Gnorm:      0.033147  CPU:    1.722
  ** Hessian has required structure
  Cycle:     25 Energy:     -1488.546746  Gnorm:      0.027628  CPU:    1.787
  ** Hessian has required structure
  Cycle:     26 Energy:     -1488.556526  Gnorm:      0.017749  CPU:    1.843
  ** Hessian has required structure
  Cycle:     27 Energy:     -1488.563633  Gnorm:      0.023601  CPU:    1.908
  ** Hessian has required structure
  Cycle:     28 Energy:     -1488.567723  Gnorm:      0.012905  CPU:    1.963
  ** Hessian has required structure
  Cycle:     29 Energy:     -1488.571953  Gnorm:      0.026423  CPU:    2.027
  ** Hessian has required structure
  Cycle:     30 Energy:     -1488.575918  Gnorm:      0.029443  CPU:    2.084
  ** Hessian has required structure
  Cycle:     31 Energy:     -1488.583532  Gnorm:      0.036849  CPU:    2.148
  ** Hessian has required structure
  Cycle:     32 Energy:     -1488.600802  Gnorm:      0.034190  CPU:    2.244
  ** Hessian has required structure
  Cycle:     33 Energy:     -1488.621209  Gnorm:      0.036585  CPU:    2.309
  ** Hessian has required structure
  Cycle:     34 Energy:     -1488.643341  Gnorm:      0.036388  CPU:    2.374
  ** Hessian has required structure
  Cycle:     35 Energy:     -1488.654021  Gnorm:      0.030708  CPU:    2.439
  ** Hessian has required structure
  Cycle:     36 Energy:     -1488.663059  Gnorm:      0.020437  CPU:    2.494
  ** Hessian has required structure
  Cycle:     37 Energy:     -1488.671193  Gnorm:      0.026557  CPU:    2.568
  ** Hessian has required structure
  Cycle:     38 Energy:     -1488.674819  Gnorm:      0.016808  CPU:    2.646
  ** Hessian has required structure
  Cycle:     39 Energy:     -1488.678956  Gnorm:      0.011905  CPU:    2.768
  ** Hessian has required structure
  Cycle:     40 Energy:     -1488.682963  Gnorm:      0.014831  CPU:    2.849
  ** Hessian has required structure
  Cycle:     41 Energy:     -1488.685540  Gnorm:      0.011056  CPU:    2.931
  ** Hessian has required structure
  Cycle:     42 Energy:     -1488.688630  Gnorm:      0.007343  CPU:    3.044
  ** Hessian has required structure
  Cycle:     43 Energy:     -1488.689962  Gnorm:      0.005767  CPU:    3.127
  ** Hessian has required structure
  Cycle:     44 Energy:     -1488.690689  Gnorm:      0.003535  CPU:    3.208
  ** Hessian has required structure
  Cycle:     45 Energy:     -1488.691033  Gnorm:      0.002765  CPU:    3.289
  ** Hessian has required structure
  Cycle:     46 Energy:     -1488.691196  Gnorm:      0.001026  CPU:    3.370
  ** Hessian has required structure
  Cycle:     47 Energy:     -1488.691248  Gnorm:      0.001182  CPU:    3.439
  ** Hessian has required structure
  Cycle:     48 Energy:     -1488.691266  Gnorm:      0.000540  CPU:    3.508
  ** Hessian has required structure
  Cycle:     49 Energy:     -1488.691270  Gnorm:      0.000371  CPU:    3.578
  ** Hessian has required structure
  Cycle:     50 Energy:     -1488.691272  Gnorm:      0.000258  CPU:    3.635
  ** Hessian has required structure
  Cycle:     51 Energy:     -1488.691273  Gnorm:      0.000211  CPU:    3.693
  ** Hessian has required structure
  Cycle:     52 Energy:     -1488.691273  Gnorm:      0.000208  CPU:    3.854
  ** Hessian has required structure
  Cycle:     53 Energy:     -1488.691273  Gnorm:      0.000207  CPU:    3.911
  ** Hessian has required structure
  Cycle:     54 Energy:     -1488.691273  Gnorm:      0.000206  CPU:    3.969
  ** Hessian has required structure
  Cycle:     55 Energy:     -1488.691272  Gnorm:      0.000214  CPU:    4.085
  ** Hessian has required structure
  Cycle:     56 Energy:     -1488.691272  Gnorm:      0.000172  CPU:    4.174
  ** Hessian has required structure
  Cycle:     57 Energy:     -1488.691272  Gnorm:      0.000171  CPU:    4.316
  ** Hessian has required structure


  **** Optimisation achieved ****


  Final energy =   -1488.69127246 eV      
  Final Gnorm  =       0.00016448

  Components of energy : 

--------------------------------------------------------------------------------
  Interatomic potentials     =         396.44263125 eV    
  Three-body potentials      =           0.00000000 eV    
  Monopole - monopole (real) =        -660.20584525 eV    
  Monopole - monopole (recip)=       -1224.92805845 eV    
  Monopole - monopole (total)=       -1885.13390371 eV    
--------------------------------------------------------------------------------
  Total lattice energy       =       -1488.69127246 eV    
--------------------------------------------------------------------------------
  Total lattice energy       =         -143635.9511 kJ/(mole unit cells)
--------------------------------------------------------------------------------

  Final fractional coordinates of atoms :

--------------------------------------------------------------------------------
   No.  Atomic        x           y          z          Radius
        Label       (Frac)      (Frac)     (Frac)       (Angs) 
--------------------------------------------------------------------------------
     1  Ge    c     0.313820    0.296860    0.309830    0.000000
     2  Ge    c     0.715759    0.272404    0.714755    0.000000
     3  Ge    c     0.675440    0.692942    0.722181    0.000000
     4  Ge    c     0.354016    0.218461    0.638306    0.000000
     5  Ge    c     0.649932    0.736627    0.385872    0.000000
     6  Ge    c     0.334138    0.620342    0.640782    0.000000
     7  Ge    c     0.108352    0.933968    0.636727    0.000000
     8  Ge    c     0.093585    0.000409    0.173065    0.000000
     9  Si    c     0.312881    0.681598    0.320653    0.000000
    10  Si    c     0.676956    0.329005    0.392880    0.000000
    11  Si    c     0.863116    0.040045    0.329157    0.000000
    12  Si    c     0.927013    0.947124    0.858624    0.000000
    13  O1    c     0.269153    0.228739    0.457261    0.000000
    14  O3    c     0.758751    0.296433    0.560152    0.000000
    15  O1    c     0.698743    0.756237    0.562030    0.000000
    16  O3    c     0.369950    0.591533    0.483155    0.000000
    17  O3    c     0.266821    0.512408    0.237407    0.000000
    18  O1    c     0.709914    0.472740    0.769114    0.000000
    19  O3    c     0.506809    0.262108    0.353142    0.000000
    20  O1    c     0.545397    0.172057    0.686204    0.000000
    21  O1    c     0.494184    0.728229    0.724210    0.000000
    22  O3    c     0.457253    0.779819    0.298859    0.000000
    23  O1    c     0.210972    0.170690    0.182884    0.000000
    24  O3    c     0.861081    0.144297    0.833905    0.000000
    25  O3    c     0.792794    0.813046    0.847012    0.000000
    26  O3    c     0.180741    0.823156    0.294195    0.000000
    27  O1    c     0.328696    0.408465    0.704784    0.000000
    28  O3    c     0.682375    0.530853    0.345625    0.000000
    29  O1    c     0.262300    0.057203    0.704960    0.000000
    30  O2    c     0.764701    0.215492    0.316519    0.000000
    31  O3    c     0.758066    0.874282    0.318469    0.000000
    32  O1    c     0.171551    0.728128    0.624791    0.000000
    33  O3    c     0.005968    0.026492    0.471132    0.000000
    34  O3    c     0.927073    0.054381    0.199953    0.000000
    35  O3    c     0.997489    0.903851    0.740739    0.000000
    36  O3    c     0.054272    0.923449    0.010444    0.000000
    37  O1    s     0.278508    0.233069    0.459031    0.000000
    38  O3    s     0.747500    0.297689    0.556049    0.000000
    39  O1    s     0.693236    0.750124    0.560122    0.000000
    40  O3    s     0.363076    0.600510    0.479951    0.000000
    41  O3    s     0.274624    0.512798    0.250593    0.000000
    42  O1    s     0.707822    0.473189    0.761337    0.000000
    43  O3    s     0.507897    0.271515    0.353563    0.000000
    44  O1    s     0.543928    0.182924    0.684770    0.000000
    45  O1    s     0.495293    0.717707    0.717841    0.000000
    46  O3    s     0.458361    0.767527    0.307391    0.000000
    47  O1    s     0.209497    0.166784    0.191702    0.000000
    48  O3    s     0.855674    0.136042    0.826768    0.000000
    49  O3    s     0.796300    0.816253    0.838035    0.000000
    50  O3    s     0.187624    0.822085    0.288027    0.000000
    51  O1    s     0.330979    0.410739    0.695189    0.000000
    52  O3    s     0.679287    0.526664    0.353569    0.000000
    53  O1    s     0.257307    0.059712    0.694782    0.000000
    54  O2    s     0.765771    0.209070    0.325913    0.000000
    55  O3    s     0.759281    0.879030    0.325297    0.000000
    56  O1    s     0.180224    0.734300    0.626934    0.000000
    57  O3    s     0.000273    0.020085    0.470768    0.000000
    58  O3    s     0.934175    0.048662    0.210411    0.000000
    59  O3    s     0.000058    0.910763    0.743439    0.000000
    60  O3    s     0.044714    0.931958    0.008207    0.000000
--------------------------------------------------------------------------------

  Final Cartesian lattice vectors (Angstroms) :

        9.341026   -0.010068    0.005800
       -0.022767    7.726118    0.388468
       -3.354181    0.503677    9.525473


  Final cell parameters and derivatives :

--------------------------------------------------------------------------------
       a            9.341033 Angstrom     dE/de1(xx)     0.008541 eV/strain
       b            7.735911 Angstrom     dE/de2(yy)     0.008163 eV/strain
       c           10.111323 Angstrom     dE/de3(zz)     0.007498 eV/strain
       alpha       84.374082 Degrees      dE/de4(yz)     0.000051 eV/strain
       beta       109.341243 Degrees      dE/de5(xz)     0.001766 eV/strain
       gamma       90.228516 Degrees      dE/de6(xy)    -0.001236 eV/strain
--------------------------------------------------------------------------------

  Primitive cell volume =           685.785581 Angs**3

  Density of cell =      2.608436 g/cm**3

  Non-primitive cell volume =           685.785581 Angs**3


  Final internal derivatives :

--------------------------------------------------------------------------------
   No.  Atomic          a             b             c           Radius
        Label          (eV)          (eV)          (eV)        (eV/Angs)
--------------------------------------------------------------------------------
      1 Ge    c       0.000000      0.000000      0.000000      0.000000
      2 Ge    c       0.000180     -0.000139     -0.001067      0.000000
      3 Ge    c       0.001031     -0.000181     -0.000181      0.000000
      4 Ge    c      -0.001507     -0.000345      0.001134      0.000000
      5 Ge    c       0.001379      0.000285     -0.000270      0.000000
      6 Ge    c       0.000335     -0.000601     -0.000550      0.000000
      7 Ge    c       0.005340      0.000865     -0.000787      0.000000
      8 Ge    c      -0.001799      0.001377      0.000661      0.000000
      9 Si    c       0.002976     -0.000887      0.001174      0.000000
     10 Si    c      -0.000273      0.000535      0.003130      0.000000
     11 Si    c       0.000572     -0.000388     -0.006752      0.000000
     12 Si    c      -0.003657      0.000453     -0.000211      0.000000
     13 O1    c       0.000850      0.000596     -0.002936      0.000000
     14 O3    c      -0.000807     -0.000133      0.001447      0.000000
     15 O1    c      -0.000407      0.000050      0.001853      0.000000
     16 O3    c      -0.000016     -0.000423      0.000533      0.000000
     17 O3    c      -0.000575     -0.004445     -0.003365      0.000000
     18 O1    c      -0.000222      0.001136      0.000699      0.000000
     19 O3    c      -0.004548     -0.002484     -0.000211      0.000000
     20 O1    c       0.001053     -0.000410     -0.000168      0.000000
     21 O1    c      -0.000931      0.000702      0.000856      0.000000
     22 O3    c       0.000829      0.001864     -0.001183      0.000000
     23 O1    c       0.003166      0.003315     -0.000950      0.000000
     24 O3    c       0.001048     -0.000701      0.000327      0.000000
     25 O3    c       0.001112      0.000778      0.000392      0.000000
     26 O3    c      -0.006973      0.002861      0.004033      0.000000
     27 O1    c       0.000040     -0.000530      0.000023      0.000000
     28 O3    c       0.000763      0.004324     -0.001618      0.000000
     29 O1    c       0.000592      0.001448     -0.000894      0.000000
     30 O2    c       0.000433      0.002705     -0.002648      0.000000
     31 O3    c      -0.005581     -0.005925      0.001131      0.000000
     32 O1    c      -0.001003     -0.002946      0.000046      0.000000
     33 O3    c       0.009154      0.000441      0.004295      0.000000
     34 O3    c      -0.003401      0.000997      0.003063      0.000000
     35 O3    c      -0.006336     -0.001837      0.002796      0.000000
     36 O3    c       0.003564     -0.001043      0.001140      0.000000
     37 O1    s      -0.000423     -0.000875      0.001135      0.000000
     38 O3    s       0.001921      0.000149      0.000820      0.000000
     39 O1    s      -0.000222     -0.000179     -0.000735      0.000000
     40 O3    s       0.001116     -0.000195      0.001066      0.000000
     41 O3    s       0.000660      0.000160     -0.000708      0.000000
     42 O1    s       0.000146     -0.000406     -0.000584      0.000000
     43 O3    s      -0.000500      0.000218     -0.000034      0.000000
     44 O1    s      -0.000835      0.000069      0.000193      0.000000
     45 O1    s       0.000905      0.000020     -0.000631      0.000000
     46 O3    s       0.002466     -0.000687      0.000284      0.000000
     47 O1    s       0.000040     -0.000611      0.000967      0.000000
     48 O3    s      -0.001244      0.000665      0.000313      0.000000
     49 O3    s      -0.001268     -0.000572     -0.000806      0.000000
     50 O3    s       0.000124     -0.000931      0.000043      0.000000
     51 O1    s      -0.000296      0.000036      0.000426      0.000000
     52 O3    s      -0.000887      0.000067      0.001161      0.000000
     53 O1    s       0.001819     -0.000375      0.000295      0.000000
     54 O2    s      -0.000392      0.001690     -0.000032      0.000000
     55 O3    s      -0.001134     -0.000309     -0.002280      0.000000
     56 O1    s       0.001908      0.000341     -0.000376      0.000000
     57 O3    s      -0.001362      0.001488     -0.001524      0.000000
     58 O3    s       0.002676     -0.000991     -0.004599      0.000000
     59 O3    s       0.001229      0.000455     -0.000123      0.000000
     60 O3    s      -0.001906     -0.000219     -0.000800      0.000000
--------------------------------------------------------------------------------
  Maximum abs         0.009154      0.005925      0.006752      0.000000
--------------------------------------------------------------------------------


  Born effective charge tensors : 

-------------------------------------------------------------------------------
  Atom             x           y             z
-------------------------------------------------------------------------------
    1 Ge    x       3.8217      0.3020      0.3408
            y       0.3176      4.2010      0.2472
            z       0.1286      0.2696      3.6470
-------------------------------------------------------------------------------
    2 Ge    x       3.7972     -0.0222      0.2791
            y      -0.3696      4.2159     -0.1187
            z       0.1619     -0.1191      3.6160
-------------------------------------------------------------------------------
    3 Ge    x       3.9466      0.2358      0.2021
            y       0.2670      4.2152      0.1863
            z       0.1592      0.1443      3.6519
-------------------------------------------------------------------------------
    4 Ge    x       4.1545      0.3375     -0.1233
            y       0.2656      4.2035      0.0892
            z       0.1737     -0.0088      3.4462
-------------------------------------------------------------------------------
    5 Ge    x       4.0151      0.3143     -0.0231
            y       0.3716      4.0943      0.1214
            z       0.0155      0.0660      3.4630
-------------------------------------------------------------------------------
    6 Ge    x       4.2102     -0.1101      0.1848
            y      -0.3672      4.1861     -0.1452
            z      -0.1467      0.2168      3.2235
-------------------------------------------------------------------------------
    7 Ge    x       4.4511     -0.1999      0.0589
            y       0.1046      3.8993      0.2205
            z      -0.3482     -0.1617      3.6016
-------------------------------------------------------------------------------
    8 Ge    x       3.9693     -0.0487      0.3822
            y       0.2148      3.9094     -0.1490
            z      -0.0907      0.5181      4.3258
-------------------------------------------------------------------------------
    9 Si    x       3.6240     -0.1116      0.0438
            y      -0.3644      3.9854      0.0873
            z       0.4377     -0.2919      3.0905
-------------------------------------------------------------------------------
   10 Si    x       3.6053     -0.0355     -0.0684
            y      -0.1842      3.8688     -0.0278
            z       0.1694      0.0493      3.1247
-------------------------------------------------------------------------------
   11 Si    x       4.1524      0.1547     -0.1541
            y       0.0934      3.5104      0.0971
            z      -0.2409      0.0531      3.4812
-------------------------------------------------------------------------------
   12 Si    x       3.6757     -0.2340     -0.1526
            y       0.1786      3.6363      0.1524
            z       0.4770      0.0736      4.3680
-------------------------------------------------------------------------------
   13 O1    x      -1.6110     -0.2223      0.3471
            y      -0.2179     -1.5102      0.1203
            z       0.2551      0.1473     -2.5511
-------------------------------------------------------------------------------
   14 O3    x      -1.4174      0.0487      0.2169
            y       0.0989     -1.3646      0.1566
            z       0.2240      0.1293     -2.5583
-------------------------------------------------------------------------------
   15 O1    x      -1.5126     -0.1498      0.3445
            y      -0.1528     -1.4746     -0.0238
            z       0.3555      0.0084     -2.7381
-------------------------------------------------------------------------------
   16 O3    x      -1.4473      0.0430      0.2464
            y       0.1066     -1.5342      0.1748
            z       0.2511      0.2037     -2.3806
-------------------------------------------------------------------------------
   17 O3    x      -1.2256      0.0212     -0.0965
            y       0.0310     -2.8290     -0.2382
            z      -0.1246     -0.2301     -1.4380
-------------------------------------------------------------------------------
   18 O1    x      -1.3234      0.1842     -0.0553
            y       0.2663     -3.3515     -0.1376
            z      -0.0396     -0.1350     -1.4060
-------------------------------------------------------------------------------
   19 O3    x      -2.9405     -0.1672     -0.4358
            y      -0.1034     -1.4363     -0.0772
            z      -0.4360     -0.0962     -1.2434
-------------------------------------------------------------------------------
   20 O1    x      -2.9930     -0.2162     -0.4277
            y      -0.1266     -1.5711     -0.0078
            z      -0.4651     -0.0043     -1.3357
-------------------------------------------------------------------------------
   21 O1    x      -2.8344     -0.2426     -0.4060
            y      -0.1674     -1.5735     -0.1809
            z      -0.4215     -0.2500     -1.4597
-------------------------------------------------------------------------------
   22 O3    x      -2.7286     -0.3115     -0.2844
            y      -0.2230     -1.4954      0.0462
            z      -0.3199      0.0809     -1.2721
-------------------------------------------------------------------------------
   23 O1    x      -1.8600     -0.8091     -0.5061
            y      -0.8254     -2.4796     -0.6450
            z      -0.4450     -0.7674     -1.9043
-------------------------------------------------------------------------------
   24 O3    x      -1.6288      0.7047     -0.3562
            y       0.6738     -2.4374      0.5025
            z      -0.4376      0.5440     -1.7276
-------------------------------------------------------------------------------
   25 O3    x      -1.9639     -0.7389     -0.4058
            y      -0.8315     -2.0804     -0.5309
            z      -0.4873     -0.5153     -1.7426
-------------------------------------------------------------------------------
   26 O3    x      -1.8871      0.8555     -0.3762
            y       0.8000     -2.3120      0.5128
            z      -0.3739      0.5447     -1.5818
-------------------------------------------------------------------------------
   27 O1    x      -1.4177      0.0517      0.1237
            y       0.0914     -3.0944     -0.0538
            z       0.1381     -0.0561     -1.3845
-------------------------------------------------------------------------------
   28 O3    x      -1.3403      0.0514      0.0784
            y       0.0997     -3.1923     -0.0063
            z       0.0415      0.0399     -1.1708
-------------------------------------------------------------------------------
   29 O1    x      -2.4524     -0.9970     -0.0532
            y      -0.9932     -2.2662     -0.0395
            z       0.0063      0.0384     -1.4038
-------------------------------------------------------------------------------
   30 O2    x      -1.8034      0.6838      0.2677
            y       0.6678     -1.9255     -0.2215
            z       0.2064     -0.1902     -1.1899
-------------------------------------------------------------------------------
   31 O3    x      -2.2563     -1.0201      0.1718
            y      -1.0328     -2.4107      0.1130
            z       0.1696      0.0967     -1.2284
-------------------------------------------------------------------------------
   32 O1    x      -2.4408      1.0475      0.0024
            y       0.9854     -2.4873     -0.0660
            z       0.1545     -0.1133     -1.2190
-------------------------------------------------------------------------------
   33 O3    x      -1.8407      0.1610     -0.7299
            y       0.0816     -1.3125      0.1886
            z      -0.5004      0.2793     -2.4534
-------------------------------------------------------------------------------
   34 O3    x      -2.6677      0.2198      0.7872
            y       0.1636     -1.2457     -0.0341
            z       0.9114     -0.1230     -2.0123
-------------------------------------------------------------------------------
   35 O3    x      -2.4532      0.1539      1.0032
            y       0.0712     -1.2588     -0.1626
            z       0.9258     -0.1128     -2.1641
-------------------------------------------------------------------------------
   36 O3    x      -1.3770      0.0659     -0.4264
            y       0.0090     -1.2825     -0.1503
            z      -0.4852     -0.3282     -3.4738
-------------------------------------------------------------------------------




  Elastic Constant Matrix: (Units=GPa)

-------------------------------------------------------------------------------
  Indices      1         2         3         4         5         6    
-------------------------------------------------------------------------------
       1     50.3126   26.4176   13.9234    3.1791    3.1255   -9.5487
       2     26.4176   47.9276   14.4996    7.5465    6.4513   -6.1135
       3     13.9234   14.4996   24.8196    8.5038    6.4393    5.0487
       4      3.1791    7.5465    8.5038   10.6477    4.2883    3.9343
       5      3.1255    6.4513    6.4393    4.2883    8.2087    5.0349
       6     -9.5487   -6.1135    5.0487    3.9343    5.0349   19.2258
-------------------------------------------------------------------------------


  Elastic Compliance Matrix: (Units=1/GPa)

-------------------------------------------------------------------------------
  Indices      1         2         3         4         5         6    
-------------------------------------------------------------------------------
       1    0.033879 -0.011906 -0.016831  0.007305 -0.004705  0.017198
       2   -0.011906  0.036917 -0.008046 -0.013748 -0.020946  0.016238
       3   -0.016831 -0.008046  0.074483 -0.035467 -0.015399 -0.019187
       4    0.007305 -0.013748 -0.035467  0.148118 -0.033595 -0.012942
       5   -0.004705 -0.020946 -0.015399 -0.033595  0.200779 -0.050660
       6    0.017198  0.016238 -0.019187 -0.012942 -0.050660  0.086672
-------------------------------------------------------------------------------

  Mechanical properties :

-------------------------------------------------------------------------------
  Convention :                    Reuss         Voigt         Hill
-------------------------------------------------------------------------------
  Bulk  Modulus (GPa)     =      13.94441      25.86013      19.90227
  Shear Modulus (GPa)     =       7.37116      12.16436       9.76776
-------------------------------------------------------------------------------
  Velocity S-wave (km/s)  =       1.68104       2.15951       1.93512
  Velocity P-wave (km/s)  =       3.01890       4.01647       3.55287
-------------------------------------------------------------------------------
  Compressibility (1/GPa) =    0.07171334
-------------------------------------------------------------------------------
  Stress axis :                     x             y             z
-------------------------------------------------------------------------------
  Youngs Moduli (GPa)     =      29.51645      27.08802      13.42582
-------------------------------------------------------------------------------
  Poissons Ratio (x)      =                     0.32250       0.22597
  Poissons Ratio (y)      =       0.35141                     0.10803
  Poissons Ratio (z)      =       0.49680       0.21796
-------------------------------------------------------------------------------


  Piezoelectric Strain Matrix: (Units=C/m**2)

-------------------------------------------------------------------------------
  Indices      1         2         3         4         5         6    
-------------------------------------------------------------------------------
       x    -1.63851  -1.26225   0.16958  -0.03291   0.21066   0.57775
       y     0.09795   0.10415  -0.43715   0.07808   0.21461   0.34444
       z    -1.29777  -1.56572  -1.63775  -1.12112   1.47805  -0.66835
-------------------------------------------------------------------------------


  Piezoelectric Stress Matrix: (Units=10**-11 C/N)

-------------------------------------------------------------------------------
  Indices      1         2         3         4         5         6    
-------------------------------------------------------------------------------
       x    -3.46339  -2.30341   3.72040  -2.00604   4.56705  -1.21002
       y     1.49206   0.62204  -4.77296   1.46851   2.71063   2.97337
       z    -2.44001  -5.55718  -5.77181 -13.69319  43.24052 -13.46152
-------------------------------------------------------------------------------


  Static dielectric constant tensor : 

-------------------------------------------------------------------------------
              x         y         z
-------------------------------------------------------------------------------
       x     5.47498   0.15827   0.40069
       y     0.15827   5.39780   0.23996
       z     0.40069   0.23996   4.28477
--------------------------------------------------------------------------------

  High frequency dielectric constant tensor : 

-------------------------------------------------------------------------------
              x         y         z
-------------------------------------------------------------------------------
       x     1.58712  -0.00081   0.00756
       y    -0.00081   1.59034   0.00715
       z     0.00756   0.00715   1.54352
-------------------------------------------------------------------------------

  Static refractive indices : 

-------------------------------------------------------------------------------
    1 =    2.03350      2 =    2.29686      3 =    2.39726
-------------------------------------------------------------------------------

  High frequency refractive indices : 

-------------------------------------------------------------------------------
    1 =    1.24145      2 =    1.26029      3 =    1.26152
-------------------------------------------------------------------------------


  Time to end of optimisation =       4.4329 seconds


  Peak dynamic memory used =       2.76 MB 


  Timing analysis for GULP :

--------------------------------------------------------------------------------
  Task / Subroutine                                          Time (Seconds)
--------------------------------------------------------------------------------
  Calculation of reciprocal space energy and derivatives          0.2455
  Calculation of real space energy and derivatives                3.7892
  Calculation of three-body energy and derivatives                0.0338
  Calculation and manipulation of Hessian matrix                  0.4921
  Calculation of matrix inversion                                 0.0039
  Global summation overhead                                       0.0001
--------------------------------------------------------------------------------
  Total CPU time                                                  4.4329
--------------------------------------------------------------------------------


  Dump file written as c00048.vasp.grs
  CIF file written as c00048.vasp.cif


  Job Finished at 11:39.23 22nd October    2025                               

