********************************************************************************
*                       GENERAL UTILITY LATTICE PROGRAM                        *
*                                 Julian Gale                                  *
*                       Curtin Institute for Computation                       *
*                    School of Molecular and Life Sciences                     *
*                    Curtin University, Western Australia                      *
********************************************************************************
* Version = 6.1.2 * Last modified =   3rd November 2022                        *
********************************************************************************
*  optimise     - perform optimisation run                                     *
*  conp         - constant pressure calculation                                *
*  property     - calculate properties for final geometry                      *
********************************************************************************

  Job Started  at 11:37.53 22nd October    2025                               

  Number of CPUs =     1


  Total number of configurations input =      1

********************************************************************************
*  Input for Configuration =   1 : c00027.vasp                                 *
********************************************************************************

  Formula = Ge8Si4O24                                                   

  Number of irreducible atoms/shells =      60


  Total number atoms/shells =      60

  Dimensionality = 3               :  Bulk   



  Cartesian lattice vectors (Angstroms) :

        9.086940    0.000000    0.000000
        0.000000    7.554810    0.000000
       -3.295144    0.000000    9.944380

  Cell parameters (Angstroms/Degrees):

  a =       9.0869    alpha =  90.0000
  b =       7.5548    beta  = 108.3330
  c =      10.4761    gamma =  90.0000

  Initial cell volume =         682.682735 Angs**3

  Temperature of configuration =   0.00     K 

  Pressure of configuration =         0.000 GPa 

  Fractional coordinates of asymmetric unit :

--------------------------------------------------------------------------------
   No.  Atomic       x           y          z         Charge      Occupancy
        Label      (Frac)      (Frac)     (Frac)        (e)         (Frac)  
--------------------------------------------------------------------------------
      1 Ge    c    0.313820    0.296860    0.309830     4.00000    1.000000    
      2 Ge    c    0.686180 *  0.296860 *  0.690170 *   4.00000    1.000000    
      3 Ge    c    0.686180 *  0.703140 *  0.690170 *   4.00000    1.000000    
      4 Ge    c    0.331050 *  0.296920 *  0.607380 *   4.00000    1.000000    
      5 Ge    c    0.668950 *  0.296920 *  0.392620 *   4.00000    1.000000    
      6 Ge    c    0.668950 *  0.703080 *  0.392620 *   4.00000    1.000000    
      7 Ge    c    0.331050 *  0.703080 *  0.607380 *   4.00000    1.000000    
      8 Ge    c    0.093070 *  0.000000 *  0.158230 *   4.00000    1.000000    
      9 Si    c    0.313820 *  0.703140 *  0.309830 *   4.00000    1.000000    
     10 Si    c    0.879680 *  0.000000 *  0.350160 *   4.00000    1.000000    
     11 Si    c    0.120320 *  0.000000 *  0.649840 *   4.00000    1.000000    
     12 Si    c    0.906930 *  0.000000 *  0.841770 *   4.00000    1.000000    
     13 O1    c    0.268740 *  0.279030 *  0.446100 *   1.73396    1.000000    
     14 O1    c    0.731260 *  0.279030 *  0.553900 *   1.73396    1.000000    
     15 O1    c    0.731260 *  0.720970 *  0.553900 *   1.73396    1.000000    
     16 O3    c    0.268740 *  0.720970 *  0.446100 *   1.33043    1.000000    
     17 O3    c    0.295480 *  0.500000 *  0.260860 *   1.33043    1.000000    
     18 O1    c    0.704520 *  0.500000 *  0.739140 *   1.73396    1.000000    
     19 O1    c    0.490600 *  0.234690 *  0.337530 *   1.73396    1.000000    
     20 O1    c    0.509400 *  0.234690 *  0.662470 *   1.73396    1.000000    
     21 O1    c    0.509400 *  0.765310 *  0.662470 *   1.73396    1.000000    
     22 O3    c    0.490600 *  0.765310 *  0.337530 *   1.33043    1.000000    
     23 O1    c    0.200440 *  0.174000 *  0.194980 *   1.73396    1.000000    
     24 O3    c    0.799560 *  0.174000 *  0.805020 *   1.33043    1.000000    
     25 O3    c    0.799560 *  0.826000 *  0.805020 *   1.33043    1.000000    
     26 O3    c    0.200440 *  0.826000 *  0.194980 *   1.33043    1.000000    
     27 O1    c    0.317860 *  0.500000 *  0.649090 *   1.73396    1.000000    
     28 O1    c    0.682140 *  0.500000 *  0.350910 *   1.73396    1.000000    
     29 O3    c    0.227920 *  0.173870 *  0.671620 *   1.33043    1.000000    
     30 O3    c    0.772080 *  0.173870 *  0.328380 *   1.33043    1.000000    
     31 O3    c    0.772080 *  0.826130 *  0.328380 *   1.33043    1.000000    
     32 O3    c    0.227920 *  0.826130 *  0.671620 *   1.33043    1.000000    
     33 O2    c    0.000000 *  0.000000 *  0.500000 *   0.87073    1.000000    
     34 O3    c    0.971960 *  0.000000 *  0.241930 *   1.33043    1.000000    
     35 O2    c    0.028040 *  0.000000 *  0.758070 *   0.87073    1.000000    
     36 O3    c    0.000000 *  0.000000 *  0.000000 *   1.33043    1.000000    
     37 O1    s    0.268740 *  0.279030 *  0.446100 *  -3.73396    1.000000    
     38 O1    s    0.731260 *  0.279030 *  0.553900 *  -3.73396    1.000000    
     39 O1    s    0.731260 *  0.720970 *  0.553900 *  -3.73396    1.000000    
     40 O3    s    0.268740 *  0.720970 *  0.446100 *  -3.33043    1.000000    
     41 O3    s    0.295480 *  0.500000 *  0.260860 *  -3.33043    1.000000    
     42 O1    s    0.704520 *  0.500000 *  0.739140 *  -3.73396    1.000000    
     43 O1    s    0.490600 *  0.234690 *  0.337530 *  -3.73396    1.000000    
     44 O1    s    0.509400 *  0.234690 *  0.662470 *  -3.73396    1.000000    
     45 O1    s    0.509400 *  0.765310 *  0.662470 *  -3.73396    1.000000    
     46 O3    s    0.490600 *  0.765310 *  0.337530 *  -3.33043    1.000000    
     47 O1    s    0.200440 *  0.174000 *  0.194980 *  -3.73396    1.000000    
     48 O3    s    0.799560 *  0.174000 *  0.805020 *  -3.33043    1.000000    
     49 O3    s    0.799560 *  0.826000 *  0.805020 *  -3.33043    1.000000    
     50 O3    s    0.200440 *  0.826000 *  0.194980 *  -3.33043    1.000000    
     51 O1    s    0.317860 *  0.500000 *  0.649090 *  -3.73396    1.000000    
     52 O1    s    0.682140 *  0.500000 *  0.350910 *  -3.73396    1.000000    
     53 O3    s    0.227920 *  0.173870 *  0.671620 *  -3.33043    1.000000    
     54 O3    s    0.772080 *  0.173870 *  0.328380 *  -3.33043    1.000000    
     55 O3    s    0.772080 *  0.826130 *  0.328380 *  -3.33043    1.000000    
     56 O3    s    0.227920 *  0.826130 *  0.671620 *  -3.33043    1.000000    
     57 O2    s    0.000000 *  0.000000 *  0.500000 *  -2.87073    1.000000    
     58 O3    s    0.971960 *  0.000000 *  0.241930 *  -3.33043    1.000000    
     59 O2    s    0.028040 *  0.000000 *  0.758070 *  -2.87073    1.000000    
     60 O3    s    0.000000 *  0.000000 *  0.000000 *  -3.33043    1.000000    
--------------------------------------------------------------------------------



********************************************************************************
*  General input information                                                   *
********************************************************************************

  Species output for all configurations : 

--------------------------------------------------------------------------------
  Species    Type    Atomic    Atomic    Charge       Radii (Angs)     Library
                     Number     Mass       (e)     Cova   Ionic  VDW   Symbol
--------------------------------------------------------------------------------
    Ge       Core       32      72.61   4.000000   1.170  0.000  1.750 Ge       
    Si       Core       14      28.09   4.000000   1.200  0.000  2.100 Si       
    O1       Core        8      16.00   1.733957   0.730  0.000  1.360 O1       
    O2       Core        8      16.00   0.870733   0.730  0.000  1.360 O2       
    O3       Core        8      16.00   1.330431   0.730  0.000  1.360 O3       
    O1       Shell       8       0.00  -3.733957   0.730  0.000  0.000 O1       
    O2       Shell       8       0.00  -2.870733   0.730  0.000  0.000 O2       
    O3       Shell       8       0.00  -3.330431   0.730  0.000  0.000 O3       
--------------------------------------------------------------------------------


  Lattice summation method               =    Ewald          (3-D)
                                         =    Parry          (2-D)
                                         =    Saunders et al (1-D)
  Accuracy factor for lattice sums       =   12.000


  Analytic derivatives to be used

  Time limit = Infinity

  Maximum range for interatomic potentials =    100000.000000 Angstroms

  General interatomic potentials :

--------------------------------------------------------------------------------
Atom  Types   Potential      Parameter       Value         Units   Cutoffs(Ang)
  1     2                                                            Min /  Max 
--------------------------------------------------------------------------------
Si   c O1   s Buckingham    Buckingham A     1315.2478    eV        0.000 16.000
                            Buckingham rho  0.31775900    Ang       
                            Buckingham C     10.141118    eV*Ang^6  
--------------------------------------------------------------------------------
Si   c O2   s Buckingham    Buckingham A     1315.2478    eV        0.000 16.000
                            Buckingham rho  0.31775900    Ang       
                            Buckingham C     10.141118    eV*Ang^6  
--------------------------------------------------------------------------------
Si   c O3   s Buckingham    Buckingham A     1315.2478    eV        0.000 16.000
                            Buckingham rho  0.31775900    Ang       
                            Buckingham C     10.141118    eV*Ang^6  
--------------------------------------------------------------------------------
Ge   c O1   s Buckingham    Buckingham A     1497.3996    eV        0.000 16.000
                            Buckingham rho  0.32564600    Ang       
                            Buckingham C     16.808599    eV*Ang^6  
--------------------------------------------------------------------------------
Ge   c O2   s Buckingham    Buckingham A     1497.3996    eV        0.000 16.000
                            Buckingham rho  0.32564600    Ang       
                            Buckingham C     16.808599    eV*Ang^6  
--------------------------------------------------------------------------------
Ge   c O3   s Buckingham    Buckingham A     1497.3996    eV        0.000 16.000
                            Buckingham rho  0.32564600    Ang       
                            Buckingham C     16.808599    eV*Ang^6  
--------------------------------------------------------------------------------
O1   s O1   s Buckingham    Buckingham A     22764.000    eV        0.000 16.000
                            Buckingham rho  0.14900000    Ang       
                            Buckingham C     10.937044    eV*Ang^6  
--------------------------------------------------------------------------------
O1   s O2   s Buckingham    Buckingham A     22764.000    eV        0.000 16.000
                            Buckingham rho  0.14900000    Ang       
                            Buckingham C     10.937044    eV*Ang^6  
--------------------------------------------------------------------------------
O1   s O3   s Buckingham    Buckingham A     22764.000    eV        0.000 16.000
                            Buckingham rho  0.14900000    Ang       
                            Buckingham C     10.937044    eV*Ang^6  
--------------------------------------------------------------------------------
O2   s O2   s Buckingham    Buckingham A     22764.000    eV        0.000 16.000
                            Buckingham rho  0.14900000    Ang       
                            Buckingham C     10.937044    eV*Ang^6  
--------------------------------------------------------------------------------
O2   s O3   s Buckingham    Buckingham A     22764.000    eV        0.000 16.000
                            Buckingham rho  0.14900000    Ang       
                            Buckingham C     10.937044    eV*Ang^6  
--------------------------------------------------------------------------------
O3   s O3   s Buckingham    Buckingham A     22764.000    eV        0.000 16.000
                            Buckingham rho  0.14900000    Ang       
                            Buckingham C     10.937044    eV*Ang^6  
--------------------------------------------------------------------------------
O1   c O1   s Spring (c-s)  Spring k 2       180.31577    eV*Ang^-2 0.000  0.800
                            Spring k 4       0.0000000    eV*Ang^-4 
--------------------------------------------------------------------------------
O2   c O2   s Spring (c-s)  Spring k 2       75.969800    eV*Ang^-2 0.000  0.800
                            Spring k 4       0.0000000    eV*Ang^-4 
--------------------------------------------------------------------------------
O3   c O3   s Spring (c-s)  Spring k 2       128.14270    eV*Ang^-2 0.000  0.800
                            Spring k 4       0.0000000    eV*Ang^-4 
--------------------------------------------------------------------------------

  General Three-body potentials :

--------------------------------------------------------------------------------
  Atoms       Potential      Parameter       Value         Units   Cutoffs(Ang)
  1 / 2 / 3                                                          Min /  Max 
--------------------------------------------------------------------------------
Si    core    Harmonic      Three-body cnst  1.2614000    eV*rad^-2 0.000  1.900
O1    shel                  Three-body angl  109.47000    degrees   0.000  1.900
O1    shel                  Three-body k4    0.0000000    eV*rad^-4 0.000  3.500
                            Three-body k3    0.0000000    eV*rad^-3 
--------------------------------------------------------------------------------
Si    core    Harmonic      Three-body cnst  1.2614000    eV*rad^-2 0.000  1.900
O1    shel                  Three-body angl  109.47000    degrees   0.000  1.900
õ(1   shel                  Three-body k4    0.0000000    eV*rad^-4 0.000  3.500
                            Three-body k3    0.0000000    eV*rad^-3 
--------------------------------------------------------------------------------
Si    core    Harmonic      Three-body cnst  1.2614000    eV*rad^-2 0.000  1.900
õ(1   shel                  Three-body angl  109.47000    degrees   0.000  1.900
õ(1   shel                  Three-body k4    0.0000000    eV*rad^-4 0.000  3.500
                            Three-body k3    0.0000000    eV*rad^-3 
--------------------------------------------------------------------------------
Si    core    Harmonic      Three-body cnst  1.2614000    eV*rad^-2 0.000  1.900
O1    shel                  Three-body angl  109.47000    degrees   0.000  1.900
O2    shel                  Three-body k4    0.0000000    eV*rad^-4 0.000  3.500
                            Three-body k3    0.0000000    eV*rad^-3 
--------------------------------------------------------------------------------
Si    core    Harmonic      Three-body cnst  1.2614000    eV*rad^-2 0.000  1.900
O1    shel                  Three-body angl  109.47000    degrees   0.000  1.900
õ(2   shel                  Three-body k4    0.0000000    eV*rad^-4 0.000  3.500
                            Three-body k3    0.0000000    eV*rad^-3 
--------------------------------------------------------------------------------
Si    core    Harmonic      Three-body cnst  1.2614000    eV*rad^-2 0.000  1.900
O2    shel                  Three-body angl  109.47000    degrees   0.000  1.900
õ(1   shel                  Three-body k4    0.0000000    eV*rad^-4 0.000  3.500
                            Three-body k3    0.0000000    eV*rad^-3 
--------------------------------------------------------------------------------
Si    core    Harmonic      Three-body cnst  1.2614000    eV*rad^-2 0.000  1.900
õ(1   shel                  Three-body angl  109.47000    degrees   0.000  1.900
õ(2   shel                  Three-body k4    0.0000000    eV*rad^-4 0.000  3.500
                            Three-body k3    0.0000000    eV*rad^-3 
--------------------------------------------------------------------------------
Si    core    Harmonic      Three-body cnst  1.2614000    eV*rad^-2 0.000  1.900
O2    shel                  Three-body angl  109.47000    degrees   0.000  1.900
O2    shel                  Three-body k4    0.0000000    eV*rad^-4 0.000  3.500
                            Three-body k3    0.0000000    eV*rad^-3 
--------------------------------------------------------------------------------
Si    core    Harmonic      Three-body cnst  1.2614000    eV*rad^-2 0.000  1.900
O2    shel                  Three-body angl  109.47000    degrees   0.000  1.900
õ(2   shel                  Three-body k4    0.0000000    eV*rad^-4 0.000  3.500
                            Three-body k3    0.0000000    eV*rad^-3 
--------------------------------------------------------------------------------
Si    core    Harmonic      Three-body cnst  1.2614000    eV*rad^-2 0.000  1.900
õ(2   shel                  Three-body angl  109.47000    degrees   0.000  1.900
õ(2   shel                  Three-body k4    0.0000000    eV*rad^-4 0.000  3.500
                            Three-body k3    0.0000000    eV*rad^-3 
--------------------------------------------------------------------------------

********************************************************************************
*  Output for configuration   1 : c00027.vasp                                  *
********************************************************************************


  Components of energy : 

--------------------------------------------------------------------------------
  Interatomic potentials     =         432.34328076 eV    
  Three-body potentials      =           0.00007244 eV    
  Monopole - monopole (real) =       -1236.99964305 eV    
  Monopole - monopole (recip)=        -659.26603192 eV    
  Monopole - monopole (total)=       -1896.26567496 eV    
--------------------------------------------------------------------------------
  Total lattice energy       =       -1463.92232176 eV    
--------------------------------------------------------------------------------
  Total lattice energy       =         -141246.1259 kJ/(mole unit cells)
--------------------------------------------------------------------------------


  Number of variables =      183

  Maximum number of calculations  =          1000
  Maximum Hessian update interval =            10
  Maximum step size               =   0.100000000
  Maximum parameter tolerance     =   0.000010000
  Maximum function  tolerance     =   0.000010000
  Maximum gradient  tolerance     =   0.001000000
  Maximum gradient  component     =   0.010000000

  Symmetry not applied to optimisation

  Cell parameters to be optimised using strains

  Newton-Raphson optimiser to be used

  BFGS hessian update to be used

  Lower half triangular hessian to be used

  Minimiser to switch to RFO
  When gradient norm is less than     0.050000

  Dumpfile to be written after every cycle

  Start of bulk optimisation :

  Cycle:      0 Energy:     -1463.922322  Gnorm:      6.463981  CPU:    0.037
  ** Hessian calculated **
  Cycle:      1 Energy:     -1479.453109  Gnorm:      3.637913  CPU:    0.107
  ** Hessian calculated **
  Cycle:      2 Energy:     -1485.363432  Gnorm:      1.001536  CPU:    0.172
  Cycle:      3 Energy:     -1486.126213  Gnorm:      0.418530  CPU:    0.213
  Cycle:      4 Energy:     -1486.447523  Gnorm:      0.310181  CPU:    0.261
  Cycle:      5 Energy:     -1486.790280  Gnorm:      0.271682  CPU:    0.309
  Cycle:      6 Energy:     -1487.046069  Gnorm:      0.244425  CPU:    0.349
  Cycle:      7 Energy:     -1487.216452  Gnorm:      0.198746  CPU:    0.388
  Cycle:      8 Energy:     -1487.318856  Gnorm:      0.172028  CPU:    0.428
  Cycle:      9 Energy:     -1487.390422  Gnorm:      0.138044  CPU:    0.468
  Cycle:     10 Energy:     -1487.446282  Gnorm:      0.127943  CPU:    0.516
  Cycle:     11 Energy:     -1487.491254  Gnorm:      0.123457  CPU:    0.556
  ** Hessian calculated **
  Cycle:     12 Energy:     -1487.514266  Gnorm:      0.121234  CPU:    0.629
  Cycle:     13 Energy:     -1487.551521  Gnorm:      0.117256  CPU:    0.684
  Cycle:     14 Energy:     -1487.597371  Gnorm:      0.111433  CPU:    0.739
  Cycle:     15 Energy:     -1487.634222  Gnorm:      0.105628  CPU:    0.787
  ** Hessian calculated **
  Cycle:     16 Energy:     -1487.696928  Gnorm:      0.095480  CPU:    0.861
  Cycle:     17 Energy:     -1487.725455  Gnorm:      0.101417  CPU:    0.901
  ** Hessian calculated **
  Cycle:     18 Energy:     -1487.962639  Gnorm:      0.077509  CPU:    0.974
  Cycle:     19 Energy:     -1488.079995  Gnorm:      0.068590  CPU:    1.014
  Cycle:     20 Energy:     -1488.089562  Gnorm:      0.093628  CPU:    1.053
  ** Hessian calculated **
  Cycle:     21 Energy:     -1488.114881  Gnorm:      0.048137  CPU:    1.119
  ** Hessian has required structure
  Cycle:     22 Energy:     -1488.118284  Gnorm:      0.075933  CPU:    1.159
  ** Hessian has required structure
  Cycle:     23 Energy:     -1488.122688  Gnorm:      0.085810  CPU:    1.206
  ** Hessian has required structure
  Cycle:     24 Energy:     -1488.126230  Gnorm:      0.085683  CPU:    1.246
  ** Hessian has required structure
  Cycle:     25 Energy:     -1488.131960  Gnorm:      0.055058  CPU:    1.287
  ** Hessian has required structure
  Cycle:     26 Energy:     -1488.132941  Gnorm:      0.055335  CPU:    1.327
  ** Hessian has required structure
  Cycle:     27 Energy:     -1488.134555  Gnorm:      0.068613  CPU:    1.375
  ** Hessian has required structure
  Cycle:     28 Energy:     -1488.137622  Gnorm:      0.071914  CPU:    1.422
  ** Hessian has required structure
  Cycle:     29 Energy:     -1488.140892  Gnorm:      0.065223  CPU:    1.461
  ** Hessian has required structure
  Cycle:     30 Energy:     -1488.142818  Gnorm:      0.045742  CPU:    1.501
  ** Hessian has wrong structure
  ** Imaginary eigenvectors =   3
  Cycle:     31 Energy:     -1488.187520  Gnorm:      0.070559  CPU:    1.632
  ** Hessian has wrong structure
  ** Imaginary eigenvectors =   1
  Cycle:     32 Energy:     -1488.263242  Gnorm:      0.104269  CPU:    1.748
  ** Hessian has required structure
  Cycle:     33 Energy:     -1488.421296  Gnorm:      0.079500  CPU:    1.827
  ** Hessian has required structure
  Cycle:     34 Energy:     -1488.477575  Gnorm:      0.041313  CPU:    1.874
  ** Hessian has required structure
  Cycle:     35 Energy:     -1488.512844  Gnorm:      0.035732  CPU:    1.928
  ** Hessian has required structure
  Cycle:     36 Energy:     -1488.524635  Gnorm:      0.035697  CPU:    1.975
  ** Hessian has required structure
  Cycle:     37 Energy:     -1488.534886  Gnorm:      0.022328  CPU:    2.022
  ** Hessian has required structure
  Cycle:     38 Energy:     -1488.541470  Gnorm:      0.021804  CPU:    2.068
  ** Hessian has required structure
  Cycle:     39 Energy:     -1488.545681  Gnorm:      0.015737  CPU:    2.123
  ** Hessian has required structure
  Cycle:     40 Energy:     -1488.549127  Gnorm:      0.013553  CPU:    2.177
  ** Hessian has required structure
  Cycle:     41 Energy:     -1488.550893  Gnorm:      0.008190  CPU:    2.224
  ** Hessian has required structure
  Cycle:     42 Energy:     -1488.551971  Gnorm:      0.008894  CPU:    2.279
  ** Hessian has required structure
  Cycle:     43 Energy:     -1488.552792  Gnorm:      0.004482  CPU:    2.359
  ** Hessian has required structure
  Cycle:     44 Energy:     -1488.553019  Gnorm:      0.002282  CPU:    2.413
  ** Hessian has required structure
  Cycle:     45 Energy:     -1488.553089  Gnorm:      0.001149  CPU:    2.467
  ** Hessian has required structure
  Cycle:     46 Energy:     -1488.553109  Gnorm:      0.000573  CPU:    2.521
  ** Hessian has required structure
  Cycle:     47 Energy:     -1488.553115  Gnorm:      0.000283  CPU:    2.575
  ** Hessian has required structure


  **** Optimisation achieved ****


  Final energy =   -1488.55311637 eV      
  Final Gnorm  =       0.00019621

  Components of energy : 

--------------------------------------------------------------------------------
  Interatomic potentials     =         395.35840817 eV    
  Three-body potentials      =           0.00013379 eV    
  Monopole - monopole (real) =        -658.15142235 eV    
  Monopole - monopole (recip)=       -1225.76023599 eV    
  Monopole - monopole (total)=       -1883.91165834 eV    
--------------------------------------------------------------------------------
  Total lattice energy       =       -1488.55311637 eV    
--------------------------------------------------------------------------------
  Total lattice energy       =         -143622.6211 kJ/(mole unit cells)
--------------------------------------------------------------------------------

  Final fractional coordinates of atoms :

--------------------------------------------------------------------------------
   No.  Atomic        x           y          z          Radius
        Label       (Frac)      (Frac)     (Frac)       (Angs) 
--------------------------------------------------------------------------------
     1  Ge    c     0.313820    0.296860    0.309830    0.000000
     2  Ge    c     0.689762    0.212815    0.725798    0.000000
     3  Ge    c     0.741844    0.616271    0.737111    0.000000
     4  Ge    c     0.319993    0.289397    0.632434    0.000000
     5  Ge    c     0.678852    0.208280    0.402539    0.000000
     6  Ge    c     0.734468    0.608533    0.417898    0.000000
     7  Ge    c     0.371124    0.688236    0.646171    0.000000
     8  Ge    c     0.129253    0.978817    0.166089    0.000000
     9  Si    c     0.372729    0.686201    0.331899    0.000000
    10  Si    c     0.913110    0.910213    0.353386    0.000000
    11  Si    c     0.125677    0.984335    0.651680    0.000000
    12  Si    c     0.935789    0.921474    0.857936    0.000000
    13  O1    c     0.318135    0.232008    0.470795    0.000000
    14  O1    c     0.667324    0.151600    0.560526    0.000000
    15  O1    c     0.747589    0.679052    0.578441    0.000000
    16  O3    c     0.390806    0.735869    0.487962    0.000000
    17  O3    c     0.272780    0.518039    0.293294    0.000000
    18  O1    c     0.785570    0.399948    0.759365    0.000000
    19  O1    c     0.495494    0.248300    0.293028    0.000000
    20  O1    c     0.504959    0.248758    0.740307    0.000000
    21  O1    c     0.557690    0.658203    0.751879    0.000000
    22  O3    c     0.542676    0.639937    0.316686    0.000000
    23  O1    c     0.174303    0.188679    0.194137    0.000000
    24  O3    c     0.788137    0.054742    0.842253    0.000000
    25  O3    c     0.878933    0.730313    0.854635    0.000000
    26  O3    c     0.294493    0.848229    0.236479    0.000000
    27  O1    c     0.272722    0.505083    0.639266    0.000000
    28  O1    c     0.780608    0.391899    0.418116    0.000000
    29  O3    c     0.180524    0.176190    0.675407    0.000000
    30  O3    c     0.765418    0.041018    0.336443    0.000000
    31  O3    c     0.862364    0.716990    0.356728    0.000000
    32  O3    c     0.275939    0.854261    0.706198    0.000000
    33  O2    c     0.052346    0.949440    0.489936    0.000000
    34  O3    c     0.976722    0.928658    0.224771    0.000000
    35  O2    c     0.994671    0.960533    0.725822    0.000000
    36  O3    c     0.074867    0.948319    0.992061    0.000000
    37  O1    s     0.317945    0.241321    0.471022    0.000000
    38  O1    s     0.669906    0.160566    0.561020    0.000000
    39  O1    s     0.746127    0.668843    0.577985    0.000000
    40  O3    s     0.387484    0.727226    0.485625    0.000000
    41  O3    s     0.285109    0.516896    0.298080    0.000000
    42  O1    s     0.775126    0.402598    0.755205    0.000000
    43  O1    s     0.495760    0.248896    0.302512    0.000000
    44  O1    s     0.504788    0.249127    0.731251    0.000000
    45  O1    s     0.557118    0.657397    0.742821    0.000000
    46  O3    s     0.541137    0.641942    0.325972    0.000000
    47  O1    s     0.181468    0.180964    0.200804    0.000000
    48  O3    s     0.794384    0.054619    0.834535    0.000000
    49  O3    s     0.873813    0.740066    0.845841    0.000000
    50  O3    s     0.288878    0.842615    0.240397    0.000000
    51  O1    s     0.283588    0.502777    0.639295    0.000000
    52  O1    s     0.769848    0.394713    0.416952    0.000000
    53  O3    s     0.185983    0.166114    0.669726    0.000000
    54  O3    s     0.773142    0.041622    0.343649    0.000000
    55  O3    s     0.857044    0.727114    0.361332    0.000000
    56  O3    s     0.268998    0.853523    0.696015    0.000000
    57  O2    s     0.045691    0.948943    0.492512    0.000000
    58  O3    s     0.982938    0.930976    0.232941    0.000000
    59  O2    s     0.003073    0.959349    0.730884    0.000000
    60  O3    s     0.064814    0.948007    0.992335    0.000000
--------------------------------------------------------------------------------

  Final Cartesian lattice vectors (Angstroms) :

        9.001916    0.261813    0.109053
        0.220085    7.788919    0.059870
       -3.143807   -0.010571    9.744706


  Final cell parameters and derivatives :

--------------------------------------------------------------------------------
       a            9.006383 Angstrom     dE/de1(xx)     0.004384 eV/strain
       b            7.792258 Angstrom     dE/de2(yy)     0.008335 eV/strain
       c           10.239284 Angstrom     dE/de3(zz)     0.005089 eV/strain
       alpha       90.137039 Degrees      dE/de4(yz)    -0.000549 eV/strain
       beta       107.180804 Degrees      dE/de5(xz)     0.000156 eV/strain
       gamma       86.710542 Degrees      dE/de6(xy)    -0.002183 eV/strain
--------------------------------------------------------------------------------

  Primitive cell volume =           685.317054 Angs**3

  Density of cell =      2.610219 g/cm**3

  Non-primitive cell volume =           685.317054 Angs**3


  Final internal derivatives :

--------------------------------------------------------------------------------
   No.  Atomic          a             b             c           Radius
        Label          (eV)          (eV)          (eV)        (eV/Angs)
--------------------------------------------------------------------------------
      1 Ge    c       0.000000      0.000000      0.000000      0.000000
      2 Ge    c      -0.001991     -0.000292      0.001168      0.000000
      3 Ge    c      -0.000076      0.001881      0.000634      0.000000
      4 Ge    c       0.003571      0.002500     -0.005462      0.000000
      5 Ge    c      -0.001182      0.000103      0.001444      0.000000
      6 Ge    c       0.000455      0.000831     -0.001195      0.000000
      7 Ge    c       0.003397     -0.003971      0.001401      0.000000
      8 Ge    c      -0.001887      0.004345      0.000939      0.000000
      9 Si    c       0.004579     -0.002740     -0.002641      0.000000
     10 Si    c      -0.000193     -0.001533      0.003676      0.000000
     11 Si    c      -0.006130      0.003144     -0.000872      0.000000
     12 Si    c       0.001742     -0.000679     -0.001978      0.000000
     13 O1    c       0.002895      0.000497      0.004314      0.000000
     14 O1    c      -0.001325      0.000701     -0.002640      0.000000
     15 O1    c       0.001360      0.000654     -0.001578      0.000000
     16 O3    c      -0.000888      0.004223     -0.000368      0.000000
     17 O3    c      -0.001806      0.001239      0.000638      0.000000
     18 O1    c       0.001064     -0.006671      0.000141      0.000000
     19 O1    c       0.002603      0.000094     -0.000224      0.000000
     20 O1    c       0.003807      0.001500     -0.002397      0.000000
     21 O1    c      -0.007849     -0.000258      0.000538      0.000000
     22 O3    c      -0.008262     -0.000412      0.002296      0.000000
     23 O1    c      -0.002391     -0.003054     -0.000930      0.000000
     24 O3    c      -0.001366      0.002502     -0.000478      0.000000
     25 O3    c      -0.000040     -0.000157      0.001610      0.000000
     26 O3    c       0.004639      0.000370     -0.002254      0.000000
     27 O1    c      -0.000458     -0.001563     -0.001731      0.000000
     28 O1    c      -0.000020     -0.001423     -0.000734      0.000000
     29 O3    c      -0.002661      0.003551      0.007032      0.000000
     30 O3    c      -0.001255      0.001104     -0.001534      0.000000
     31 O3    c       0.001659      0.001098     -0.001196      0.000000
     32 O3    c       0.008157     -0.008204      0.007013      0.000000
     33 O2    c      -0.000341     -0.000013     -0.007301      0.000000
     34 O3    c       0.004005      0.000261     -0.005731      0.000000
     35 O2    c      -0.002406     -0.000884      0.003245      0.000000
     36 O3    c       0.001390      0.000458     -0.002992      0.000000
     37 O1    s      -0.000692      0.000256     -0.002832      0.000000
     38 O1    s       0.000490      0.000198      0.003226      0.000000
     39 O1    s      -0.001742     -0.000578      0.000535      0.000000
     40 O3    s       0.004023      0.000206      0.000198      0.000000
     41 O3    s       0.001280     -0.000915     -0.002125      0.000000
     42 O1    s      -0.000996      0.002344     -0.000760      0.000000
     43 O1    s      -0.001468     -0.000810      0.000302      0.000000
     44 O1    s      -0.002242     -0.000621      0.000611      0.000000
     45 O1    s       0.005157     -0.000064     -0.001635      0.000000
     46 O3    s       0.004490     -0.001281      0.000144      0.000000
     47 O1    s       0.000819      0.002383      0.002355      0.000000
     48 O3    s      -0.000898     -0.000026      0.000679      0.000000
     49 O3    s       0.000391     -0.000109     -0.000654      0.000000
     50 O3    s      -0.001372     -0.000534     -0.000697      0.000000
     51 O1    s       0.001120     -0.000561      0.000639      0.000000
     52 O1    s       0.000857      0.000104      0.001152      0.000000
     53 O3    s       0.003089      0.004584     -0.001319      0.000000
     54 O3    s      -0.000903      0.000143      0.000339      0.000000
     55 O3    s      -0.001127     -0.000698      0.001204      0.000000
     56 O3    s      -0.000970     -0.000493      0.001188      0.000000
     57 O2    s      -0.003096     -0.000667     -0.001078      0.000000
     58 O3    s      -0.001926     -0.000396      0.001812      0.000000
     59 O2    s      -0.004330      0.000208      0.001034      0.000000
     60 O3    s      -0.001213     -0.000533      0.001627      0.000000
--------------------------------------------------------------------------------
  Maximum abs         0.008262      0.008204      0.007301      0.000000
--------------------------------------------------------------------------------


  Born effective charge tensors : 

-------------------------------------------------------------------------------
  Atom             x           y             z
-------------------------------------------------------------------------------
    1 Ge    x       3.9132      0.3122      0.0794
            y       0.2438      4.2129      0.3560
            z       0.3123      0.1457      3.6644
-------------------------------------------------------------------------------
    2 Ge    x       3.9438     -0.4233      0.1597
            y       0.0294      4.1610     -0.1537
            z       0.2765     -0.0939      3.5889
-------------------------------------------------------------------------------
    3 Ge    x       3.9293      0.2558      0.0674
            y       0.2112      4.2688      0.2806
            z       0.2492      0.0251      3.5765
-------------------------------------------------------------------------------
    4 Ge    x       4.0858      0.2225      0.1583
            y       0.3231      4.2568     -0.1081
            z       0.0048      0.1113      3.4116
-------------------------------------------------------------------------------
    5 Ge    x       4.0038     -0.4254      0.1265
            y      -0.0425      4.2085      0.1535
            z      -0.0025     -0.1139      3.4678
-------------------------------------------------------------------------------
    6 Ge    x       4.0107      0.2364      0.0804
            y       0.3168      4.2354     -0.1174
            z      -0.0812      0.1562      3.3748
-------------------------------------------------------------------------------
    7 Ge    x       4.1139     -0.3970      0.1383
            y      -0.0493      4.1238      0.1815
            z       0.0180     -0.1129      3.3390
-------------------------------------------------------------------------------
    8 Ge    x       3.8238      0.3373      0.2044
            y      -0.1367      3.9384     -0.0296
            z      -0.0262      0.1560      4.5894
-------------------------------------------------------------------------------
    9 Si    x       3.6095     -0.4569      0.0801
            y       0.0585      3.9402     -0.1602
            z       0.2366     -0.2479      3.3854
-------------------------------------------------------------------------------
   10 Si    x       4.0061      0.2248     -0.3591
            y      -0.1551      3.6660     -0.1011
            z      -0.3560     -0.0404      3.3689
-------------------------------------------------------------------------------
   11 Si    x       3.7386      0.1812      0.2497
            y      -0.1775      3.6585     -0.0311
            z      -0.3435      0.0037      2.9672
-------------------------------------------------------------------------------
   12 Si    x       3.5059      0.2232     -0.0468
            y      -0.1140      3.6318     -0.0321
            z       0.7540      0.1821      4.1008
-------------------------------------------------------------------------------
   13 O1    x      -1.5376     -0.1237      0.4940
            y      -0.1118     -1.5330      0.0493
            z       0.4225      0.0127     -2.6307
-------------------------------------------------------------------------------
   14 O1    x      -1.5205      0.1024      0.3993
            y       0.0150     -1.5032     -0.0034
            z       0.3693      0.0187     -2.6475
-------------------------------------------------------------------------------
   15 O1    x      -1.5100     -0.1207      0.3792
            y      -0.1022     -1.5126     -0.0621
            z       0.3958     -0.0736     -2.6590
-------------------------------------------------------------------------------
   16 O3    x      -1.4702      0.1179      0.4125
            y       0.0336     -1.3913     -0.0963
            z       0.3969     -0.0367     -2.4961
-------------------------------------------------------------------------------
   17 O3    x      -1.4174     -0.2564     -0.1030
            y      -0.3449     -2.9375     -0.1616
            z      -0.1551     -0.1299     -1.2388
-------------------------------------------------------------------------------
   18 O1    x      -1.4332     -0.1540     -0.0970
            y      -0.2823     -3.2784     -0.0761
            z      -0.1412     -0.0223     -1.2919
-------------------------------------------------------------------------------
   19 O1    x      -2.8899      0.3384     -0.4832
            y       0.2695     -1.4910      0.0147
            z      -0.4535      0.0761     -1.5126
-------------------------------------------------------------------------------
   20 O1    x      -2.9770      0.2669     -0.4916
            y       0.1672     -1.4481      0.1184
            z      -0.4769      0.0913     -1.5087
-------------------------------------------------------------------------------
   21 O1    x      -2.9722      0.2535     -0.4978
            y       0.1752     -1.4308     -0.0154
            z      -0.5309      0.0719     -1.5481
-------------------------------------------------------------------------------
   22 O3    x      -2.8504      0.2857     -0.3521
            y       0.1569     -1.3750      0.0691
            z      -0.3584      0.0662     -1.3339
-------------------------------------------------------------------------------
   23 O1    x      -1.6726     -0.7367     -0.4702
            y      -0.6103     -2.6868     -0.6846
            z      -0.4743     -0.7028     -1.8992
-------------------------------------------------------------------------------
   24 O3    x      -1.9342      0.7535     -0.2977
            y       0.7601     -2.1486      0.5110
            z      -0.4068      0.4823     -1.6674
-------------------------------------------------------------------------------
   25 O3    x      -1.6055     -0.7413     -0.2764
            y      -0.6794     -2.5002     -0.4681
            z      -0.4152     -0.4971     -1.6578
-------------------------------------------------------------------------------
   26 O3    x      -1.7168      0.6617     -0.4985
            y       0.6250     -2.2818      0.7489
            z      -0.4957      0.7750     -1.8510
-------------------------------------------------------------------------------
   27 O1    x      -1.5792     -0.1566     -0.0234
            y      -0.2751     -3.2311     -0.0810
            z       0.0332     -0.0302     -1.1755
-------------------------------------------------------------------------------
   28 O1    x      -1.5835     -0.1286     -0.0654
            y      -0.2671     -3.2549     -0.0853
            z      -0.0061     -0.0554     -1.1760
-------------------------------------------------------------------------------
   29 O3    x      -2.0304     -0.9107      0.0290
            y      -0.8448     -2.5494     -0.0024
            z       0.1559     -0.0065     -1.1801
-------------------------------------------------------------------------------
   30 O3    x      -2.2985      0.9688      0.1335
            y       0.9476     -2.2143     -0.1648
            z       0.1243     -0.1313     -1.2550
-------------------------------------------------------------------------------
   31 O3    x      -2.0445     -0.9051      0.2166
            y      -0.8277     -2.5033      0.2166
            z       0.2101      0.1397     -1.2257
-------------------------------------------------------------------------------
   32 O3    x      -2.2666      0.9452     -0.0859
            y       0.9418     -2.1781      0.0070
            z       0.0306      0.0106     -1.2820
-------------------------------------------------------------------------------
   33 O2    x      -1.4738     -0.1061     -0.4000
            y      -0.0071     -1.2176     -0.1758
            z      -0.2031     -0.2022     -2.0678
-------------------------------------------------------------------------------
   34 O3    x      -2.4797     -0.3119      0.9167
            y      -0.1425     -1.2367      0.1462
            z       0.9540      0.1900     -2.1932
-------------------------------------------------------------------------------
   35 O2    x      -2.0021     -0.1979      0.6495
            y      -0.0800     -1.1888      0.1315
            z       0.6240      0.1470     -1.7587
-------------------------------------------------------------------------------
   36 O3    x      -1.4188     -0.1352     -0.4264
            y      -0.0243     -1.2093     -0.1736
            z      -0.6413     -0.3646     -3.5782
-------------------------------------------------------------------------------




  Elastic Constant Matrix: (Units=GPa)

-------------------------------------------------------------------------------
  Indices      1         2         3         4         5         6    
-------------------------------------------------------------------------------
       1     31.6666   12.3310    6.2124    1.1926    0.1525   10.8970
       2     12.3310   52.1186    7.7277    4.3832    2.2902   17.8520
       3      6.2124    7.7277   24.6332    5.4787    4.4498    6.8631
       4      1.1926    4.3832    5.4787   10.2948    2.5529    3.8638
       5      0.1525    2.2902    4.4498    2.5529    9.2963    2.2876
       6     10.8970   17.8520    6.8631    3.8638    2.2876   22.4502
-------------------------------------------------------------------------------


  Elastic Compliance Matrix: (Units=1/GPa)

-------------------------------------------------------------------------------
  Indices      1         2         3         4         5         6    
-------------------------------------------------------------------------------
       1    0.039484 -0.003665 -0.006603  0.004917  0.005925 -0.015682
       2   -0.003665  0.026931 -0.001583 -0.003133 -0.000386 -0.018574
       3   -0.006603 -0.001583  0.052016 -0.019546 -0.017484 -0.006292
       4    0.004917 -0.003133 -0.019546  0.117660 -0.019260 -0.012208
       5    0.005925 -0.000386 -0.017484 -0.019260  0.122806 -0.006423
       6   -0.015682 -0.018574 -0.006292 -0.012208 -0.006423  0.071603
-------------------------------------------------------------------------------

  Mechanical properties :

-------------------------------------------------------------------------------
  Convention :                    Reuss         Voigt         Hill
-------------------------------------------------------------------------------
  Bulk  Modulus (GPa)     =      10.55628      17.88451      14.22040
  Shear Modulus (GPa)     =      10.29273      13.88475      12.08874
-------------------------------------------------------------------------------
  Velocity S-wave (km/s)  =       1.98576       2.30638       2.15205
  Velocity P-wave (km/s)  =       3.04990       3.73420       3.40926
-------------------------------------------------------------------------------
  Compressibility (1/GPa) =    0.09473032
-------------------------------------------------------------------------------
  Stress axis :                     x             y             z
-------------------------------------------------------------------------------
  Youngs Moduli (GPa)     =      25.32657      37.13151      19.22481
-------------------------------------------------------------------------------
  Poissons Ratio (x)      =                     0.13609       0.12693
  Poissons Ratio (y)      =       0.09282                     0.03043
  Poissons Ratio (z)      =       0.16722       0.05878
-------------------------------------------------------------------------------


  Piezoelectric Strain Matrix: (Units=C/m**2)

-------------------------------------------------------------------------------
  Indices      1         2         3         4         5         6    
-------------------------------------------------------------------------------
       x    -1.09463   1.19868   2.27126  -0.00376   1.21213  -0.17973
       y    -0.01576   1.03029   0.45165   0.49198   0.04336   0.31485
       z    -0.20925   0.35679  -0.21804  -0.26017   0.95716  -0.17508
-------------------------------------------------------------------------------


  Piezoelectric Stress Matrix: (Units=10**-11 C/N)

-------------------------------------------------------------------------------
  Indices      1         2         3         4         5         6    
-------------------------------------------------------------------------------
       x    -5.26286   3.55812  10.34835  -7.51234  10.34248  -3.99989
       y    -0.96422   1.96841   0.96107   4.10755  -1.45609  -0.54717
       z    -0.09930   1.44183  -2.10730  -4.47941  12.61160  -1.74812
-------------------------------------------------------------------------------


  Static dielectric constant tensor : 

-------------------------------------------------------------------------------
              x         y         z
-------------------------------------------------------------------------------
       x     5.91174   0.28290   0.65397
       y     0.28290   5.99356   0.12061
       z     0.65397   0.12061   4.14360
--------------------------------------------------------------------------------

  High frequency dielectric constant tensor : 

-------------------------------------------------------------------------------
              x         y         z
-------------------------------------------------------------------------------
       x     1.58533   0.00336   0.00761
       y     0.00336   1.59275   0.00071
       z     0.00761   0.00071   1.54624
-------------------------------------------------------------------------------

  Static refractive indices : 

-------------------------------------------------------------------------------
    1 =    1.98184      2 =    2.39729      3 =    2.52472
-------------------------------------------------------------------------------

  High frequency refractive indices : 

-------------------------------------------------------------------------------
    1 =    1.24291      2 =    1.25905      3 =    1.26266
-------------------------------------------------------------------------------


  Time to end of optimisation =       2.7080 seconds


  Peak dynamic memory used =       2.76 MB 


  Timing analysis for GULP :

--------------------------------------------------------------------------------
  Task / Subroutine                                          Time (Seconds)
--------------------------------------------------------------------------------
  Calculation of reciprocal space energy and derivatives          0.1834
  Calculation of real space energy and derivatives                2.2623
  Calculation of three-body energy and derivatives                0.0282
  Calculation and manipulation of Hessian matrix                  0.2975
  Calculation of matrix inversion                                 0.0052
--------------------------------------------------------------------------------
  Total CPU time                                                  2.7081
--------------------------------------------------------------------------------


  Dump file written as c00027.vasp.grs
  CIF file written as c00027.vasp.cif


  Job Finished at 11:37.56 22nd October    2025                               

