********************************************************************************
*                       GENERAL UTILITY LATTICE PROGRAM                        *
*                                 Julian Gale                                  *
*                       Curtin Institute for Computation                       *
*                    School of Molecular and Life Sciences                     *
*                    Curtin University, Western Australia                      *
********************************************************************************
* Version = 6.1.2 * Last modified =   3rd November 2022                        *
********************************************************************************
*  optimise     - perform optimisation run                                     *
*  conp         - constant pressure calculation                                *
*  property     - calculate properties for final geometry                      *
********************************************************************************

  Job Started  at 11:36.58 22nd October    2025                               

  Number of CPUs =     1


  Total number of configurations input =      1

********************************************************************************
*  Input for Configuration =   1 : c00014.vasp                                 *
********************************************************************************

  Formula = Ge8Si4O24                                                   

  Number of irreducible atoms/shells =      60


  Total number atoms/shells =      60

  Dimensionality = 3               :  Bulk   



  Cartesian lattice vectors (Angstroms) :

        9.086940    0.000000    0.000000
        0.000000    7.554810    0.000000
       -3.295144    0.000000    9.944380

  Cell parameters (Angstroms/Degrees):

  a =       9.0869    alpha =  90.0000
  b =       7.5548    beta  = 108.3330
  c =      10.4761    gamma =  90.0000

  Initial cell volume =         682.682735 Angs**3

  Temperature of configuration =   0.00     K 

  Pressure of configuration =         0.000 GPa 

  Fractional coordinates of asymmetric unit :

--------------------------------------------------------------------------------
   No.  Atomic       x           y          z         Charge      Occupancy
        Label      (Frac)      (Frac)     (Frac)        (e)         (Frac)  
--------------------------------------------------------------------------------
      1 Ge    c    0.313820    0.296860    0.309830     4.00000    1.000000    
      2 Ge    c    0.686180 *  0.296860 *  0.690170 *   4.00000    1.000000    
      3 Ge    c    0.686180 *  0.703140 *  0.690170 *   4.00000    1.000000    
      4 Ge    c    0.313820 *  0.703140 *  0.309830 *   4.00000    1.000000    
      5 Ge    c    0.331050 *  0.296920 *  0.607380 *   4.00000    1.000000    
      6 Ge    c    0.331050 *  0.703080 *  0.607380 *   4.00000    1.000000    
      7 Ge    c    0.879680 *  0.000000 *  0.350160 *   4.00000    1.000000    
      8 Ge    c    0.120320 *  0.000000 *  0.649840 *   4.00000    1.000000    
      9 Si    c    0.668950 *  0.296920 *  0.392620 *   4.00000    1.000000    
     10 Si    c    0.668950 *  0.703080 *  0.392620 *   4.00000    1.000000    
     11 Si    c    0.093070 *  0.000000 *  0.158230 *   4.00000    1.000000    
     12 Si    c    0.906930 *  0.000000 *  0.841770 *   4.00000    1.000000    
     13 O1    c    0.268740 *  0.279030 *  0.446100 *   1.73396    1.000000    
     14 O3    c    0.731260 *  0.279030 *  0.553900 *   1.33043    1.000000    
     15 O3    c    0.731260 *  0.720970 *  0.553900 *   1.33043    1.000000    
     16 O1    c    0.268740 *  0.720970 *  0.446100 *   1.73396    1.000000    
     17 O1    c    0.295480 *  0.500000 *  0.260860 *   1.73396    1.000000    
     18 O1    c    0.704520 *  0.500000 *  0.739140 *   1.73396    1.000000    
     19 O3    c    0.490600 *  0.234690 *  0.337530 *   1.33043    1.000000    
     20 O1    c    0.509400 *  0.234690 *  0.662470 *   1.73396    1.000000    
     21 O1    c    0.509400 *  0.765310 *  0.662470 *   1.73396    1.000000    
     22 O3    c    0.490600 *  0.765310 *  0.337530 *   1.33043    1.000000    
     23 O3    c    0.200440 *  0.174000 *  0.194980 *   1.33043    1.000000    
     24 O3    c    0.799560 *  0.174000 *  0.805020 *   1.33043    1.000000    
     25 O3    c    0.799560 *  0.826000 *  0.805020 *   1.33043    1.000000    
     26 O3    c    0.200440 *  0.826000 *  0.194980 *   1.33043    1.000000    
     27 O1    c    0.317860 *  0.500000 *  0.649090 *   1.73396    1.000000    
     28 O2    c    0.682140 *  0.500000 *  0.350910 *   0.87073    1.000000    
     29 O1    c    0.227920 *  0.173870 *  0.671620 *   1.73396    1.000000    
     30 O3    c    0.772080 *  0.173870 *  0.328380 *   1.33043    1.000000    
     31 O3    c    0.772080 *  0.826130 *  0.328380 *   1.33043    1.000000    
     32 O1    c    0.227920 *  0.826130 *  0.671620 *   1.73396    1.000000    
     33 O1    c    0.000000 *  0.000000 *  0.500000 *   1.73396    1.000000    
     34 O3    c    0.971960 *  0.000000 *  0.241930 *   1.33043    1.000000    
     35 O3    c    0.028040 *  0.000000 *  0.758070 *   1.33043    1.000000    
     36 O2    c    0.000000 *  0.000000 *  0.000000 *   0.87073    1.000000    
     37 O1    s    0.268740 *  0.279030 *  0.446100 *  -3.73396    1.000000    
     38 O3    s    0.731260 *  0.279030 *  0.553900 *  -3.33043    1.000000    
     39 O3    s    0.731260 *  0.720970 *  0.553900 *  -3.33043    1.000000    
     40 O1    s    0.268740 *  0.720970 *  0.446100 *  -3.73396    1.000000    
     41 O1    s    0.295480 *  0.500000 *  0.260860 *  -3.73396    1.000000    
     42 O1    s    0.704520 *  0.500000 *  0.739140 *  -3.73396    1.000000    
     43 O3    s    0.490600 *  0.234690 *  0.337530 *  -3.33043    1.000000    
     44 O1    s    0.509400 *  0.234690 *  0.662470 *  -3.73396    1.000000    
     45 O1    s    0.509400 *  0.765310 *  0.662470 *  -3.73396    1.000000    
     46 O3    s    0.490600 *  0.765310 *  0.337530 *  -3.33043    1.000000    
     47 O3    s    0.200440 *  0.174000 *  0.194980 *  -3.33043    1.000000    
     48 O3    s    0.799560 *  0.174000 *  0.805020 *  -3.33043    1.000000    
     49 O3    s    0.799560 *  0.826000 *  0.805020 *  -3.33043    1.000000    
     50 O3    s    0.200440 *  0.826000 *  0.194980 *  -3.33043    1.000000    
     51 O1    s    0.317860 *  0.500000 *  0.649090 *  -3.73396    1.000000    
     52 O2    s    0.682140 *  0.500000 *  0.350910 *  -2.87073    1.000000    
     53 O1    s    0.227920 *  0.173870 *  0.671620 *  -3.73396    1.000000    
     54 O3    s    0.772080 *  0.173870 *  0.328380 *  -3.33043    1.000000    
     55 O3    s    0.772080 *  0.826130 *  0.328380 *  -3.33043    1.000000    
     56 O1    s    0.227920 *  0.826130 *  0.671620 *  -3.73396    1.000000    
     57 O1    s    0.000000 *  0.000000 *  0.500000 *  -3.73396    1.000000    
     58 O3    s    0.971960 *  0.000000 *  0.241930 *  -3.33043    1.000000    
     59 O3    s    0.028040 *  0.000000 *  0.758070 *  -3.33043    1.000000    
     60 O2    s    0.000000 *  0.000000 *  0.000000 *  -2.87073    1.000000    
--------------------------------------------------------------------------------



********************************************************************************
*  General input information                                                   *
********************************************************************************

  Species output for all configurations : 

--------------------------------------------------------------------------------
  Species    Type    Atomic    Atomic    Charge       Radii (Angs)     Library
                     Number     Mass       (e)     Cova   Ionic  VDW   Symbol
--------------------------------------------------------------------------------
    Ge       Core       32      72.61   4.000000   1.170  0.000  1.750 Ge       
    Si       Core       14      28.09   4.000000   1.200  0.000  2.100 Si       
    O1       Core        8      16.00   1.733957   0.730  0.000  1.360 O1       
    O2       Core        8      16.00   0.870733   0.730  0.000  1.360 O2       
    O3       Core        8      16.00   1.330431   0.730  0.000  1.360 O3       
    O1       Shell       8       0.00  -3.733957   0.730  0.000  0.000 O1       
    O2       Shell       8       0.00  -2.870733   0.730  0.000  0.000 O2       
    O3       Shell       8       0.00  -3.330431   0.730  0.000  0.000 O3       
--------------------------------------------------------------------------------


  Lattice summation method               =    Ewald          (3-D)
                                         =    Parry          (2-D)
                                         =    Saunders et al (1-D)
  Accuracy factor for lattice sums       =   12.000


  Analytic derivatives to be used

  Time limit = Infinity

  Maximum range for interatomic potentials =    100000.000000 Angstroms

  General interatomic potentials :

--------------------------------------------------------------------------------
Atom  Types   Potential      Parameter       Value         Units   Cutoffs(Ang)
  1     2                                                            Min /  Max 
--------------------------------------------------------------------------------
Si   c O1   s Buckingham    Buckingham A     1315.2478    eV        0.000 16.000
                            Buckingham rho  0.31775900    Ang       
                            Buckingham C     10.141118    eV*Ang^6  
--------------------------------------------------------------------------------
Si   c O2   s Buckingham    Buckingham A     1315.2478    eV        0.000 16.000
                            Buckingham rho  0.31775900    Ang       
                            Buckingham C     10.141118    eV*Ang^6  
--------------------------------------------------------------------------------
Si   c O3   s Buckingham    Buckingham A     1315.2478    eV        0.000 16.000
                            Buckingham rho  0.31775900    Ang       
                            Buckingham C     10.141118    eV*Ang^6  
--------------------------------------------------------------------------------
Ge   c O1   s Buckingham    Buckingham A     1497.3996    eV        0.000 16.000
                            Buckingham rho  0.32564600    Ang       
                            Buckingham C     16.808599    eV*Ang^6  
--------------------------------------------------------------------------------
Ge   c O2   s Buckingham    Buckingham A     1497.3996    eV        0.000 16.000
                            Buckingham rho  0.32564600    Ang       
                            Buckingham C     16.808599    eV*Ang^6  
--------------------------------------------------------------------------------
Ge   c O3   s Buckingham    Buckingham A     1497.3996    eV        0.000 16.000
                            Buckingham rho  0.32564600    Ang       
                            Buckingham C     16.808599    eV*Ang^6  
--------------------------------------------------------------------------------
O1   s O1   s Buckingham    Buckingham A     22764.000    eV        0.000 16.000
                            Buckingham rho  0.14900000    Ang       
                            Buckingham C     10.937044    eV*Ang^6  
--------------------------------------------------------------------------------
O1   s O2   s Buckingham    Buckingham A     22764.000    eV        0.000 16.000
                            Buckingham rho  0.14900000    Ang       
                            Buckingham C     10.937044    eV*Ang^6  
--------------------------------------------------------------------------------
O1   s O3   s Buckingham    Buckingham A     22764.000    eV        0.000 16.000
                            Buckingham rho  0.14900000    Ang       
                            Buckingham C     10.937044    eV*Ang^6  
--------------------------------------------------------------------------------
O2   s O2   s Buckingham    Buckingham A     22764.000    eV        0.000 16.000
                            Buckingham rho  0.14900000    Ang       
                            Buckingham C     10.937044    eV*Ang^6  
--------------------------------------------------------------------------------
O2   s O3   s Buckingham    Buckingham A     22764.000    eV        0.000 16.000
                            Buckingham rho  0.14900000    Ang       
                            Buckingham C     10.937044    eV*Ang^6  
--------------------------------------------------------------------------------
O3   s O3   s Buckingham    Buckingham A     22764.000    eV        0.000 16.000
                            Buckingham rho  0.14900000    Ang       
                            Buckingham C     10.937044    eV*Ang^6  
--------------------------------------------------------------------------------
O1   c O1   s Spring (c-s)  Spring k 2       180.31577    eV*Ang^-2 0.000  0.800
                            Spring k 4       0.0000000    eV*Ang^-4 
--------------------------------------------------------------------------------
O2   c O2   s Spring (c-s)  Spring k 2       75.969800    eV*Ang^-2 0.000  0.800
                            Spring k 4       0.0000000    eV*Ang^-4 
--------------------------------------------------------------------------------
O3   c O3   s Spring (c-s)  Spring k 2       128.14270    eV*Ang^-2 0.000  0.800
                            Spring k 4       0.0000000    eV*Ang^-4 
--------------------------------------------------------------------------------

  General Three-body potentials :

--------------------------------------------------------------------------------
  Atoms       Potential      Parameter       Value         Units   Cutoffs(Ang)
  1 / 2 / 3                                                          Min /  Max 
--------------------------------------------------------------------------------
Si    core    Harmonic      Three-body cnst  1.2614000    eV*rad^-2 0.000  1.900
O1    shel                  Three-body angl  109.47000    degrees   0.000  1.900
O1    shel                  Three-body k4    0.0000000    eV*rad^-4 0.000  3.500
                            Three-body k3    0.0000000    eV*rad^-3 
--------------------------------------------------------------------------------
Si    core    Harmonic      Three-body cnst  1.2614000    eV*rad^-2 0.000  1.900
O1    shel                  Three-body angl  109.47000    degrees   0.000  1.900
õ(1   shel                  Three-body k4    0.0000000    eV*rad^-4 0.000  3.500
                            Three-body k3    0.0000000    eV*rad^-3 
--------------------------------------------------------------------------------
Si    core    Harmonic      Three-body cnst  1.2614000    eV*rad^-2 0.000  1.900
õ(1   shel                  Three-body angl  109.47000    degrees   0.000  1.900
õ(1   shel                  Three-body k4    0.0000000    eV*rad^-4 0.000  3.500
                            Three-body k3    0.0000000    eV*rad^-3 
--------------------------------------------------------------------------------
Si    core    Harmonic      Three-body cnst  1.2614000    eV*rad^-2 0.000  1.900
O1    shel                  Three-body angl  109.47000    degrees   0.000  1.900
O2    shel                  Three-body k4    0.0000000    eV*rad^-4 0.000  3.500
                            Three-body k3    0.0000000    eV*rad^-3 
--------------------------------------------------------------------------------
Si    core    Harmonic      Three-body cnst  1.2614000    eV*rad^-2 0.000  1.900
O1    shel                  Three-body angl  109.47000    degrees   0.000  1.900
õ(2   shel                  Three-body k4    0.0000000    eV*rad^-4 0.000  3.500
                            Three-body k3    0.0000000    eV*rad^-3 
--------------------------------------------------------------------------------
Si    core    Harmonic      Three-body cnst  1.2614000    eV*rad^-2 0.000  1.900
O2    shel                  Three-body angl  109.47000    degrees   0.000  1.900
õ(1   shel                  Three-body k4    0.0000000    eV*rad^-4 0.000  3.500
                            Three-body k3    0.0000000    eV*rad^-3 
--------------------------------------------------------------------------------
Si    core    Harmonic      Three-body cnst  1.2614000    eV*rad^-2 0.000  1.900
õ(1   shel                  Three-body angl  109.47000    degrees   0.000  1.900
õ(2   shel                  Three-body k4    0.0000000    eV*rad^-4 0.000  3.500
                            Three-body k3    0.0000000    eV*rad^-3 
--------------------------------------------------------------------------------
Si    core    Harmonic      Three-body cnst  1.2614000    eV*rad^-2 0.000  1.900
O2    shel                  Three-body angl  109.47000    degrees   0.000  1.900
O2    shel                  Three-body k4    0.0000000    eV*rad^-4 0.000  3.500
                            Three-body k3    0.0000000    eV*rad^-3 
--------------------------------------------------------------------------------
Si    core    Harmonic      Three-body cnst  1.2614000    eV*rad^-2 0.000  1.900
O2    shel                  Three-body angl  109.47000    degrees   0.000  1.900
õ(2   shel                  Three-body k4    0.0000000    eV*rad^-4 0.000  3.500
                            Three-body k3    0.0000000    eV*rad^-3 
--------------------------------------------------------------------------------
Si    core    Harmonic      Three-body cnst  1.2614000    eV*rad^-2 0.000  1.900
õ(2   shel                  Three-body angl  109.47000    degrees   0.000  1.900
õ(2   shel                  Three-body k4    0.0000000    eV*rad^-4 0.000  3.500
                            Three-body k3    0.0000000    eV*rad^-3 
--------------------------------------------------------------------------------

********************************************************************************
*  Output for configuration   1 : c00014.vasp                                  *
********************************************************************************


  Components of energy : 

--------------------------------------------------------------------------------
  Interatomic potentials     =         432.36508059 eV    
  Three-body potentials      =           0.00000000 eV    
  Monopole - monopole (real) =       -1236.99964305 eV    
  Monopole - monopole (recip)=        -659.26603192 eV    
  Monopole - monopole (total)=       -1896.26567496 eV    
--------------------------------------------------------------------------------
  Total lattice energy       =       -1463.90059437 eV    
--------------------------------------------------------------------------------
  Total lattice energy       =         -141244.0296 kJ/(mole unit cells)
--------------------------------------------------------------------------------


  Number of variables =      183

  Maximum number of calculations  =          1000
  Maximum Hessian update interval =            10
  Maximum step size               =   0.100000000
  Maximum parameter tolerance     =   0.000010000
  Maximum function  tolerance     =   0.000010000
  Maximum gradient  tolerance     =   0.001000000
  Maximum gradient  component     =   0.010000000

  Symmetry not applied to optimisation

  Cell parameters to be optimised using strains

  Newton-Raphson optimiser to be used

  BFGS hessian update to be used

  Lower half triangular hessian to be used

  Minimiser to switch to RFO
  When gradient norm is less than     0.050000

  Dumpfile to be written after every cycle

  Start of bulk optimisation :

  Cycle:      0 Energy:     -1463.900594  Gnorm:      6.371640  CPU:    0.038
  ** Hessian calculated **
  Cycle:      1 Energy:     -1474.115293  Gnorm:      4.781209  CPU:    0.107
  ** Hessian calculated **
  Cycle:      2 Energy:     -1484.724661  Gnorm:      1.189664  CPU:    0.173
  ** Hessian calculated **
  Cycle:      3 Energy:     -1486.058497  Gnorm:      0.913751  CPU:    0.244
  ** Hessian calculated **
  Cycle:      4 Energy:     -1487.192850  Gnorm:      0.578368  CPU:    0.315
  ** Hessian calculated **
  Cycle:      5 Energy:     -1487.641163  Gnorm:      0.347168  CPU:    0.379
  ** Hessian calculated **
  Cycle:      6 Energy:     -1487.716047  Gnorm:      0.190310  CPU:    0.442
  Cycle:      7 Energy:     -1487.749524  Gnorm:      0.123344  CPU:    0.481
  Cycle:      8 Energy:     -1487.783995  Gnorm:      0.096280  CPU:    0.527
  Cycle:      9 Energy:     -1487.813738  Gnorm:      0.079434  CPU:    0.574
  Cycle:     10 Energy:     -1487.829207  Gnorm:      0.071537  CPU:    0.612
  Cycle:     11 Energy:     -1487.839553  Gnorm:      0.055021  CPU:    0.650
  Cycle:     12 Energy:     -1487.845656  Gnorm:      0.045623  CPU:    0.689
  ** Hessian has required structure
  Cycle:     13 Energy:     -1487.848651  Gnorm:      0.068765  CPU:    0.728
  ** Hessian has required structure
  Cycle:     14 Energy:     -1487.854982  Gnorm:      0.088056  CPU:    0.774
  ** Hessian has required structure
  Cycle:     15 Energy:     -1487.862516  Gnorm:      0.062302  CPU:    0.821
  ** Hessian has wrong structure
  ** Imaginary eigenvectors =   5
  Cycle:     16 Energy:     -1487.870695  Gnorm:      0.062392  CPU:    0.970
  ** Hessian has wrong structure
  ** Imaginary eigenvectors =   4
  ** Hessian has wrong structure
  ** Imaginary eigenvectors =   4
  Cycle:     17 Energy:     -1487.884477  Gnorm:      0.063058  CPU:    1.150
  ** Hessian has wrong structure
  ** Imaginary eigenvectors =   4
  ** Hessian has wrong structure
  ** Imaginary eigenvectors =   4
  Cycle:     18 Energy:     -1487.916104  Gnorm:      0.064642  CPU:    1.300
  ** Hessian has wrong structure
  ** Imaginary eigenvectors =   4
  Cycle:     19 Energy:     -1487.969995  Gnorm:      0.069773  CPU:    1.451
  ** Hessian has wrong structure
  ** Imaginary eigenvectors =   2
  ** Hessian has wrong structure
  ** Imaginary eigenvectors =   1
  Cycle:     20 Energy:     -1488.017373  Gnorm:      0.077688  CPU:    1.607
  ** Hessian has wrong structure
  ** Imaginary eigenvectors =   1
  ** Hessian has wrong structure
  ** Imaginary eigenvectors =   1
  Cycle:     21 Energy:     -1488.022862  Gnorm:      0.081890  CPU:    1.700
  ** Hessian has wrong structure
  ** Imaginary eigenvectors =   1
  ** Hessian has required structure
  Cycle:     22 Energy:     -1488.202010  Gnorm:      0.080684  CPU:    1.856
  ** Hessian has required structure
  Cycle:     23 Energy:     -1488.298109  Gnorm:      0.064060  CPU:    1.909
  ** Hessian has required structure
  Cycle:     24 Energy:     -1488.340260  Gnorm:      0.037545  CPU:    1.962
  ** Hessian has required structure
  Cycle:     25 Energy:     -1488.354117  Gnorm:      0.052509  CPU:    2.010
  ** Hessian has required structure
  Cycle:     26 Energy:     -1488.369636  Gnorm:      0.032490  CPU:    2.060
  ** Hessian has required structure
  Cycle:     27 Energy:     -1488.377576  Gnorm:      0.020126  CPU:    2.110
  ** Hessian has required structure
  Cycle:     28 Energy:     -1488.379553  Gnorm:      0.012636  CPU:    2.152
  ** Hessian has required structure
  Cycle:     29 Energy:     -1488.380552  Gnorm:      0.011493  CPU:    2.211
  ** Hessian has required structure
  Cycle:     30 Energy:     -1488.381171  Gnorm:      0.006190  CPU:    2.261
  ** Hessian has required structure
  Cycle:     31 Energy:     -1488.381451  Gnorm:      0.003983  CPU:    2.312
  ** Hessian has required structure
  Cycle:     32 Energy:     -1488.381644  Gnorm:      0.001976  CPU:    2.397
  ** Hessian has required structure
  Cycle:     33 Energy:     -1488.381681  Gnorm:      0.001179  CPU:    2.448
  ** Hessian has required structure
  Cycle:     34 Energy:     -1488.381693  Gnorm:      0.000824  CPU:    2.490
  ** Hessian has required structure
  Cycle:     35 Energy:     -1488.381699  Gnorm:      0.000411  CPU:    2.548
  ** Hessian has required structure
  Cycle:     36 Energy:     -1488.381700  Gnorm:      0.000329  CPU:    2.591
  ** Hessian has required structure
  Cycle:     37 Energy:     -1488.381700  Gnorm:      0.000326  CPU:    2.641
  ** Hessian has required structure
  Cycle:     38 Energy:     -1488.381700  Gnorm:      0.000325  CPU:    2.684
  ** Hessian has required structure
  Cycle:     39 Energy:     -1488.381700  Gnorm:      0.000324  CPU:    2.727
  ** Hessian has required structure
  Cycle:     40 Energy:     -1488.381700  Gnorm:      0.000323  CPU:    2.769
  ** Hessian has required structure
  Cycle:     41 Energy:     -1488.381700  Gnorm:      0.000323  CPU:    2.812
  ** Hessian has required structure
  Cycle:     42 Energy:     -1488.381700  Gnorm:      0.000323  CPU:    2.906
  ** Hessian calculated **


  **** Optimisation achieved ****


  Final energy =   -1488.38170046 eV      
  Final Gnorm  =       0.00032287

  Components of energy : 

--------------------------------------------------------------------------------
  Interatomic potentials     =         395.26559189 eV    
  Three-body potentials      =           0.00000000 eV    
  Monopole - monopole (real) =        -660.80911081 eV    
  Monopole - monopole (recip)=       -1222.83818155 eV    
  Monopole - monopole (total)=       -1883.64729236 eV    
--------------------------------------------------------------------------------
  Total lattice energy       =       -1488.38170046 eV    
--------------------------------------------------------------------------------
  Total lattice energy       =         -143606.0821 kJ/(mole unit cells)
--------------------------------------------------------------------------------

  Final fractional coordinates of atoms :

--------------------------------------------------------------------------------
   No.  Atomic        x           y          z          Radius
        Label       (Frac)      (Frac)     (Frac)       (Angs) 
--------------------------------------------------------------------------------
     1  Ge    c     0.313820    0.296860    0.309830    0.000000
     2  Ge    c     0.706753    0.370747    0.705053    0.000000
     3  Ge    c     0.642957    0.780817    0.693250    0.000000
     4  Ge    c     0.268878    0.700224    0.290552    0.000000
     5  Ge    c     0.340393    0.283449    0.629179    0.000000
     6  Ge    c     0.277963    0.689323    0.609824    0.000000
     7  Ge    c     0.865178    0.074456    0.367686    0.000000
     8  Ge    c     0.091777    0.999873    0.675676    0.000000
     9  Si    c     0.675080    0.381533    0.394313    0.000000
    10  Si    c     0.628524    0.778607    0.382516    0.000000
    11  Si    c     0.072190    0.014130    0.168499    0.000000
    12  Si    c     0.888734    0.060248    0.865041    0.000000
    13  O1    c     0.260583    0.272350    0.454920    0.000000
    14  O3    c     0.754706    0.388999    0.555848    0.000000
    15  O3    c     0.694305    0.802122    0.544933    0.000000
    16  O1    c     0.218949    0.672976    0.436172    0.000000
    17  O1    c     0.273569    0.496662    0.231870    0.000000
    18  O1    c     0.689704    0.575727    0.758621    0.000000
    19  O3    c     0.511907    0.277111    0.363261    0.000000
    20  O1    c     0.535271    0.255763    0.675758    0.000000
    21  O1    c     0.449903    0.809203    0.657574    0.000000
    22  O3    c     0.446864    0.811910    0.331161    0.000000
    23  O3    c     0.220076    0.144065    0.191113    0.000000
    24  O3    c     0.851244    0.258447    0.820439    0.000000
    25  O3    c     0.737343    0.938762    0.805756    0.000000
    26  O3    c     0.131111    0.820339    0.174825    0.000000
    27  O1    c     0.309532    0.486936    0.680244    0.000000
    28  O2    c     0.646828    0.579750    0.339981    0.000000
    29  O1    c     0.255552    0.128862    0.705197    0.000000
    30  O3    c     0.780381    0.275870    0.326781    0.000000
    31  O3    c     0.724676    0.909313    0.315527    0.000000
    32  O1    c     0.137518    0.790850    0.654001    0.000000
    33  O1    c     0.948089    0.074440    0.539704    0.000000
    34  O3    c     0.005611    0.048871    0.292707    0.000000
    35  O3    c     0.027825    0.994937    0.816692    0.000000
    36  O2    c     0.938888    0.049716    0.028921    0.000000
    37  O1    s     0.270251    0.274946    0.456751    0.000000
    38  O3    s     0.743312    0.386847    0.552077    0.000000
    39  O3    s     0.684318    0.798386    0.541078    0.000000
    40  O1    s     0.227286    0.676290    0.438084    0.000000
    41  O1    s     0.276146    0.497959    0.242134    0.000000
    42  O1    s     0.687582    0.575305    0.749791    0.000000
    43  O3    s     0.511816    0.288609    0.362021    0.000000
    44  O1    s     0.533411    0.266614    0.674410    0.000000
    45  O1    s     0.452362    0.798357    0.656856    0.000000
    46  O3    s     0.450920    0.800249    0.333067    0.000000
    47  O3    s     0.213529    0.143972    0.198534    0.000000
    48  O3    s     0.843379    0.248311    0.815545    0.000000
    49  O3    s     0.744553    0.937652    0.802248    0.000000
    50  O3    s     0.136290    0.829805    0.183359    0.000000
    51  O1    s     0.309338    0.487749    0.671130    0.000000
    52  O2    s     0.647918    0.578934    0.349691    0.000000
    53  O1    s     0.249613    0.131087    0.696958    0.000000
    54  O3    s     0.776516    0.271153    0.336331    0.000000
    55  O3    s     0.725807    0.908873    0.326243    0.000000
    56  O1    s     0.144974    0.798668    0.652198    0.000000
    57  O1    s     0.952802    0.068611    0.536882    0.000000
    58  O3    s     0.000005    0.047714    0.287160    0.000000
    59  O3    s     0.019160    0.001796    0.810252    0.000000
    60  O2    s     0.948183    0.046922    0.027043    0.000000
--------------------------------------------------------------------------------

  Final Cartesian lattice vectors (Angstroms) :

        9.100862   -0.172507    0.061634
       -0.144477    7.707557    0.033525
       -3.234306    0.107742    9.821141


  Final cell parameters and derivatives :

--------------------------------------------------------------------------------
       a            9.102705 Angstrom     dE/de1(xx)     0.000144 eV/strain
       b            7.708983 Angstrom     dE/de2(yy)     0.004708 eV/strain
       c           10.340559 Angstrom     dE/de3(zz)     0.000951 eV/strain
       alpha       88.830526 Degrees      dE/de4(yz)     0.000205 eV/strain
       beta       107.847343 Degrees      dE/de5(xz)    -0.000334 eV/strain
       gamma       92.158032 Degrees      dE/de6(xy)    -0.000072 eV/strain
--------------------------------------------------------------------------------

  Primitive cell volume =           690.184495 Angs**3

  Density of cell =      2.591811 g/cm**3

  Non-primitive cell volume =           690.184495 Angs**3


  Final internal derivatives :

--------------------------------------------------------------------------------
   No.  Atomic          a             b             c           Radius
        Label          (eV)          (eV)          (eV)        (eV/Angs)
--------------------------------------------------------------------------------
      1 Ge    c       0.000000      0.000000      0.000000      0.000000
      2 Ge    c      -0.003084     -0.002405      0.000307      0.000000
      3 Ge    c      -0.001085      0.001881      0.003095      0.000000
      4 Ge    c      -0.001534      0.000482      0.000861      0.000000
      5 Ge    c       0.000317     -0.000768     -0.000785      0.000000
      6 Ge    c       0.006799     -0.000627     -0.003991      0.000000
      7 Ge    c      -0.002112     -0.000318     -0.004520      0.000000
      8 Ge    c       0.003025     -0.001799      0.006394      0.000000
      9 Si    c      -0.001057     -0.002808      0.000587      0.000000
     10 Si    c       0.000804     -0.000580     -0.003868      0.000000
     11 Si    c      -0.001256     -0.006135     -0.016684      0.000000
     12 Si    c       0.000041      0.002581      0.001200      0.000000
     13 O1    c      -0.001859     -0.002270      0.000681      0.000000
     14 O3    c       0.000659      0.000479     -0.005554      0.000000
     15 O3    c       0.001318      0.000544      0.000997      0.000000
     16 O1    c      -0.000182      0.000141      0.004734      0.000000
     17 O1    c      -0.003210     -0.001442      0.000522      0.000000
     18 O1    c      -0.002464      0.006989      0.001776      0.000000
     19 O3    c      -0.013749      0.000376      0.002053      0.000000
     20 O1    c       0.007989     -0.003261     -0.004374      0.000000
     21 O1    c      -0.007902      0.000863     -0.000228      0.000000
     22 O3    c       0.006664      0.002176     -0.001376      0.000000
     23 O3    c      -0.002672      0.002623      0.005976      0.000000
     24 O3    c       0.004335     -0.004435      0.000236      0.000000
     25 O3    c      -0.002728     -0.000919     -0.003331      0.000000
     26 O3    c      -0.003552      0.010405     -0.001406      0.000000
     27 O1    c       0.003237      0.001854      0.001178      0.000000
     28 O2    c       0.001769      0.006661     -0.001282      0.000000
     29 O1    c       0.016788      0.002738     -0.004224      0.000000
     30 O3    c       0.003890     -0.003551     -0.003300      0.000000
     31 O3    c       0.002123      0.004408      0.003282      0.000000
     32 O1    c      -0.006317      0.000362      0.003310      0.000000
     33 O1    c      -0.010972     -0.002524     -0.012192      0.000000
     34 O3    c      -0.003930      0.004441      0.009109      0.000000
     35 O3    c      -0.005923      0.003221      0.002191      0.000000
     36 O2    c       0.008493     -0.000233      0.019843      0.000000
     37 O1    s       0.001990      0.002661     -0.001774      0.000000
     38 O3    s       0.001564     -0.000458      0.003342      0.000000
     39 O3    s      -0.001536     -0.000667     -0.000159      0.000000
     40 O1    s       0.000346      0.000388     -0.002154      0.000000
     41 O1    s       0.002604     -0.002398     -0.001969      0.000000
     42 O1    s       0.000966     -0.002012      0.000974      0.000000
     43 O3    s       0.003063      0.001346      0.000721      0.000000
     44 O1    s      -0.006918      0.002677      0.005031      0.000000
     45 O1    s       0.006964     -0.002279     -0.000263      0.000000
     46 O3    s      -0.001486     -0.002642      0.000733      0.000000
     47 O3    s       0.000003     -0.001311     -0.009173      0.000000
     48 O3    s      -0.005374      0.001953      0.002975      0.000000
     49 O3    s       0.004069     -0.001472      0.001372      0.000000
     50 O3    s      -0.001885     -0.001709      0.002363      0.000000
     51 O1    s      -0.002638     -0.001045     -0.000557      0.000000
     52 O2    s      -0.000682     -0.000137      0.000244      0.000000
     53 O1    s      -0.007692      0.004132      0.004840      0.000000
     54 O3    s       0.002290     -0.000430      0.001775      0.000000
     55 O3    s      -0.000294     -0.002269     -0.004739      0.000000
     56 O1    s       0.001082     -0.005514      0.000346      0.000000
     57 O1    s       0.002509      0.005822      0.004861      0.000000
     58 O3    s       0.001874     -0.008721     -0.006522      0.000000
     59 O3    s       0.002341     -0.003227      0.000620      0.000000
     60 O2    s      -0.002186      0.001361     -0.002901      0.000000
--------------------------------------------------------------------------------
  Maximum abs         0.016788      0.010405      0.019843      0.000000
--------------------------------------------------------------------------------


  Born effective charge tensors : 

-------------------------------------------------------------------------------
  Atom             x           y             z
-------------------------------------------------------------------------------
    1 Ge    x       3.8027      0.2795      0.4036
            y       0.2775      4.1624      0.0560
            z       0.0886      0.1499      3.6322
-------------------------------------------------------------------------------
    2 Ge    x       3.7400      0.0335      0.2600
            y      -0.4016      4.2609     -0.1894
            z       0.1446     -0.1845      3.5909
-------------------------------------------------------------------------------
    3 Ge    x       3.8618      0.1380      0.3642
            y       0.0827      4.2187      0.1244
            z       0.0865      0.2374      3.6058
-------------------------------------------------------------------------------
    4 Ge    x       3.8099     -0.0237      0.2565
            y      -0.4433      4.1999     -0.2019
            z       0.1408     -0.1834      3.5913
-------------------------------------------------------------------------------
    5 Ge    x       4.1524      0.2781     -0.1926
            y       0.2022      4.1827     -0.0263
            z       0.1394     -0.1131      3.4792
-------------------------------------------------------------------------------
    6 Ge    x       4.1976     -0.1144     -0.1116
            y      -0.4602      4.1766     -0.0827
            z      -0.0017      0.1598      3.4372
-------------------------------------------------------------------------------
    7 Ge    x       4.3633     -0.1718      0.1710
            y       0.0549      3.9061      0.0354
            z      -0.5098      0.1184      3.5912
-------------------------------------------------------------------------------
    8 Ge    x       4.4621     -0.2468     -0.1658
            y       0.1111      3.9067      0.1418
            z      -0.1376     -0.1101      3.7217
-------------------------------------------------------------------------------
    9 Si    x       3.7500     -0.1415     -0.1256
            y      -0.4354      3.6701      0.1299
            z       0.1227      0.2591      3.0924
-------------------------------------------------------------------------------
   10 Si    x       3.8046      0.3215     -0.0575
            y       0.3718      3.6563     -0.0682
            z       0.1799     -0.1095      3.1606
-------------------------------------------------------------------------------
   11 Si    x       3.6446     -0.2517     -0.3138
            y       0.1214      3.6332      0.1253
            z       0.3787     -0.0681      3.9508
-------------------------------------------------------------------------------
   12 Si    x       3.6189     -0.2967      0.2648
            y       0.1957      3.6220      0.0109
            z       0.0484     -0.0303      4.0351
-------------------------------------------------------------------------------
   13 O1    x      -1.6243     -0.1201      0.3365
            y      -0.1288     -1.4280     -0.0206
            z       0.2936     -0.0028     -2.6346
-------------------------------------------------------------------------------
   14 O3    x      -1.4041      0.0293      0.1734
            y       0.0899     -1.3799      0.1022
            z       0.2089      0.0318     -2.5335
-------------------------------------------------------------------------------
   15 O3    x      -1.4365     -0.0969      0.2406
            y      -0.0933     -1.3928     -0.1212
            z       0.2849     -0.0960     -2.5446
-------------------------------------------------------------------------------
   16 O1    x      -1.6036     -0.0099      0.4308
            y       0.0754     -1.4385      0.0533
            z       0.4002      0.0439     -2.6504
-------------------------------------------------------------------------------
   17 O1    x      -1.3311      0.1509     -0.1070
            y       0.2429     -3.1997      0.0881
            z      -0.0493      0.0237     -1.4341
-------------------------------------------------------------------------------
   18 O1    x      -1.3266      0.2151     -0.0613
            y       0.3762     -3.2637      0.0504
            z      -0.0128      0.0292     -1.4345
-------------------------------------------------------------------------------
   19 O3    x      -2.7721     -0.3668     -0.4678
            y      -0.3013     -1.5579     -0.0848
            z      -0.4607     -0.1380     -1.2472
-------------------------------------------------------------------------------
   20 O1    x      -2.9656     -0.2978     -0.4357
            y      -0.1827     -1.5750     -0.0072
            z      -0.4555     -0.0077     -1.3343
-------------------------------------------------------------------------------
   21 O1    x      -2.9817     -0.2843     -0.4622
            y      -0.2174     -1.6009     -0.1029
            z      -0.4417     -0.1500     -1.3381
-------------------------------------------------------------------------------
   22 O3    x      -2.8033     -0.1548     -0.5351
            y      -0.0044     -1.4761      0.0082
            z      -0.5693     -0.0019     -1.2976
-------------------------------------------------------------------------------
   23 O3    x      -1.9415     -0.7189     -0.4275
            y      -0.7796     -2.1379     -0.5749
            z      -0.4710     -0.5469     -1.7239
-------------------------------------------------------------------------------
   24 O3    x      -1.5003      0.5716     -0.4410
            y       0.4974     -2.4972      0.7046
            z      -0.3891      0.7277     -1.8300
-------------------------------------------------------------------------------
   25 O3    x      -1.8341     -0.6713     -0.6024
            y      -0.7035     -2.1273     -0.6940
            z      -0.5350     -0.7118     -1.9005
-------------------------------------------------------------------------------
   26 O3    x      -1.6436      0.7276     -0.3525
            y       0.7094     -2.5093      0.4956
            z      -0.4452      0.5427     -1.6541
-------------------------------------------------------------------------------
   27 O1    x      -1.4400      0.2139      0.0755
            y       0.3240     -3.1354      0.1234
            z       0.0229      0.0650     -1.3359
-------------------------------------------------------------------------------
   28 O2    x      -1.2333      0.1158      0.0341
            y       0.1855     -2.4511      0.0371
            z      -0.0158      0.0388     -1.1034
-------------------------------------------------------------------------------
   29 O1    x      -2.5217     -0.9852      0.2455
            y      -0.9826     -2.2177      0.1916
            z       0.1839      0.2196     -1.3778
-------------------------------------------------------------------------------
   30 O3    x      -2.1605      0.9585      0.2464
            y       0.8920     -2.3587     -0.1422
            z       0.2698     -0.1816     -1.2698
-------------------------------------------------------------------------------
   31 O3    x      -2.2254     -0.9668      0.1643
            y      -0.9954     -2.2610      0.1290
            z       0.2357      0.1753     -1.2817
-------------------------------------------------------------------------------
   32 O1    x      -2.3459      0.9560      0.3240
            y       0.8799     -2.5155     -0.2984
            z       0.2877     -0.2784     -1.2964
-------------------------------------------------------------------------------
   33 O1    x      -1.8041      0.1953     -0.6268
            y       0.0938     -1.4018      0.2338
            z      -0.4033      0.2509     -2.7123
-------------------------------------------------------------------------------
   34 O3    x      -2.5890      0.2783      0.9509
            y       0.1299     -1.2815     -0.1688
            z       0.9376     -0.2085     -2.1131
-------------------------------------------------------------------------------
   35 O3    x      -2.4897      0.3525      0.7993
            y       0.2139     -1.2707     -0.1513
            z       0.8005     -0.1387     -2.0354
-------------------------------------------------------------------------------
   36 O2    x      -1.2298      0.1040     -0.2555
            y       0.0019     -1.1180      0.0937
            z      -0.3579      0.1882     -2.8053
-------------------------------------------------------------------------------




  Elastic Constant Matrix: (Units=GPa)

-------------------------------------------------------------------------------
  Indices      1         2         3         4         5         6    
-------------------------------------------------------------------------------
       1     30.2466   13.0118    7.3788   -0.6570    0.3721   -7.4986
       2     13.0118   38.0799   11.9635   -0.6625    4.4870   -7.7359
       3      7.3788   11.9635   28.0289   -3.5577    9.8712   -0.6662
       4     -0.6570   -0.6625   -3.5577   11.5750   -1.5049    4.3125
       5      0.3721    4.4870    9.8712   -1.5049   10.6056   -2.3769
       6     -7.4986   -7.7359   -0.6662    4.3125   -2.3769   19.0182
-------------------------------------------------------------------------------


  Elastic Compliance Matrix: (Units=1/GPa)

-------------------------------------------------------------------------------
  Indices      1         2         3         4         5         6    
-------------------------------------------------------------------------------
       1    0.044628 -0.009480 -0.014880 -0.006450  0.019207  0.017082
       2   -0.009480  0.036057 -0.013158 -0.007102 -0.001004  0.011953
       3   -0.014880 -0.013158  0.067965  0.019286 -0.059048 -0.020591
       4   -0.006450 -0.007102  0.019286  0.101316 -0.006747 -0.028574
       5    0.019207 -0.001004 -0.059048 -0.006747  0.153836  0.025853
       6    0.017082  0.011953 -0.020591 -0.028574  0.025853  0.073167
-------------------------------------------------------------------------------

  Mechanical properties :

-------------------------------------------------------------------------------
  Convention :                    Reuss         Voigt         Hill
-------------------------------------------------------------------------------
  Bulk  Modulus (GPa)     =      13.58423      17.89596      15.74010
  Shear Modulus (GPa)     =       8.67239      12.50654      10.58946
-------------------------------------------------------------------------------
  Velocity S-wave (km/s)  =       1.82923       2.19668       2.02132
  Velocity P-wave (km/s)  =       3.11491       3.65222       3.39421
-------------------------------------------------------------------------------
  Compressibility (1/GPa) =    0.07361475
-------------------------------------------------------------------------------
  Stress axis :                     x             y             z
-------------------------------------------------------------------------------
  Youngs Moduli (GPa)     =      22.40737      27.73416      14.71351
-------------------------------------------------------------------------------
  Poissons Ratio (x)      =                     0.26292       0.21893
  Poissons Ratio (y)      =       0.21242                     0.19360
  Poissons Ratio (z)      =       0.33341       0.36492
-------------------------------------------------------------------------------


  Piezoelectric Strain Matrix: (Units=C/m**2)

-------------------------------------------------------------------------------
  Indices      1         2         3         4         5         6    
-------------------------------------------------------------------------------
       x     0.11836  -0.67439  -0.48140  -0.03211  -0.23714   0.61160
       y     0.86100  -0.14607  -0.60481   0.34311   0.53032   0.95097
       z     0.41723  -0.10589   0.51226   0.37975  -0.71801   0.06772
-------------------------------------------------------------------------------


  Piezoelectric Stress Matrix: (Units=10**-11 C/N)

-------------------------------------------------------------------------------
  Indices      1         2         3         4         5         6    
-------------------------------------------------------------------------------
       x     2.49379  -1.13274  -2.48159  -2.43870   1.09231   4.34096
       y     7.30263   0.29260  -9.62732  -1.21684  15.62486   9.89013
       z    -0.30817  -1.56801   7.83271   4.93243 -13.33948  -2.91449
-------------------------------------------------------------------------------


  Static dielectric constant tensor : 

-------------------------------------------------------------------------------
              x         y         z
-------------------------------------------------------------------------------
       x     5.25863  -0.04243   0.12194
       y    -0.04243   6.19388  -0.00159
       z     0.12194  -0.00159   3.69774
--------------------------------------------------------------------------------

  High frequency dielectric constant tensor : 

-------------------------------------------------------------------------------
              x         y         z
-------------------------------------------------------------------------------
       x     1.58036  -0.00366   0.00898
       y    -0.00366   1.58725   0.00040
       z     0.00898   0.00040   1.54371
-------------------------------------------------------------------------------

  Static refractive indices : 

-------------------------------------------------------------------------------
    1 =    1.92049      2 =    2.29481      3 =    2.48914
-------------------------------------------------------------------------------

  High frequency refractive indices : 

-------------------------------------------------------------------------------
    1 =    1.24161      2 =    1.25723      3 =    1.26059
-------------------------------------------------------------------------------


  Time to end of optimisation =       3.0455 seconds


  Peak dynamic memory used =       2.76 MB 


  Timing analysis for GULP :

--------------------------------------------------------------------------------
  Task / Subroutine                                          Time (Seconds)
--------------------------------------------------------------------------------
  Calculation of reciprocal space energy and derivatives          0.2144
  Calculation of real space energy and derivatives                2.5069
  Calculation of three-body energy and derivatives                0.0310
  Calculation and manipulation of Hessian matrix                  0.6284
  Calculation of matrix inversion                                 0.0059
--------------------------------------------------------------------------------
  Total CPU time                                                  3.0456
--------------------------------------------------------------------------------


  Dump file written as c00014.vasp.grs
  CIF file written as c00014.vasp.cif


  Job Finished at 11:37.01 22nd October    2025                               

