********************************************************************************
*                       GENERAL UTILITY LATTICE PROGRAM                        *
*                                 Julian Gale                                  *
*                       Curtin Institute for Computation                       *
*                    School of Molecular and Life Sciences                     *
*                    Curtin University, Western Australia                      *
********************************************************************************
* Version = 6.1.2 * Last modified =   3rd November 2022                        *
********************************************************************************
*  optimise     - perform optimisation run                                     *
*  conp         - constant pressure calculation                                *
*  property     - calculate properties for final geometry                      *
********************************************************************************

  Job Started  at 11:44.45 22nd October    2025                               

  Number of CPUs =     1


  Total number of configurations input =      1

********************************************************************************
*  Input for Configuration =   1 : c00127.vasp                                 *
********************************************************************************

  Formula = Ge8Si4O24                                                   

  Number of irreducible atoms/shells =      60


  Total number atoms/shells =      60

  Dimensionality = 3               :  Bulk   



  Cartesian lattice vectors (Angstroms) :

        9.086940    0.000000    0.000000
        0.000000    7.554810    0.000000
       -3.295144    0.000000    9.944380

  Cell parameters (Angstroms/Degrees):

  a =       9.0869    alpha =  90.0000
  b =       7.5548    beta  = 108.3330
  c =      10.4761    gamma =  90.0000

  Initial cell volume =         682.682735 Angs**3

  Temperature of configuration =   0.00     K 

  Pressure of configuration =         0.000 GPa 

  Fractional coordinates of asymmetric unit :

--------------------------------------------------------------------------------
   No.  Atomic       x           y          z         Charge      Occupancy
        Label      (Frac)      (Frac)     (Frac)        (e)         (Frac)  
--------------------------------------------------------------------------------
      1 Ge    c    0.313820    0.296860    0.309830     4.00000    1.000000    
      2 Ge    c    0.313820 *  0.703140 *  0.309830 *   4.00000    1.000000    
      3 Ge    c    0.331050 *  0.296920 *  0.607380 *   4.00000    1.000000    
      4 Ge    c    0.668950 *  0.296920 *  0.392620 *   4.00000    1.000000    
      5 Ge    c    0.879680 *  0.000000 *  0.350160 *   4.00000    1.000000    
      6 Ge    c    0.120320 *  0.000000 *  0.649840 *   4.00000    1.000000    
      7 Ge    c    0.093070 *  0.000000 *  0.158230 *   4.00000    1.000000    
      8 Ge    c    0.906930 *  0.000000 *  0.841770 *   4.00000    1.000000    
      9 Si    c    0.686180 *  0.296860 *  0.690170 *   4.00000    1.000000    
     10 Si    c    0.686180 *  0.703140 *  0.690170 *   4.00000    1.000000    
     11 Si    c    0.668950 *  0.703080 *  0.392620 *   4.00000    1.000000    
     12 Si    c    0.331050 *  0.703080 *  0.607380 *   4.00000    1.000000    
     13 O1    c    0.268740 *  0.279030 *  0.446100 *   1.73396    1.000000    
     14 O3    c    0.731260 *  0.279030 *  0.553900 *   1.33043    1.000000    
     15 O2    c    0.731260 *  0.720970 *  0.553900 *   0.87073    1.000000    
     16 O3    c    0.268740 *  0.720970 *  0.446100 *   1.33043    1.000000    
     17 O1    c    0.295480 *  0.500000 *  0.260860 *   1.73396    1.000000    
     18 O2    c    0.704520 *  0.500000 *  0.739140 *   0.87073    1.000000    
     19 O1    c    0.490600 *  0.234690 *  0.337530 *   1.73396    1.000000    
     20 O3    c    0.509400 *  0.234690 *  0.662470 *   1.33043    1.000000    
     21 O2    c    0.509400 *  0.765310 *  0.662470 *   0.87073    1.000000    
     22 O3    c    0.490600 *  0.765310 *  0.337530 *   1.33043    1.000000    
     23 O1    c    0.200440 *  0.174000 *  0.194980 *   1.73396    1.000000    
     24 O3    c    0.799560 *  0.174000 *  0.805020 *   1.33043    1.000000    
     25 O3    c    0.799560 *  0.826000 *  0.805020 *   1.33043    1.000000    
     26 O1    c    0.200440 *  0.826000 *  0.194980 *   1.73396    1.000000    
     27 O3    c    0.317860 *  0.500000 *  0.649090 *   1.33043    1.000000    
     28 O3    c    0.682140 *  0.500000 *  0.350910 *   1.33043    1.000000    
     29 O1    c    0.227920 *  0.173870 *  0.671620 *   1.73396    1.000000    
     30 O1    c    0.772080 *  0.173870 *  0.328380 *   1.73396    1.000000    
     31 O3    c    0.772080 *  0.826130 *  0.328380 *   1.33043    1.000000    
     32 O3    c    0.227920 *  0.826130 *  0.671620 *   1.33043    1.000000    
     33 O1    c    0.000000 *  0.000000 *  0.500000 *   1.73396    1.000000    
     34 O1    c    0.971960 *  0.000000 *  0.241930 *   1.73396    1.000000    
     35 O1    c    0.028040 *  0.000000 *  0.758070 *   1.73396    1.000000    
     36 O1    c    0.000000 *  0.000000 *  0.000000 *   1.73396    1.000000    
     37 O1    s    0.268740 *  0.279030 *  0.446100 *  -3.73396    1.000000    
     38 O3    s    0.731260 *  0.279030 *  0.553900 *  -3.33043    1.000000    
     39 O2    s    0.731260 *  0.720970 *  0.553900 *  -2.87073    1.000000    
     40 O3    s    0.268740 *  0.720970 *  0.446100 *  -3.33043    1.000000    
     41 O1    s    0.295480 *  0.500000 *  0.260860 *  -3.73396    1.000000    
     42 O2    s    0.704520 *  0.500000 *  0.739140 *  -2.87073    1.000000    
     43 O1    s    0.490600 *  0.234690 *  0.337530 *  -3.73396    1.000000    
     44 O3    s    0.509400 *  0.234690 *  0.662470 *  -3.33043    1.000000    
     45 O2    s    0.509400 *  0.765310 *  0.662470 *  -2.87073    1.000000    
     46 O3    s    0.490600 *  0.765310 *  0.337530 *  -3.33043    1.000000    
     47 O1    s    0.200440 *  0.174000 *  0.194980 *  -3.73396    1.000000    
     48 O3    s    0.799560 *  0.174000 *  0.805020 *  -3.33043    1.000000    
     49 O3    s    0.799560 *  0.826000 *  0.805020 *  -3.33043    1.000000    
     50 O1    s    0.200440 *  0.826000 *  0.194980 *  -3.73396    1.000000    
     51 O3    s    0.317860 *  0.500000 *  0.649090 *  -3.33043    1.000000    
     52 O3    s    0.682140 *  0.500000 *  0.350910 *  -3.33043    1.000000    
     53 O1    s    0.227920 *  0.173870 *  0.671620 *  -3.73396    1.000000    
     54 O1    s    0.772080 *  0.173870 *  0.328380 *  -3.73396    1.000000    
     55 O3    s    0.772080 *  0.826130 *  0.328380 *  -3.33043    1.000000    
     56 O3    s    0.227920 *  0.826130 *  0.671620 *  -3.33043    1.000000    
     57 O1    s    0.000000 *  0.000000 *  0.500000 *  -3.73396    1.000000    
     58 O1    s    0.971960 *  0.000000 *  0.241930 *  -3.73396    1.000000    
     59 O1    s    0.028040 *  0.000000 *  0.758070 *  -3.73396    1.000000    
     60 O1    s    0.000000 *  0.000000 *  0.000000 *  -3.73396    1.000000    
--------------------------------------------------------------------------------



********************************************************************************
*  General input information                                                   *
********************************************************************************

  Species output for all configurations : 

--------------------------------------------------------------------------------
  Species    Type    Atomic    Atomic    Charge       Radii (Angs)     Library
                     Number     Mass       (e)     Cova   Ionic  VDW   Symbol
--------------------------------------------------------------------------------
    Ge       Core       32      72.61   4.000000   1.170  0.000  1.750 Ge       
    Si       Core       14      28.09   4.000000   1.200  0.000  2.100 Si       
    O1       Core        8      16.00   1.733957   0.730  0.000  1.360 O1       
    O2       Core        8      16.00   0.870733   0.730  0.000  1.360 O2       
    O3       Core        8      16.00   1.330431   0.730  0.000  1.360 O3       
    O1       Shell       8       0.00  -3.733957   0.730  0.000  0.000 O1       
    O2       Shell       8       0.00  -2.870733   0.730  0.000  0.000 O2       
    O3       Shell       8       0.00  -3.330431   0.730  0.000  0.000 O3       
--------------------------------------------------------------------------------


  Lattice summation method               =    Ewald          (3-D)
                                         =    Parry          (2-D)
                                         =    Saunders et al (1-D)
  Accuracy factor for lattice sums       =   12.000


  Analytic derivatives to be used

  Time limit = Infinity

  Maximum range for interatomic potentials =    100000.000000 Angstroms

  General interatomic potentials :

--------------------------------------------------------------------------------
Atom  Types   Potential      Parameter       Value         Units   Cutoffs(Ang)
  1     2                                                            Min /  Max 
--------------------------------------------------------------------------------
Si   c O1   s Buckingham    Buckingham A     1315.2478    eV        0.000 16.000
                            Buckingham rho  0.31775900    Ang       
                            Buckingham C     10.141118    eV*Ang^6  
--------------------------------------------------------------------------------
Si   c O2   s Buckingham    Buckingham A     1315.2478    eV        0.000 16.000
                            Buckingham rho  0.31775900    Ang       
                            Buckingham C     10.141118    eV*Ang^6  
--------------------------------------------------------------------------------
Si   c O3   s Buckingham    Buckingham A     1315.2478    eV        0.000 16.000
                            Buckingham rho  0.31775900    Ang       
                            Buckingham C     10.141118    eV*Ang^6  
--------------------------------------------------------------------------------
Ge   c O1   s Buckingham    Buckingham A     1497.3996    eV        0.000 16.000
                            Buckingham rho  0.32564600    Ang       
                            Buckingham C     16.808599    eV*Ang^6  
--------------------------------------------------------------------------------
Ge   c O2   s Buckingham    Buckingham A     1497.3996    eV        0.000 16.000
                            Buckingham rho  0.32564600    Ang       
                            Buckingham C     16.808599    eV*Ang^6  
--------------------------------------------------------------------------------
Ge   c O3   s Buckingham    Buckingham A     1497.3996    eV        0.000 16.000
                            Buckingham rho  0.32564600    Ang       
                            Buckingham C     16.808599    eV*Ang^6  
--------------------------------------------------------------------------------
O1   s O1   s Buckingham    Buckingham A     22764.000    eV        0.000 16.000
                            Buckingham rho  0.14900000    Ang       
                            Buckingham C     10.937044    eV*Ang^6  
--------------------------------------------------------------------------------
O1   s O2   s Buckingham    Buckingham A     22764.000    eV        0.000 16.000
                            Buckingham rho  0.14900000    Ang       
                            Buckingham C     10.937044    eV*Ang^6  
--------------------------------------------------------------------------------
O1   s O3   s Buckingham    Buckingham A     22764.000    eV        0.000 16.000
                            Buckingham rho  0.14900000    Ang       
                            Buckingham C     10.937044    eV*Ang^6  
--------------------------------------------------------------------------------
O2   s O2   s Buckingham    Buckingham A     22764.000    eV        0.000 16.000
                            Buckingham rho  0.14900000    Ang       
                            Buckingham C     10.937044    eV*Ang^6  
--------------------------------------------------------------------------------
O2   s O3   s Buckingham    Buckingham A     22764.000    eV        0.000 16.000
                            Buckingham rho  0.14900000    Ang       
                            Buckingham C     10.937044    eV*Ang^6  
--------------------------------------------------------------------------------
O3   s O3   s Buckingham    Buckingham A     22764.000    eV        0.000 16.000
                            Buckingham rho  0.14900000    Ang       
                            Buckingham C     10.937044    eV*Ang^6  
--------------------------------------------------------------------------------
O1   c O1   s Spring (c-s)  Spring k 2       180.31577    eV*Ang^-2 0.000  0.800
                            Spring k 4       0.0000000    eV*Ang^-4 
--------------------------------------------------------------------------------
O2   c O2   s Spring (c-s)  Spring k 2       75.969800    eV*Ang^-2 0.000  0.800
                            Spring k 4       0.0000000    eV*Ang^-4 
--------------------------------------------------------------------------------
O3   c O3   s Spring (c-s)  Spring k 2       128.14270    eV*Ang^-2 0.000  0.800
                            Spring k 4       0.0000000    eV*Ang^-4 
--------------------------------------------------------------------------------

  General Three-body potentials :

--------------------------------------------------------------------------------
  Atoms       Potential      Parameter       Value         Units   Cutoffs(Ang)
  1 / 2 / 3                                                          Min /  Max 
--------------------------------------------------------------------------------
Si    core    Harmonic      Three-body cnst  1.2614000    eV*rad^-2 0.000  1.900
O1    shel                  Three-body angl  109.47000    degrees   0.000  1.900
O1    shel                  Three-body k4    0.0000000    eV*rad^-4 0.000  3.500
                            Three-body k3    0.0000000    eV*rad^-3 
--------------------------------------------------------------------------------
Si    core    Harmonic      Three-body cnst  1.2614000    eV*rad^-2 0.000  1.900
O1    shel                  Three-body angl  109.47000    degrees   0.000  1.900
õ(1   shel                  Three-body k4    0.0000000    eV*rad^-4 0.000  3.500
                            Three-body k3    0.0000000    eV*rad^-3 
--------------------------------------------------------------------------------
Si    core    Harmonic      Three-body cnst  1.2614000    eV*rad^-2 0.000  1.900
õ(1   shel                  Three-body angl  109.47000    degrees   0.000  1.900
õ(1   shel                  Three-body k4    0.0000000    eV*rad^-4 0.000  3.500
                            Three-body k3    0.0000000    eV*rad^-3 
--------------------------------------------------------------------------------
Si    core    Harmonic      Three-body cnst  1.2614000    eV*rad^-2 0.000  1.900
O1    shel                  Three-body angl  109.47000    degrees   0.000  1.900
O2    shel                  Three-body k4    0.0000000    eV*rad^-4 0.000  3.500
                            Three-body k3    0.0000000    eV*rad^-3 
--------------------------------------------------------------------------------
Si    core    Harmonic      Three-body cnst  1.2614000    eV*rad^-2 0.000  1.900
O1    shel                  Three-body angl  109.47000    degrees   0.000  1.900
õ(2   shel                  Three-body k4    0.0000000    eV*rad^-4 0.000  3.500
                            Three-body k3    0.0000000    eV*rad^-3 
--------------------------------------------------------------------------------
Si    core    Harmonic      Three-body cnst  1.2614000    eV*rad^-2 0.000  1.900
O2    shel                  Three-body angl  109.47000    degrees   0.000  1.900
õ(1   shel                  Three-body k4    0.0000000    eV*rad^-4 0.000  3.500
                            Three-body k3    0.0000000    eV*rad^-3 
--------------------------------------------------------------------------------
Si    core    Harmonic      Three-body cnst  1.2614000    eV*rad^-2 0.000  1.900
õ(1   shel                  Three-body angl  109.47000    degrees   0.000  1.900
õ(2   shel                  Three-body k4    0.0000000    eV*rad^-4 0.000  3.500
                            Three-body k3    0.0000000    eV*rad^-3 
--------------------------------------------------------------------------------
Si    core    Harmonic      Three-body cnst  1.2614000    eV*rad^-2 0.000  1.900
O2    shel                  Three-body angl  109.47000    degrees   0.000  1.900
O2    shel                  Three-body k4    0.0000000    eV*rad^-4 0.000  3.500
                            Three-body k3    0.0000000    eV*rad^-3 
--------------------------------------------------------------------------------
Si    core    Harmonic      Three-body cnst  1.2614000    eV*rad^-2 0.000  1.900
O2    shel                  Three-body angl  109.47000    degrees   0.000  1.900
õ(2   shel                  Three-body k4    0.0000000    eV*rad^-4 0.000  3.500
                            Three-body k3    0.0000000    eV*rad^-3 
--------------------------------------------------------------------------------
Si    core    Harmonic      Three-body cnst  1.2614000    eV*rad^-2 0.000  1.900
õ(2   shel                  Three-body angl  109.47000    degrees   0.000  1.900
õ(2   shel                  Three-body k4    0.0000000    eV*rad^-4 0.000  3.500
                            Three-body k3    0.0000000    eV*rad^-3 
--------------------------------------------------------------------------------

********************************************************************************
*  Output for configuration   1 : c00127.vasp                                  *
********************************************************************************


  Components of energy : 

--------------------------------------------------------------------------------
  Interatomic potentials     =         432.39650068 eV    
  Three-body potentials      =           0.00000052 eV    
  Monopole - monopole (real) =       -1236.99964305 eV    
  Monopole - monopole (recip)=        -659.26603192 eV    
  Monopole - monopole (total)=       -1896.26567496 eV    
--------------------------------------------------------------------------------
  Total lattice energy       =       -1463.86917376 eV    
--------------------------------------------------------------------------------
  Total lattice energy       =         -141240.9980 kJ/(mole unit cells)
--------------------------------------------------------------------------------


  Number of variables =      183

  Maximum number of calculations  =          1000
  Maximum Hessian update interval =            10
  Maximum step size               =   0.100000000
  Maximum parameter tolerance     =   0.000010000
  Maximum function  tolerance     =   0.000010000
  Maximum gradient  tolerance     =   0.001000000
  Maximum gradient  component     =   0.010000000

  Symmetry not applied to optimisation

  Cell parameters to be optimised using strains

  Newton-Raphson optimiser to be used

  BFGS hessian update to be used

  Lower half triangular hessian to be used

  Minimiser to switch to RFO
  When gradient norm is less than     0.050000

  Dumpfile to be written after every cycle

  Start of bulk optimisation :

  Cycle:      0 Energy:     -1463.869174  Gnorm:      6.228470  CPU:    0.031
  ** Hessian calculated **
  Cycle:      1 Energy:     -1482.691672  Gnorm:      1.627770  CPU:    0.068
  ** Hessian calculated **
  Cycle:      2 Energy:     -1485.161018  Gnorm:      1.147059  CPU:    0.136
  ** Hessian calculated **
  Cycle:      3 Energy:     -1486.195199  Gnorm:      0.576294  CPU:    0.196
  Cycle:      4 Energy:     -1486.521897  Gnorm:      0.332057  CPU:    0.233
  Cycle:      5 Energy:     -1486.774889  Gnorm:      0.278619  CPU:    0.276
  Cycle:      6 Energy:     -1487.088426  Gnorm:      0.247121  CPU:    0.320
  Cycle:      7 Energy:     -1487.379504  Gnorm:      0.225979  CPU:    0.364
  Cycle:      8 Energy:     -1487.488260  Gnorm:      0.166262  CPU:    0.401
  Cycle:      9 Energy:     -1487.541909  Gnorm:      0.128067  CPU:    0.438
  Cycle:     10 Energy:     -1487.575557  Gnorm:      0.111064  CPU:    0.476
  Cycle:     11 Energy:     -1487.611966  Gnorm:      0.112924  CPU:    0.520
  Cycle:     12 Energy:     -1487.639745  Gnorm:      0.102118  CPU:    0.557
  ** Hessian calculated **
  Cycle:     13 Energy:     -1487.656086  Gnorm:      0.100780  CPU:    0.624
  Cycle:     14 Energy:     -1487.694656  Gnorm:      0.097447  CPU:    0.675
  Cycle:     15 Energy:     -1487.742309  Gnorm:      0.093501  CPU:    0.726
  Cycle:     16 Energy:     -1487.787949  Gnorm:      0.088116  CPU:    0.770
  Cycle:     17 Energy:     -1487.830809  Gnorm:      0.085312  CPU:    0.820
  Cycle:     18 Energy:     -1487.985164  Gnorm:      0.065365  CPU:    0.864
  Cycle:     19 Energy:     -1488.068233  Gnorm:      0.070562  CPU:    0.908
  Cycle:     20 Energy:     -1488.102031  Gnorm:      0.071997  CPU:    0.938
  ** Hessian calculated **
  Cycle:     21 Energy:     -1488.106515  Gnorm:      0.039997  CPU:    0.999
  ** Hessian has required structure
  Cycle:     22 Energy:     -1488.109102  Gnorm:      0.058491  CPU:    1.036
  ** Hessian has required structure
  Cycle:     23 Energy:     -1488.112850  Gnorm:      0.064563  CPU:    1.080
  ** Hessian has required structure
  Cycle:     24 Energy:     -1488.115957  Gnorm:      0.054665  CPU:    1.117
  ** Hessian has required structure
  Cycle:     25 Energy:     -1488.117835  Gnorm:      0.046311  CPU:    1.154
  ** Hessian has required structure
  Cycle:     26 Energy:     -1488.119336  Gnorm:      0.037625  CPU:    1.191
  ** Hessian has required structure
  Cycle:     27 Energy:     -1488.120202  Gnorm:      0.040420  CPU:    1.228
  ** Hessian has required structure
  Cycle:     28 Energy:     -1488.121840  Gnorm:      0.052563  CPU:    1.272
  ** Hessian has required structure
  Cycle:     29 Energy:     -1488.124810  Gnorm:      0.062713  CPU:    1.309
  ** Hessian has required structure
  Cycle:     30 Energy:     -1488.127784  Gnorm:      0.045467  CPU:    1.346
  ** Hessian has wrong structure
  ** Imaginary eigenvectors =   2
  ** Hessian has wrong structure
  ** Imaginary eigenvectors =   2
  Cycle:     31 Energy:     -1488.151470  Gnorm:      0.060892  CPU:    1.498
  ** Hessian has wrong structure
  ** Imaginary eigenvectors =   1
  ** Hessian has required structure
  Cycle:     32 Energy:     -1488.222127  Gnorm:      0.077671  CPU:    1.642
  ** Hessian has required structure
  Cycle:     33 Energy:     -1488.286286  Gnorm:      0.090090  CPU:    1.693
  ** Hessian has required structure
  Cycle:     34 Energy:     -1488.318286  Gnorm:      0.073472  CPU:    1.730
  ** Hessian has required structure
  Cycle:     35 Energy:     -1488.340403  Gnorm:      0.043342  CPU:    1.767
  ** Hessian has required structure
  Cycle:     36 Energy:     -1488.366630  Gnorm:      0.051025  CPU:    1.817
  ** Hessian has required structure
  Cycle:     37 Energy:     -1488.394279  Gnorm:      0.072229  CPU:    1.861
  ** Hessian has required structure
  Cycle:     38 Energy:     -1488.408614  Gnorm:      0.064892  CPU:    1.905
  ** Hessian has required structure
  Cycle:     39 Energy:     -1488.418817  Gnorm:      0.045234  CPU:    1.941
  ** Hessian has required structure
  Cycle:     40 Energy:     -1488.426823  Gnorm:      0.033977  CPU:    1.984
  ** Hessian has required structure
  Cycle:     41 Energy:     -1488.430668  Gnorm:      0.029623  CPU:    2.028
  ** Hessian has required structure
  Cycle:     42 Energy:     -1488.434310  Gnorm:      0.016302  CPU:    2.101
  ** Hessian has required structure
  Cycle:     43 Energy:     -1488.435321  Gnorm:      0.009378  CPU:    2.152
  ** Hessian has required structure
  Cycle:     44 Energy:     -1488.435629  Gnorm:      0.004930  CPU:    2.203
  ** Hessian has required structure
  Cycle:     45 Energy:     -1488.435721  Gnorm:      0.002600  CPU:    2.253
  ** Hessian has required structure
  Cycle:     46 Energy:     -1488.435745  Gnorm:      0.001575  CPU:    2.297
  ** Hessian has required structure
  Cycle:     47 Energy:     -1488.435754  Gnorm:      0.000803  CPU:    2.347
  ** Hessian has required structure
  Cycle:     48 Energy:     -1488.435756  Gnorm:      0.000563  CPU:    2.383
  ** Hessian has required structure
  Cycle:     49 Energy:     -1488.435757  Gnorm:      0.000395  CPU:    2.420
  ** Hessian has required structure
  Cycle:     50 Energy:     -1488.435757  Gnorm:      0.000277  CPU:    2.456
  ** Hessian has required structure
  Cycle:     51 Energy:     -1488.435758  Gnorm:      0.000194  CPU:    2.493
  ** Hessian has required structure
  Cycle:     52 Energy:     -1488.435758  Gnorm:      0.000136  CPU:    2.552
  ** Hessian has required structure


  **** Optimisation achieved ****


  Final energy =   -1488.43575777 eV      
  Final Gnorm  =       0.00009501

  Components of energy : 

--------------------------------------------------------------------------------
  Interatomic potentials     =         394.83589924 eV    
  Three-body potentials      =           0.00725667 eV    
  Monopole - monopole (real) =        -669.22956650 eV    
  Monopole - monopole (recip)=       -1214.04934718 eV    
  Monopole - monopole (total)=       -1883.27891368 eV    
--------------------------------------------------------------------------------
  Total lattice energy       =       -1488.43575777 eV    
--------------------------------------------------------------------------------
  Total lattice energy       =         -143611.2978 kJ/(mole unit cells)
--------------------------------------------------------------------------------

  Final fractional coordinates of atoms :

--------------------------------------------------------------------------------
   No.  Atomic        x           y          z          Radius
        Label       (Frac)      (Frac)     (Frac)       (Angs) 
--------------------------------------------------------------------------------
     1  Ge    c     0.313820    0.296860    0.309830    0.000000
     2  Ge    c     0.375224    0.699160    0.330900    0.000000
     3  Ge    c     0.340860    0.294549    0.632469    0.000000
     4  Ge    c     0.679656    0.227291    0.399419    0.000000
     5  Ge    c     0.913438    0.932402    0.343606    0.000000
     6  Ge    c     0.147583    0.976759    0.642826    0.000000
     7  Ge    c     0.122225    0.984085    0.152687    0.000000
     8  Ge    c     0.930806    0.930243    0.836418    0.000000
     9  Si    c     0.699651    0.225933    0.709665    0.000000
    10  Si    c     0.733961    0.619983    0.721973    0.000000
    11  Si    c     0.728543    0.630893    0.418163    0.000000
    12  Si    c     0.383877    0.685018    0.643668    0.000000
    13  O1    c     0.268482    0.297613    0.459045    0.000000
    14  O3    c     0.749299    0.195889    0.574147    0.000000
    15  O2    c     0.780170    0.627487    0.583199    0.000000
    16  O3    c     0.326083    0.694481    0.480139    0.000000
    17  O1    c     0.327263    0.503000    0.256626    0.000000
    18  O2    c     0.734211    0.421528    0.765316    0.000000
    19  O1    c     0.489541    0.194743    0.339628    0.000000
    20  O3    c     0.521091    0.198735    0.673035    0.000000
    21  O2    c     0.566137    0.706423    0.693231    0.000000
    22  O3    c     0.567728    0.732252    0.364016    0.000000
    23  O1    c     0.172837    0.193147    0.190745    0.000000
    24  O3    c     0.796239    0.095091    0.823655    0.000000
    25  O3    c     0.847879    0.731196    0.835544    0.000000
    26  O1    c     0.283361    0.863278    0.230503    0.000000
    27  O3    c     0.347523    0.500404    0.694418    0.000000
    28  O3    c     0.712666    0.438181    0.363020    0.000000
    29  O1    c     0.227313    0.172097    0.695734    0.000000
    30  O1    c     0.775477    0.089416    0.324515    0.000000
    31  O3    c     0.852966    0.730507    0.371439    0.000000
    32  O3    c     0.297785    0.828864    0.703089    0.000000
    33  O1    c     0.078538    0.977759    0.468290    0.000000
    34  O1    c     0.966375    0.925067    0.197433    0.000000
    35  O1    c     0.998128    0.935295    0.699153    0.000000
    36  O1    c     0.078187    0.953712    0.979688    0.000000
    37  O1    s     0.277490    0.297305    0.461054    0.000000
    38  O3    s     0.739388    0.201003    0.573417    0.000000
    39  O2    s     0.770123    0.627056    0.580890    0.000000
    40  O3    s     0.335394    0.693954    0.484111    0.000000
    41  O1    s     0.329834    0.502441    0.266117    0.000000
    42  O2    s     0.730772    0.423192    0.755223    0.000000
    43  O1    s     0.491772    0.204713    0.342165    0.000000
    44  O3    s     0.524974    0.208923    0.673533    0.000000
    45  O2    s     0.564556    0.695231    0.691009    0.000000
    46  O3    s     0.568092    0.719973    0.366626    0.000000
    47  O1    s     0.179711    0.185378    0.196915    0.000000
    48  O3    s     0.796915    0.095535    0.813294    0.000000
    49  O3    s     0.842546    0.734859    0.824070    0.000000
    50  O1    s     0.278648    0.858863    0.232926    0.000000
    51  O3    s     0.350419    0.501192    0.684625    0.000000
    52  O3    s     0.711713    0.441097    0.371264    0.000000
    53  O1    s     0.230150    0.167230    0.687059    0.000000
    54  O1    s     0.778550    0.088216    0.331965    0.000000
    55  O3    s     0.845135    0.736244    0.373978    0.000000
    56  O3    s     0.295192    0.825254    0.692358    0.000000
    57  O1    s     0.071353    0.974304    0.471827    0.000000
    58  O1    s     0.974172    0.930026    0.204770    0.000000
    59  O1    s     0.005152    0.938316    0.705117    0.000000
    60  O1    s     0.069482    0.954076    0.980889    0.000000
--------------------------------------------------------------------------------

  Final Cartesian lattice vectors (Angstroms) :

        9.228240    0.116962    0.098558
        0.096957    7.788014    0.020210
       -3.240682   -0.020627    9.793605


  Final cell parameters and derivatives :

--------------------------------------------------------------------------------
       a            9.229508 Angstrom     dE/de1(xx)     0.000733 eV/strain
       b            7.788644 Angstrom     dE/de2(yy)     0.000314 eV/strain
       c           10.315868 Angstrom     dE/de3(zz)    -0.000049 eV/strain
       alpha       90.197472 Degrees      dE/de4(yz)     0.000108 eV/strain
       beta       107.697382 Degrees      dE/de5(xz)     0.000548 eV/strain
       gamma       88.559084 Degrees      dE/de6(xy)    -0.000112 eV/strain
--------------------------------------------------------------------------------

  Primitive cell volume =           706.235540 Angs**3

  Density of cell =      2.532905 g/cm**3

  Non-primitive cell volume =           706.235540 Angs**3


  Final internal derivatives :

--------------------------------------------------------------------------------
   No.  Atomic          a             b             c           Radius
        Label          (eV)          (eV)          (eV)        (eV/Angs)
--------------------------------------------------------------------------------
      1 Ge    c       0.000000      0.000000      0.000000      0.000000
      2 Ge    c      -0.000371      0.000151      0.001027      0.000000
      3 Ge    c      -0.000233     -0.000126     -0.000509      0.000000
      4 Ge    c      -0.000284      0.000082      0.000685      0.000000
      5 Ge    c      -0.000259     -0.000518      0.000474      0.000000
      6 Ge    c       0.000859      0.000427     -0.000969      0.000000
      7 Ge    c       0.000499      0.000614     -0.000272      0.000000
      8 Ge    c       0.001232      0.000210     -0.005664      0.000000
      9 Si    c       0.000008     -0.000176     -0.000137      0.000000
     10 Si    c       0.000224     -0.000278     -0.001589      0.000000
     11 Si    c      -0.000435     -0.000525      0.000169      0.000000
     12 Si    c      -0.000354     -0.000375     -0.000874      0.000000
     13 O1    c       0.001003      0.000664     -0.000152      0.000000
     14 O3    c      -0.000237      0.000182     -0.000567      0.000000
     15 O2    c       0.000006      0.000007      0.000588      0.000000
     16 O3    c       0.000860     -0.000320      0.000097      0.000000
     17 O1    c      -0.000245     -0.002424      0.000199      0.000000
     18 O2    c      -0.000043     -0.000511      0.000188      0.000000
     19 O1    c      -0.001195      0.000145      0.000268      0.000000
     20 O3    c       0.000542     -0.000307     -0.000168      0.000000
     21 O2    c      -0.000463      0.000374      0.000222      0.000000
     22 O3    c       0.000789      0.000129     -0.000643      0.000000
     23 O1    c      -0.001064     -0.000901      0.000341      0.000000
     24 O3    c      -0.000395      0.000591     -0.000117      0.000000
     25 O3    c       0.000304      0.000276      0.001257      0.000000
     26 O1    c       0.001204     -0.000863      0.000070      0.000000
     27 O3    c      -0.000025      0.000889      0.000037      0.000000
     28 O3    c       0.000001      0.001200     -0.000072      0.000000
     29 O1    c       0.000042      0.000457      0.000024      0.000000
     30 O1    c       0.000925      0.000189     -0.000983      0.000000
     31 O3    c       0.001024      0.000782     -0.000887      0.000000
     32 O3    c       0.000503     -0.000380     -0.000354      0.000000
     33 O1    c       0.000404      0.000633     -0.000854      0.000000
     34 O1    c      -0.001115     -0.000177      0.000590      0.000000
     35 O1    c      -0.006754     -0.001028      0.006481      0.000000
     36 O1    c       0.003339      0.000205      0.007918      0.000000
     37 O1    s      -0.000272     -0.000672     -0.000721      0.000000
     38 O3    s       0.000162     -0.000078      0.000573      0.000000
     39 O2    s      -0.000019     -0.000073     -0.000147      0.000000
     40 O3    s      -0.000646      0.000519     -0.000127      0.000000
     41 O1    s      -0.000109      0.001028      0.000282      0.000000
     42 O2    s       0.000117      0.000036     -0.000267      0.000000
     43 O1    s       0.000386     -0.000092     -0.000149      0.000000
     44 O3    s       0.000079      0.000392     -0.000034      0.000000
     45 O2    s       0.000132     -0.000010      0.000006      0.000000
     46 O3    s      -0.000758     -0.000088      0.001101      0.000000
     47 O1    s       0.000699      0.000477     -0.000236      0.000000
     48 O3    s      -0.000148     -0.000099     -0.000138      0.000000
     49 O3    s      -0.000000     -0.000154     -0.000266      0.000000
     50 O1    s      -0.000653      0.000697      0.000244      0.000000
     51 O3    s       0.000042     -0.000263     -0.000355      0.000000
     52 O3    s       0.000031     -0.000556      0.000162      0.000000
     53 O1    s      -0.000316     -0.000450      0.000048      0.000000
     54 O1    s      -0.000603     -0.000590      0.000588      0.000000
     55 O3    s      -0.000150      0.000067      0.000444      0.000000
     56 O3    s       0.000004     -0.000154      0.000008      0.000000
     57 O1    s      -0.000679     -0.000747      0.000310      0.000000
     58 O1    s       0.000854      0.000334     -0.000476      0.000000
     59 O1    s       0.004275      0.000757     -0.004228      0.000000
     60 O1    s      -0.002739     -0.000239     -0.003192      0.000000
--------------------------------------------------------------------------------
  Maximum abs         0.006754      0.002424      0.007918      0.000000
--------------------------------------------------------------------------------


  Born effective charge tensors : 

-------------------------------------------------------------------------------
  Atom             x           y             z
-------------------------------------------------------------------------------
    1 Ge    x       3.8826      0.0710      0.2855
            y       0.4451      4.1797      0.2329
            z       0.2265      0.2057      3.7294
-------------------------------------------------------------------------------
    2 Ge    x       3.7566     -0.1963      0.3465
            y      -0.1915      4.2227     -0.1506
            z       0.1438     -0.3167      3.6300
-------------------------------------------------------------------------------
    3 Ge    x       4.0194      0.2662     -0.0750
            y       0.5007      4.1284      0.0071
            z       0.0965     -0.1336      3.3147
-------------------------------------------------------------------------------
    4 Ge    x       4.0471     -0.2772     -0.1527
            y      -0.2899      4.1847      0.1540
            z       0.1181      0.1648      3.3744
-------------------------------------------------------------------------------
    5 Ge    x       4.5086      0.1559     -0.2562
            y      -0.1456      3.9371     -0.1750
            z      -0.2092      0.0365      3.7901
-------------------------------------------------------------------------------
    6 Ge    x       4.5628      0.2780      0.3395
            y      -0.0454      3.9605      0.0324
            z      -0.4055     -0.0472      3.4622
-------------------------------------------------------------------------------
    7 Ge    x       4.0542      0.3151      0.3361
            y      -0.1518      3.8895     -0.0399
            z       0.0156      0.1558      4.7901
-------------------------------------------------------------------------------
    8 Ge    x       3.9352      0.1573     -0.2006
            y      -0.0595      3.9447      0.0215
            z       0.6778      0.2042      4.4791
-------------------------------------------------------------------------------
    9 Si    x       3.5824     -0.2501      0.3097
            y      -0.2568      3.7103     -0.2972
            z       0.0985     -0.2877      3.2906
-------------------------------------------------------------------------------
   10 Si    x       3.1356      0.1668      0.3365
            y       0.3812      3.4947      0.3761
            z       0.2065      0.3010      3.0407
-------------------------------------------------------------------------------
   11 Si    x       3.7987      0.1253     -0.1121
            y       0.4268      3.8828      0.0253
            z      -0.0085     -0.1303      2.9067
-------------------------------------------------------------------------------
   12 Si    x       3.5342     -0.3716     -0.2068
            y      -0.3022      3.8521     -0.0500
            z       0.0019      0.0141      3.0577
-------------------------------------------------------------------------------
   13 O1    x      -1.5545     -0.0657      0.2901
            y      -0.1149     -1.4342     -0.0606
            z       0.3094     -0.0080     -2.6344
-------------------------------------------------------------------------------
   14 O3    x      -1.4980      0.1342      0.4195
            y       0.1452     -1.4218     -0.0012
            z       0.3636      0.0050     -2.3847
-------------------------------------------------------------------------------
   15 O2    x      -1.3384     -0.0680      0.2899
            y      -0.1239     -1.2490      0.0153
            z       0.2795      0.0171     -1.9411
-------------------------------------------------------------------------------
   16 O3    x      -1.4864      0.0832      0.2614
            y       0.0803     -1.3379      0.0710
            z       0.3025      0.0787     -2.4888
-------------------------------------------------------------------------------
   17 O1    x      -1.3349     -0.2205     -0.0859
            y      -0.3227     -3.1207     -0.1292
            z      -0.0555     -0.1314     -1.4611
-------------------------------------------------------------------------------
   18 O2    x      -1.1226     -0.0670     -0.0671
            y      -0.1192     -2.4540     -0.0192
            z      -0.0347      0.0155     -1.1584
-------------------------------------------------------------------------------
   19 O1    x      -2.9069      0.2278     -0.5189
            y       0.1307     -1.5616     -0.0142
            z      -0.5443     -0.0036     -1.3873
-------------------------------------------------------------------------------
   20 O3    x      -2.8422      0.1431     -0.4505
            y       0.0500     -1.4699      0.0236
            z      -0.4274      0.0775     -1.2099
-------------------------------------------------------------------------------
   21 O2    x      -2.2256      0.2065     -0.2892
            y       0.1256     -1.3093      0.0016
            z      -0.3033      0.0043     -1.1135
-------------------------------------------------------------------------------
   22 O3    x      -2.6955      0.2709     -0.4586
            y       0.2435     -1.4858      0.1330
            z      -0.4757      0.1700     -1.3148
-------------------------------------------------------------------------------
   23 O1    x      -1.6804     -0.6388     -0.5242
            y      -0.6047     -2.5465     -0.6983
            z      -0.4990     -0.7221     -1.9581
-------------------------------------------------------------------------------
   24 O3    x      -1.6871      0.6976     -0.3936
            y       0.7600     -2.3386      0.6691
            z      -0.4714      0.6688     -1.7826
-------------------------------------------------------------------------------
   25 O3    x      -1.6578     -0.7511     -0.4341
            y      -0.7217     -2.3779     -0.6162
            z      -0.5030     -0.6789     -1.7957
-------------------------------------------------------------------------------
   26 O1    x      -1.9328      0.7193     -0.6607
            y       0.7677     -2.3387      0.8023
            z      -0.6121      0.8080     -2.0226
-------------------------------------------------------------------------------
   27 O3    x      -1.3962     -0.2148      0.0901
            y      -0.2717     -2.9162      0.0180
            z       0.0518      0.0490     -1.1929
-------------------------------------------------------------------------------
   28 O3    x      -1.3018     -0.1198      0.0675
            y      -0.2192     -3.0818     -0.2166
            z       0.0211     -0.1675     -1.2413
-------------------------------------------------------------------------------
   29 O1    x      -2.2097     -0.9686      0.1012
            y      -0.9299     -2.6289     -0.0085
            z       0.1659      0.0257     -1.3087
-------------------------------------------------------------------------------
   30 O1    x      -2.4131      1.0425      0.3120
            y       1.0912     -2.4228     -0.2338
            z       0.2693     -0.2496     -1.3851
-------------------------------------------------------------------------------
   31 O3    x      -2.2982     -0.9862      0.3911
            y      -0.9221     -2.2809      0.3300
            z       0.3185      0.2943     -1.2616
-------------------------------------------------------------------------------
   32 O3    x      -2.2322      0.9741      0.0638
            y       1.0106     -2.2591     -0.0807
            z       0.1482     -0.1337     -1.2397
-------------------------------------------------------------------------------
   33 O1    x      -1.9529     -0.1857     -0.6676
            y      -0.0816     -1.3680     -0.1261
            z      -0.4128     -0.1299     -2.5497
-------------------------------------------------------------------------------
   34 O1    x      -2.6524     -0.2909      0.8569
            y      -0.1594     -1.3234      0.1042
            z       0.8916      0.0911     -2.2661
-------------------------------------------------------------------------------
   35 O1    x      -2.8660     -0.2510      0.8968
            y      -0.1185     -1.3538      0.0768
            z       0.8472      0.0954     -1.9862
-------------------------------------------------------------------------------
   36 O1    x      -1.5316     -0.1115     -0.4403
            y      -0.0063     -1.3064     -0.1767
            z      -0.5913     -0.3420     -3.7816
-------------------------------------------------------------------------------




  Elastic Constant Matrix: (Units=GPa)

-------------------------------------------------------------------------------
  Indices      1         2         3         4         5         6    
-------------------------------------------------------------------------------
       1     29.8822   15.0027    4.2839    0.6433    0.0548    7.3445
       2     15.0027   44.2192    8.7946    2.4337    3.1402   10.7701
       3      4.2839    8.7946   21.8156    5.2074    7.8186    3.6362
       4      0.6433    2.4337    5.2074    9.3544    2.5162    3.8059
       5      0.0548    3.1402    7.8186    2.5162    9.0028    2.7793
       6      7.3445   10.7701    3.6362    3.8059    2.7793   20.7877
-------------------------------------------------------------------------------


  Elastic Compliance Matrix: (Units=1/GPa)

-------------------------------------------------------------------------------
  Indices      1         2         3         4         5         6    
-------------------------------------------------------------------------------
       1    0.042805 -0.011645 -0.007582  0.005258  0.012110 -0.010346
       2   -0.011645  0.030805 -0.008707  0.002075 -0.000404 -0.010649
       3   -0.007582 -0.008707  0.077131 -0.027089 -0.058324  0.006456
       4    0.005258  0.002075 -0.027089  0.131764 -0.007476 -0.021319
       5    0.012110 -0.000404 -0.058324 -0.007476  0.168525 -0.015030
       6   -0.010346 -0.010649  0.006456 -0.021319 -0.015030  0.062061
-------------------------------------------------------------------------------

  Mechanical properties :

-------------------------------------------------------------------------------
  Convention :                    Reuss         Voigt         Hill
-------------------------------------------------------------------------------
  Bulk  Modulus (GPa)     =      10.54035      16.89770      13.71903
  Shear Modulus (GPa)     =       8.32522      12.35138      10.33830
-------------------------------------------------------------------------------
  Velocity S-wave (km/s)  =       1.81296       2.20825       2.02030
  Velocity P-wave (km/s)  =       2.92298       3.62948       3.29522
-------------------------------------------------------------------------------
  Compressibility (1/GPa) =    0.09487350
-------------------------------------------------------------------------------
  Stress axis :                     x             y             z
-------------------------------------------------------------------------------
  Youngs Moduli (GPa)     =      23.36154      32.46191      12.96495
-------------------------------------------------------------------------------
  Poissons Ratio (x)      =                     0.37801       0.09830
  Poissons Ratio (y)      =       0.27204                     0.11289
  Poissons Ratio (z)      =       0.17713       0.28266
-------------------------------------------------------------------------------


  Piezoelectric Strain Matrix: (Units=C/m**2)

-------------------------------------------------------------------------------
  Indices      1         2         3         4         5         6    
-------------------------------------------------------------------------------
       x     0.09604   0.07298   0.52991  -0.49754   0.48097  -0.87818
       y    -0.42958   0.45272  -0.02445   0.39042   0.04993   0.50919
       z    -0.58267  -0.12632   0.27872  -0.44061   0.98964  -0.00679
-------------------------------------------------------------------------------


  Piezoelectric Stress Matrix: (Units=10**-11 C/N)

-------------------------------------------------------------------------------
  Indices      1         2         3         4         5         6    
-------------------------------------------------------------------------------
       x     1.15373   0.46403   1.92655  -6.41299   6.82010  -4.94727
       y    -2.60850   1.45291  -1.27724   3.95579  -0.61154   2.19926
       z    -1.58460  -0.07755  -1.88122  -7.61862  14.69142   0.32707
-------------------------------------------------------------------------------


  Static dielectric constant tensor : 

-------------------------------------------------------------------------------
              x         y         z
-------------------------------------------------------------------------------
       x     4.96742  -0.01510   0.15083
       y    -0.01510   5.86340   0.03604
       z     0.15083   0.03604   4.30290
--------------------------------------------------------------------------------

  High frequency dielectric constant tensor : 

-------------------------------------------------------------------------------
              x         y         z
-------------------------------------------------------------------------------
       x     1.56612   0.00331   0.00951
       y     0.00331   1.57804   0.00065
       z     0.00951   0.00065   1.52227
-------------------------------------------------------------------------------

  Static refractive indices : 

-------------------------------------------------------------------------------
    1 =    2.06624      2 =    2.23607      3 =    2.42165
-------------------------------------------------------------------------------

  High frequency refractive indices : 

-------------------------------------------------------------------------------
    1 =    1.23300      2 =    1.25182      3 =    1.25662
-------------------------------------------------------------------------------


  Time to end of optimisation =       2.6356 seconds


  Peak dynamic memory used =       2.76 MB 


  Timing analysis for GULP :

--------------------------------------------------------------------------------
  Task / Subroutine                                          Time (Seconds)
--------------------------------------------------------------------------------
  Calculation of reciprocal space energy and derivatives          0.1751
  Calculation of real space energy and derivatives                2.1613
  Calculation of three-body energy and derivatives                0.0369
  Calculation and manipulation of Hessian matrix                  0.3416
  Calculation of matrix inversion                                 0.0038
--------------------------------------------------------------------------------
  Total CPU time                                                  2.6356
--------------------------------------------------------------------------------


  Dump file written as c00127.vasp.grs
  CIF file written as c00127.vasp.cif


  Job Finished at 11:44.47 22nd October    2025                               

