********************************************************************************
*                       GENERAL UTILITY LATTICE PROGRAM                        *
*                                 Julian Gale                                  *
*                       Curtin Institute for Computation                       *
*                    School of Molecular and Life Sciences                     *
*                    Curtin University, Western Australia                      *
********************************************************************************
* Version = 6.1.2 * Last modified =   3rd November 2022                        *
********************************************************************************
*  optimise     - perform optimisation run                                     *
*  conp         - constant pressure calculation                                *
*  property     - calculate properties for final geometry                      *
********************************************************************************

  Job Started  at 11:43.32 22nd October    2025                               

  Number of CPUs =     1


  Total number of configurations input =      1

********************************************************************************
*  Input for Configuration =   1 : c00106.vasp                                 *
********************************************************************************

  Formula = Ge8Si4O24                                                   

  Number of irreducible atoms/shells =      60


  Total number atoms/shells =      60

  Dimensionality = 3               :  Bulk   



  Cartesian lattice vectors (Angstroms) :

        9.086940    0.000000    0.000000
        0.000000    7.554810    0.000000
       -3.295144    0.000000    9.944380

  Cell parameters (Angstroms/Degrees):

  a =       9.0869    alpha =  90.0000
  b =       7.5548    beta  = 108.3330
  c =      10.4761    gamma =  90.0000

  Initial cell volume =         682.682735 Angs**3

  Temperature of configuration =   0.00     K 

  Pressure of configuration =         0.000 GPa 

  Fractional coordinates of asymmetric unit :

--------------------------------------------------------------------------------
   No.  Atomic       x           y          z         Charge      Occupancy
        Label      (Frac)      (Frac)     (Frac)        (e)         (Frac)  
--------------------------------------------------------------------------------
      1 Ge    c    0.313820    0.296860    0.309830     4.00000    1.000000    
      2 Ge    c    0.686180 *  0.703140 *  0.690170 *   4.00000    1.000000    
      3 Ge    c    0.331050 *  0.296920 *  0.607380 *   4.00000    1.000000    
      4 Ge    c    0.668950 *  0.296920 *  0.392620 *   4.00000    1.000000    
      5 Ge    c    0.331050 *  0.703080 *  0.607380 *   4.00000    1.000000    
      6 Ge    c    0.879680 *  0.000000 *  0.350160 *   4.00000    1.000000    
      7 Ge    c    0.120320 *  0.000000 *  0.649840 *   4.00000    1.000000    
      8 Ge    c    0.906930 *  0.000000 *  0.841770 *   4.00000    1.000000    
      9 Si    c    0.686180 *  0.296860 *  0.690170 *   4.00000    1.000000    
     10 Si    c    0.313820 *  0.703140 *  0.309830 *   4.00000    1.000000    
     11 Si    c    0.668950 *  0.703080 *  0.392620 *   4.00000    1.000000    
     12 Si    c    0.093070 *  0.000000 *  0.158230 *   4.00000    1.000000    
     13 O1    c    0.268740 *  0.279030 *  0.446100 *   1.73396    1.000000    
     14 O3    c    0.731260 *  0.279030 *  0.553900 *   1.33043    1.000000    
     15 O3    c    0.731260 *  0.720970 *  0.553900 *   1.33043    1.000000    
     16 O3    c    0.268740 *  0.720970 *  0.446100 *   1.33043    1.000000    
     17 O3    c    0.295480 *  0.500000 *  0.260860 *   1.33043    1.000000    
     18 O3    c    0.704520 *  0.500000 *  0.739140 *   1.33043    1.000000    
     19 O1    c    0.490600 *  0.234690 *  0.337530 *   1.73396    1.000000    
     20 O3    c    0.509400 *  0.234690 *  0.662470 *   1.33043    1.000000    
     21 O1    c    0.509400 *  0.765310 *  0.662470 *   1.73396    1.000000    
     22 O2    c    0.490600 *  0.765310 *  0.337530 *   0.87073    1.000000    
     23 O3    c    0.200440 *  0.174000 *  0.194980 *   1.33043    1.000000    
     24 O3    c    0.799560 *  0.174000 *  0.805020 *   1.33043    1.000000    
     25 O1    c    0.799560 *  0.826000 *  0.805020 *   1.73396    1.000000    
     26 O2    c    0.200440 *  0.826000 *  0.194980 *   0.87073    1.000000    
     27 O1    c    0.317860 *  0.500000 *  0.649090 *   1.73396    1.000000    
     28 O3    c    0.682140 *  0.500000 *  0.350910 *   1.33043    1.000000    
     29 O1    c    0.227920 *  0.173870 *  0.671620 *   1.73396    1.000000    
     30 O1    c    0.772080 *  0.173870 *  0.328380 *   1.73396    1.000000    
     31 O3    c    0.772080 *  0.826130 *  0.328380 *   1.33043    1.000000    
     32 O1    c    0.227920 *  0.826130 *  0.671620 *   1.73396    1.000000    
     33 O1    c    0.000000 *  0.000000 *  0.500000 *   1.73396    1.000000    
     34 O3    c    0.971960 *  0.000000 *  0.241930 *   1.33043    1.000000    
     35 O1    c    0.028040 *  0.000000 *  0.758070 *   1.73396    1.000000    
     36 O3    c    0.000000 *  0.000000 *  0.000000 *   1.33043    1.000000    
     37 O1    s    0.268740 *  0.279030 *  0.446100 *  -3.73396    1.000000    
     38 O3    s    0.731260 *  0.279030 *  0.553900 *  -3.33043    1.000000    
     39 O3    s    0.731260 *  0.720970 *  0.553900 *  -3.33043    1.000000    
     40 O3    s    0.268740 *  0.720970 *  0.446100 *  -3.33043    1.000000    
     41 O3    s    0.295480 *  0.500000 *  0.260860 *  -3.33043    1.000000    
     42 O3    s    0.704520 *  0.500000 *  0.739140 *  -3.33043    1.000000    
     43 O1    s    0.490600 *  0.234690 *  0.337530 *  -3.73396    1.000000    
     44 O3    s    0.509400 *  0.234690 *  0.662470 *  -3.33043    1.000000    
     45 O1    s    0.509400 *  0.765310 *  0.662470 *  -3.73396    1.000000    
     46 O2    s    0.490600 *  0.765310 *  0.337530 *  -2.87073    1.000000    
     47 O3    s    0.200440 *  0.174000 *  0.194980 *  -3.33043    1.000000    
     48 O3    s    0.799560 *  0.174000 *  0.805020 *  -3.33043    1.000000    
     49 O1    s    0.799560 *  0.826000 *  0.805020 *  -3.73396    1.000000    
     50 O2    s    0.200440 *  0.826000 *  0.194980 *  -2.87073    1.000000    
     51 O1    s    0.317860 *  0.500000 *  0.649090 *  -3.73396    1.000000    
     52 O3    s    0.682140 *  0.500000 *  0.350910 *  -3.33043    1.000000    
     53 O1    s    0.227920 *  0.173870 *  0.671620 *  -3.73396    1.000000    
     54 O1    s    0.772080 *  0.173870 *  0.328380 *  -3.73396    1.000000    
     55 O3    s    0.772080 *  0.826130 *  0.328380 *  -3.33043    1.000000    
     56 O1    s    0.227920 *  0.826130 *  0.671620 *  -3.73396    1.000000    
     57 O1    s    0.000000 *  0.000000 *  0.500000 *  -3.73396    1.000000    
     58 O3    s    0.971960 *  0.000000 *  0.241930 *  -3.33043    1.000000    
     59 O1    s    0.028040 *  0.000000 *  0.758070 *  -3.73396    1.000000    
     60 O3    s    0.000000 *  0.000000 *  0.000000 *  -3.33043    1.000000    
--------------------------------------------------------------------------------



********************************************************************************
*  General input information                                                   *
********************************************************************************

  Species output for all configurations : 

--------------------------------------------------------------------------------
  Species    Type    Atomic    Atomic    Charge       Radii (Angs)     Library
                     Number     Mass       (e)     Cova   Ionic  VDW   Symbol
--------------------------------------------------------------------------------
    Ge       Core       32      72.61   4.000000   1.170  0.000  1.750 Ge       
    Si       Core       14      28.09   4.000000   1.200  0.000  2.100 Si       
    O1       Core        8      16.00   1.733957   0.730  0.000  1.360 O1       
    O2       Core        8      16.00   0.870733   0.730  0.000  1.360 O2       
    O3       Core        8      16.00   1.330431   0.730  0.000  1.360 O3       
    O1       Shell       8       0.00  -3.733957   0.730  0.000  0.000 O1       
    O2       Shell       8       0.00  -2.870733   0.730  0.000  0.000 O2       
    O3       Shell       8       0.00  -3.330431   0.730  0.000  0.000 O3       
--------------------------------------------------------------------------------


  Lattice summation method               =    Ewald          (3-D)
                                         =    Parry          (2-D)
                                         =    Saunders et al (1-D)
  Accuracy factor for lattice sums       =   12.000


  Analytic derivatives to be used

  Time limit = Infinity

  Maximum range for interatomic potentials =    100000.000000 Angstroms

  General interatomic potentials :

--------------------------------------------------------------------------------
Atom  Types   Potential      Parameter       Value         Units   Cutoffs(Ang)
  1     2                                                            Min /  Max 
--------------------------------------------------------------------------------
Si   c O1   s Buckingham    Buckingham A     1315.2478    eV        0.000 16.000
                            Buckingham rho  0.31775900    Ang       
                            Buckingham C     10.141118    eV*Ang^6  
--------------------------------------------------------------------------------
Si   c O2   s Buckingham    Buckingham A     1315.2478    eV        0.000 16.000
                            Buckingham rho  0.31775900    Ang       
                            Buckingham C     10.141118    eV*Ang^6  
--------------------------------------------------------------------------------
Si   c O3   s Buckingham    Buckingham A     1315.2478    eV        0.000 16.000
                            Buckingham rho  0.31775900    Ang       
                            Buckingham C     10.141118    eV*Ang^6  
--------------------------------------------------------------------------------
Ge   c O1   s Buckingham    Buckingham A     1497.3996    eV        0.000 16.000
                            Buckingham rho  0.32564600    Ang       
                            Buckingham C     16.808599    eV*Ang^6  
--------------------------------------------------------------------------------
Ge   c O2   s Buckingham    Buckingham A     1497.3996    eV        0.000 16.000
                            Buckingham rho  0.32564600    Ang       
                            Buckingham C     16.808599    eV*Ang^6  
--------------------------------------------------------------------------------
Ge   c O3   s Buckingham    Buckingham A     1497.3996    eV        0.000 16.000
                            Buckingham rho  0.32564600    Ang       
                            Buckingham C     16.808599    eV*Ang^6  
--------------------------------------------------------------------------------
O1   s O1   s Buckingham    Buckingham A     22764.000    eV        0.000 16.000
                            Buckingham rho  0.14900000    Ang       
                            Buckingham C     10.937044    eV*Ang^6  
--------------------------------------------------------------------------------
O1   s O2   s Buckingham    Buckingham A     22764.000    eV        0.000 16.000
                            Buckingham rho  0.14900000    Ang       
                            Buckingham C     10.937044    eV*Ang^6  
--------------------------------------------------------------------------------
O1   s O3   s Buckingham    Buckingham A     22764.000    eV        0.000 16.000
                            Buckingham rho  0.14900000    Ang       
                            Buckingham C     10.937044    eV*Ang^6  
--------------------------------------------------------------------------------
O2   s O2   s Buckingham    Buckingham A     22764.000    eV        0.000 16.000
                            Buckingham rho  0.14900000    Ang       
                            Buckingham C     10.937044    eV*Ang^6  
--------------------------------------------------------------------------------
O2   s O3   s Buckingham    Buckingham A     22764.000    eV        0.000 16.000
                            Buckingham rho  0.14900000    Ang       
                            Buckingham C     10.937044    eV*Ang^6  
--------------------------------------------------------------------------------
O3   s O3   s Buckingham    Buckingham A     22764.000    eV        0.000 16.000
                            Buckingham rho  0.14900000    Ang       
                            Buckingham C     10.937044    eV*Ang^6  
--------------------------------------------------------------------------------
O1   c O1   s Spring (c-s)  Spring k 2       180.31577    eV*Ang^-2 0.000  0.800
                            Spring k 4       0.0000000    eV*Ang^-4 
--------------------------------------------------------------------------------
O2   c O2   s Spring (c-s)  Spring k 2       75.969800    eV*Ang^-2 0.000  0.800
                            Spring k 4       0.0000000    eV*Ang^-4 
--------------------------------------------------------------------------------
O3   c O3   s Spring (c-s)  Spring k 2       128.14270    eV*Ang^-2 0.000  0.800
                            Spring k 4       0.0000000    eV*Ang^-4 
--------------------------------------------------------------------------------

  General Three-body potentials :

--------------------------------------------------------------------------------
  Atoms       Potential      Parameter       Value         Units   Cutoffs(Ang)
  1 / 2 / 3                                                          Min /  Max 
--------------------------------------------------------------------------------
Si    core    Harmonic      Three-body cnst  1.2614000    eV*rad^-2 0.000  1.900
O1    shel                  Three-body angl  109.47000    degrees   0.000  1.900
O1    shel                  Three-body k4    0.0000000    eV*rad^-4 0.000  3.500
                            Three-body k3    0.0000000    eV*rad^-3 
--------------------------------------------------------------------------------
Si    core    Harmonic      Three-body cnst  1.2614000    eV*rad^-2 0.000  1.900
O1    shel                  Three-body angl  109.47000    degrees   0.000  1.900
õ(1   shel                  Three-body k4    0.0000000    eV*rad^-4 0.000  3.500
                            Three-body k3    0.0000000    eV*rad^-3 
--------------------------------------------------------------------------------
Si    core    Harmonic      Three-body cnst  1.2614000    eV*rad^-2 0.000  1.900
õ(1   shel                  Three-body angl  109.47000    degrees   0.000  1.900
õ(1   shel                  Three-body k4    0.0000000    eV*rad^-4 0.000  3.500
                            Three-body k3    0.0000000    eV*rad^-3 
--------------------------------------------------------------------------------
Si    core    Harmonic      Three-body cnst  1.2614000    eV*rad^-2 0.000  1.900
O1    shel                  Three-body angl  109.47000    degrees   0.000  1.900
O2    shel                  Three-body k4    0.0000000    eV*rad^-4 0.000  3.500
                            Three-body k3    0.0000000    eV*rad^-3 
--------------------------------------------------------------------------------
Si    core    Harmonic      Three-body cnst  1.2614000    eV*rad^-2 0.000  1.900
O1    shel                  Three-body angl  109.47000    degrees   0.000  1.900
õ(2   shel                  Three-body k4    0.0000000    eV*rad^-4 0.000  3.500
                            Three-body k3    0.0000000    eV*rad^-3 
--------------------------------------------------------------------------------
Si    core    Harmonic      Three-body cnst  1.2614000    eV*rad^-2 0.000  1.900
O2    shel                  Three-body angl  109.47000    degrees   0.000  1.900
õ(1   shel                  Three-body k4    0.0000000    eV*rad^-4 0.000  3.500
                            Three-body k3    0.0000000    eV*rad^-3 
--------------------------------------------------------------------------------
Si    core    Harmonic      Three-body cnst  1.2614000    eV*rad^-2 0.000  1.900
õ(1   shel                  Three-body angl  109.47000    degrees   0.000  1.900
õ(2   shel                  Three-body k4    0.0000000    eV*rad^-4 0.000  3.500
                            Three-body k3    0.0000000    eV*rad^-3 
--------------------------------------------------------------------------------
Si    core    Harmonic      Three-body cnst  1.2614000    eV*rad^-2 0.000  1.900
O2    shel                  Three-body angl  109.47000    degrees   0.000  1.900
O2    shel                  Three-body k4    0.0000000    eV*rad^-4 0.000  3.500
                            Three-body k3    0.0000000    eV*rad^-3 
--------------------------------------------------------------------------------
Si    core    Harmonic      Three-body cnst  1.2614000    eV*rad^-2 0.000  1.900
O2    shel                  Three-body angl  109.47000    degrees   0.000  1.900
õ(2   shel                  Three-body k4    0.0000000    eV*rad^-4 0.000  3.500
                            Three-body k3    0.0000000    eV*rad^-3 
--------------------------------------------------------------------------------
Si    core    Harmonic      Three-body cnst  1.2614000    eV*rad^-2 0.000  1.900
õ(2   shel                  Three-body angl  109.47000    degrees   0.000  1.900
õ(2   shel                  Three-body k4    0.0000000    eV*rad^-4 0.000  3.500
                            Three-body k3    0.0000000    eV*rad^-3 
--------------------------------------------------------------------------------

********************************************************************************
*  Output for configuration   1 : c00106.vasp                                  *
********************************************************************************


  Components of energy : 

--------------------------------------------------------------------------------
  Interatomic potentials     =         432.37989385 eV    
  Three-body potentials      =           0.00000065 eV    
  Monopole - monopole (real) =       -1236.99964305 eV    
  Monopole - monopole (recip)=        -659.26603192 eV    
  Monopole - monopole (total)=       -1896.26567496 eV    
--------------------------------------------------------------------------------
  Total lattice energy       =       -1463.88578045 eV    
--------------------------------------------------------------------------------
  Total lattice energy       =         -141242.6003 kJ/(mole unit cells)
--------------------------------------------------------------------------------


  Number of variables =      183

  Maximum number of calculations  =          1000
  Maximum Hessian update interval =            10
  Maximum step size               =   0.100000000
  Maximum parameter tolerance     =   0.000010000
  Maximum function  tolerance     =   0.000010000
  Maximum gradient  tolerance     =   0.001000000
  Maximum gradient  component     =   0.010000000

  Symmetry not applied to optimisation

  Cell parameters to be optimised using strains

  Newton-Raphson optimiser to be used

  BFGS hessian update to be used

  Lower half triangular hessian to be used

  Minimiser to switch to RFO
  When gradient norm is less than     0.050000

  Dumpfile to be written after every cycle

  Start of bulk optimisation :

  Cycle:      0 Energy:     -1463.885780  Gnorm:      6.360052  CPU:    0.042
  ** Hessian calculated **
  Cycle:      1 Energy:     -1473.793969  Gnorm:      4.755719  CPU:    0.115
  ** Hessian calculated **
  Cycle:      2 Energy:     -1484.109153  Gnorm:      1.237276  CPU:    0.184
  ** Hessian calculated **
  Cycle:      3 Energy:     -1485.270155  Gnorm:      0.667445  CPU:    0.253
  Cycle:      4 Energy:     -1485.757829  Gnorm:      0.433643  CPU:    0.294
  Cycle:      5 Energy:     -1486.210719  Gnorm:      0.358076  CPU:    0.343
  Cycle:      6 Energy:     -1486.676424  Gnorm:      0.306851  CPU:    0.392
  Cycle:      7 Energy:     -1486.945169  Gnorm:      0.234617  CPU:    0.433
  Cycle:      8 Energy:     -1487.084870  Gnorm:      0.193593  CPU:    0.475
  Cycle:      9 Energy:     -1487.158715  Gnorm:      0.143235  CPU:    0.516
  Cycle:     10 Energy:     -1487.199949  Gnorm:      0.120110  CPU:    0.558
  Cycle:     11 Energy:     -1487.245919  Gnorm:      0.118525  CPU:    0.607
  Cycle:     12 Energy:     -1487.291631  Gnorm:      0.125771  CPU:    0.656
  ** Hessian calculated **
  Cycle:     13 Energy:     -1487.316235  Gnorm:      0.124431  CPU:    0.733
  Cycle:     14 Energy:     -1487.362930  Gnorm:      0.121291  CPU:    0.790
  Cycle:     15 Energy:     -1487.433532  Gnorm:      0.114701  CPU:    0.839
  Cycle:     16 Energy:     -1487.529016  Gnorm:      0.103596  CPU:    0.896
  Cycle:     17 Energy:     -1487.588743  Gnorm:      0.094144  CPU:    0.945
  ** Hessian calculated **
  Cycle:     18 Energy:     -1487.597286  Gnorm:      0.074137  CPU:    1.013
  Cycle:     19 Energy:     -1487.611695  Gnorm:      0.071338  CPU:    1.062
  Cycle:     20 Energy:     -1487.633731  Gnorm:      0.077187  CPU:    1.111
  Cycle:     21 Energy:     -1487.659542  Gnorm:      0.096145  CPU:    1.160
  Cycle:     22 Energy:     -1487.678056  Gnorm:      0.082660  CPU:    1.201
  Cycle:     23 Energy:     -1487.694060  Gnorm:      0.080958  CPU:    1.243
  Cycle:     24 Energy:     -1487.713946  Gnorm:      0.083383  CPU:    1.292
  Cycle:     25 Energy:     -1487.737060  Gnorm:      0.089668  CPU:    1.341
  Cycle:     26 Energy:     -1487.766905  Gnorm:      0.105726  CPU:    1.390
  Cycle:     27 Energy:     -1487.802112  Gnorm:      0.110051  CPU:    1.439
  ** Hessian calculated **
  Cycle:     28 Energy:     -1487.832034  Gnorm:      0.107999  CPU:    1.515
  Cycle:     29 Energy:     -1487.884402  Gnorm:      0.104410  CPU:    1.571
  Cycle:     30 Energy:     -1487.956028  Gnorm:      0.094476  CPU:    1.619
  Cycle:     31 Energy:     -1488.047978  Gnorm:      0.082034  CPU:    1.669
  Cycle:     32 Energy:     -1488.114106  Gnorm:      0.057862  CPU:    1.720
  Cycle:     33 Energy:     -1488.186886  Gnorm:      0.051237  CPU:    1.784
  Cycle:     34 Energy:     -1488.193654  Gnorm:      0.047756  CPU:    1.834
  ** Hessian has wrong structure
  ** Imaginary eigenvectors =   3
  Cycle:     35 Energy:     -1488.200436  Gnorm:      0.084575  CPU:    1.914
  ** Hessian has wrong structure
  ** Imaginary eigenvectors =   2
  ** Hessian has wrong structure
  ** Imaginary eigenvectors =   1
  Cycle:     36 Energy:     -1488.238238  Gnorm:      0.099045  CPU:    2.095
  ** Hessian has required structure
  ** Hessian has required structure
  Cycle:     37 Energy:     -1488.307057  Gnorm:      0.105627  CPU:    2.179
  ** Hessian has required structure
  Cycle:     38 Energy:     -1488.360214  Gnorm:      0.100399  CPU:    2.228
  ** Hessian has required structure
  Cycle:     39 Energy:     -1488.394398  Gnorm:      0.050170  CPU:    2.270
  ** Hessian has required structure
  Cycle:     40 Energy:     -1488.428873  Gnorm:      0.049945  CPU:    2.328
  ** Hessian has required structure
  Cycle:     41 Energy:     -1488.452846  Gnorm:      0.068754  CPU:    2.377
  ** Hessian has required structure
  Cycle:     42 Energy:     -1488.465891  Gnorm:      0.064868  CPU:    2.427
  ** Hessian has required structure
  Cycle:     43 Energy:     -1488.480879  Gnorm:      0.048177  CPU:    2.476
  ** Hessian has required structure
  Cycle:     44 Energy:     -1488.490267  Gnorm:      0.045221  CPU:    2.533
  ** Hessian has required structure
  Cycle:     45 Energy:     -1488.498225  Gnorm:      0.027124  CPU:    2.583
  ** Hessian has required structure
  Cycle:     46 Energy:     -1488.502966  Gnorm:      0.031208  CPU:    2.632
  ** Hessian has required structure
  Cycle:     47 Energy:     -1488.510563  Gnorm:      0.020082  CPU:    2.707
  ** Hessian has required structure
  Cycle:     48 Energy:     -1488.513343  Gnorm:      0.010976  CPU:    2.764
  ** Hessian has required structure
  Cycle:     49 Energy:     -1488.514264  Gnorm:      0.004888  CPU:    2.821
  ** Hessian has required structure
  Cycle:     50 Energy:     -1488.514550  Gnorm:      0.003717  CPU:    2.871
  ** Hessian has required structure
  Cycle:     51 Energy:     -1488.514669  Gnorm:      0.001609  CPU:    2.921
  ** Hessian has required structure
  Cycle:     52 Energy:     -1488.514713  Gnorm:      0.000964  CPU:    2.978
  ** Hessian has required structure
  Cycle:     53 Energy:     -1488.514723  Gnorm:      0.000419  CPU:    3.036
  ** Hessian has required structure
  Cycle:     54 Energy:     -1488.514724  Gnorm:      0.000305  CPU:    3.077
  ** Hessian has required structure
  Cycle:     55 Energy:     -1488.514725  Gnorm:      0.000207  CPU:    3.119
  ** Hessian has required structure


  **** Optimisation achieved ****


  Final energy =   -1488.51472532 eV      
  Final Gnorm  =       0.00014761

  Components of energy : 

--------------------------------------------------------------------------------
  Interatomic potentials     =         395.36348503 eV    
  Three-body potentials      =           0.00001979 eV    
  Monopole - monopole (real) =        -666.54560943 eV    
  Monopole - monopole (recip)=       -1217.33262072 eV    
  Monopole - monopole (total)=       -1883.87823014 eV    
--------------------------------------------------------------------------------
  Total lattice energy       =       -1488.51472532 eV    
--------------------------------------------------------------------------------
  Total lattice energy       =         -143618.9170 kJ/(mole unit cells)
--------------------------------------------------------------------------------

  Final fractional coordinates of atoms :

--------------------------------------------------------------------------------
   No.  Atomic        x           y          z          Radius
        Label       (Frac)      (Frac)     (Frac)       (Angs) 
--------------------------------------------------------------------------------
     1  Ge    c     0.313820    0.296860    0.309830    0.000000
     2  Ge    c     0.654643    0.720747    0.707524    0.000000
     3  Ge    c     0.347596    0.249737    0.632298    0.000000
     4  Ge    c     0.683308    0.361081    0.392541    0.000000
     5  Ge    c     0.291160    0.653286    0.622965    0.000000
     6  Ge    c     0.880441    0.048485    0.384296    0.000000
     7  Ge    c     0.109628    0.959675    0.690338    0.000000
     8  Ge    c     0.896576    0.005867    0.877886    0.000000
     9  Si    c     0.704020    0.321398    0.705449    0.000000
    10  Si    c     0.288007    0.690002    0.315179    0.000000
    11  Si    c     0.646760    0.754340    0.401258    0.000000
    12  Si    c     0.085831    0.003889    0.189350    0.000000
    13  O1    c     0.268499    0.253404    0.457613    0.000000
    14  O3    c     0.750926    0.350035    0.568859    0.000000
    15  O3    c     0.715732    0.760318    0.564903    0.000000
    16  O3    c     0.231854    0.653048    0.446226    0.000000
    17  O3    c     0.282787    0.511047    0.247760    0.000000
    18  O3    c     0.682157    0.504015    0.759295    0.000000
    19  O1    c     0.505082    0.265413    0.337352    0.000000
    20  O3    c     0.542289    0.217260    0.670030    0.000000
    21  O1    c     0.464550    0.760761    0.676918    0.000000
    22  O2    c     0.462500    0.765891    0.368213    0.000000
    23  O3    c     0.198607    0.166916    0.189033    0.000000
    24  O3    c     0.832209    0.210560    0.816915    0.000000
    25  O1    c     0.759002    0.848578    0.830937    0.000000
    26  O2    c     0.183745    0.829678    0.207369    0.000000
    27  O1    c     0.310984    0.443282    0.685565    0.000000
    28  O3    c     0.681210    0.577796    0.344979    0.000000
    29  O1    c     0.271969    0.085035    0.708467    0.000000
    30  O1    c     0.806227    0.250994    0.335089    0.000000
    31  O3    c     0.723337    0.907561    0.334396    0.000000
    32  O1    c     0.153472    0.753048    0.667865    0.000000
    33  O1    c     0.958410    0.037828    0.557831    0.000000
    34  O3    c     0.023103    0.005071    0.318347    0.000000
    35  O1    c     0.055281    0.960308    0.834481    0.000000
    36  O3    c     0.945095    0.007439    0.053852    0.000000
    37  O1    s     0.277640    0.256367    0.459274    0.000000
    38  O3    s     0.740976    0.348071    0.568446    0.000000
    39  O3    s     0.704833    0.756847    0.560660    0.000000
    40  O3    s     0.241968    0.656662    0.446901    0.000000
    41  O3    s     0.285607    0.512686    0.259070    0.000000
    42  O3    s     0.682135    0.503116    0.750128    0.000000
    43  O1    s     0.503867    0.275104    0.339417    0.000000
    44  O3    s     0.542081    0.229506    0.670357    0.000000
    45  O1    s     0.466224    0.749697    0.675239    0.000000
    46  O2    s     0.463794    0.757045    0.366288    0.000000
    47  O3    s     0.197001    0.161721    0.198627    0.000000
    48  O3    s     0.824489    0.205255    0.810583    0.000000
    49  O1    s     0.761436    0.850648    0.824705    0.000000
    50  O2    s     0.184924    0.832431    0.217076    0.000000
    51  O1    s     0.312164    0.444938    0.676910    0.000000
    52  O3    s     0.678109    0.577109    0.354104    0.000000
    53  O1    s     0.265715    0.088730    0.700992    0.000000
    54  O1    s     0.802362    0.244553    0.342996    0.000000
    55  O3    s     0.727388    0.902554    0.345020    0.000000
    56  O1    s     0.160950    0.760512    0.666026    0.000000
    57  O1    s     0.963938    0.032688    0.554683    0.000000
    58  O3    s     0.016982    0.008671    0.311586    0.000000
    59  O1    s     0.047122    0.963801    0.826928    0.000000
    60  O3    s     0.955992    0.006973    0.054244    0.000000
--------------------------------------------------------------------------------

  Final Cartesian lattice vectors (Angstroms) :

        9.158772   -0.172569    0.051602
       -0.140790    7.784691    0.234146
       -3.267986    0.383904    9.807541


  Final cell parameters and derivatives :

--------------------------------------------------------------------------------
       a            9.160543 Angstrom     dE/de1(xx)     0.007901 eV/strain
       b            7.789484 Angstrom     dE/de2(yy)     0.008043 eV/strain
       c           10.344804 Angstrom     dE/de3(zz)     0.005155 eV/strain
       alpha       85.911579 Degrees      dE/de4(yz)    -0.000448 eV/strain
       beta       108.131773 Degrees      dE/de5(xz)     0.001765 eV/strain
       gamma       92.104849 Degrees      dE/de6(xy)     0.000450 eV/strain
--------------------------------------------------------------------------------

  Primitive cell volume =           699.640542 Angs**3

  Density of cell =      2.556781 g/cm**3

  Non-primitive cell volume =           699.640542 Angs**3


  Final internal derivatives :

--------------------------------------------------------------------------------
   No.  Atomic          a             b             c           Radius
        Label          (eV)          (eV)          (eV)        (eV/Angs)
--------------------------------------------------------------------------------
      1 Ge    c       0.000000      0.000000      0.000000      0.000000
      2 Ge    c      -0.000001      0.000916     -0.000130      0.000000
      3 Ge    c      -0.001155     -0.000441      0.000902      0.000000
      4 Ge    c       0.001808     -0.001723      0.000847      0.000000
      5 Ge    c       0.000940      0.000693      0.000317      0.000000
      6 Ge    c       0.000997      0.000634     -0.000202      0.000000
      7 Ge    c      -0.000480      0.000110     -0.000109      0.000000
      8 Ge    c      -0.000305      0.001635      0.000601      0.000000
      9 Si    c       0.000432      0.000082     -0.000732      0.000000
     10 Si    c      -0.002847     -0.003275      0.004319      0.000000
     11 Si    c       0.000895     -0.001508      0.001302      0.000000
     12 Si    c      -0.003122      0.000821      0.005106      0.000000
     13 O1    c      -0.000136     -0.000286     -0.000039      0.000000
     14 O3    c       0.000226     -0.000014      0.000309      0.000000
     15 O3    c       0.000440      0.000163     -0.000751      0.000000
     16 O3    c      -0.001309      0.000870     -0.002419      0.000000
     17 O3    c       0.000270     -0.001992     -0.004088      0.000000
     18 O3    c       0.000179     -0.001450      0.000335      0.000000
     19 O1    c      -0.003481     -0.001971     -0.000572      0.000000
     20 O3    c       0.000852     -0.000682     -0.000289      0.000000
     21 O1    c      -0.000479      0.001149      0.000003      0.000000
     22 O2    c       0.005797      0.002402      0.002660      0.000000
     23 O3    c       0.003985      0.005402     -0.001786      0.000000
     24 O3    c       0.000720     -0.000159      0.000514      0.000000
     25 O1    c      -0.002743     -0.004170     -0.000811      0.000000
     26 O2    c       0.001965      0.001683     -0.006782      0.000000
     27 O1    c      -0.000276     -0.000977      0.000495      0.000000
     28 O3    c       0.000427      0.005041     -0.000311      0.000000
     29 O1    c       0.001411      0.000967     -0.000963      0.000000
     30 O1    c       0.001015     -0.000472     -0.000846      0.000000
     31 O3    c       0.000678      0.001029     -0.001266      0.000000
     32 O1    c      -0.001754     -0.000114      0.000872      0.000000
     33 O1    c      -0.000418      0.000145      0.000395      0.000000
     34 O3    c       0.000300     -0.000225      0.000809      0.000000
     35 O1    c       0.003831     -0.000600     -0.002696      0.000000
     36 O3    c      -0.003729     -0.000674     -0.007061      0.000000
     37 O1    s       0.000097      0.000554     -0.000575      0.000000
     38 O3    s      -0.000128     -0.000071      0.000878      0.000000
     39 O3    s      -0.000011     -0.000168      0.001073      0.000000
     40 O3    s      -0.004026     -0.002157      0.004707      0.000000
     41 O3    s      -0.000500     -0.003543      0.001349      0.000000
     42 O3    s      -0.000488      0.000662     -0.000023      0.000000
     43 O1    s       0.000478      0.000682      0.000071      0.000000
     44 O3    s      -0.000829      0.000456      0.000519      0.000000
     45 O1    s       0.001509     -0.001135      0.000280      0.000000
     46 O2    s       0.002750      0.000972     -0.002445      0.000000
     47 O3    s       0.000267      0.000298      0.001301      0.000000
     48 O3    s      -0.000510      0.000909      0.000164      0.000000
     49 O1    s       0.000729      0.001698      0.000987      0.000000
     50 O2    s      -0.000932     -0.000117     -0.001290      0.000000
     51 O1    s       0.000563     -0.000452     -0.000003      0.000000
     52 O3    s       0.000981     -0.002003     -0.001182      0.000000
     53 O1    s      -0.000226     -0.000355      0.000344      0.000000
     54 O1    s       0.000334     -0.000503     -0.000247      0.000000
     55 O3    s      -0.000202     -0.000194      0.000057      0.000000
     56 O1    s      -0.000205      0.000509      0.000827      0.000000
     57 O1    s       0.000406     -0.000032     -0.000749      0.000000
     58 O3    s      -0.002894      0.000732      0.002226      0.000000
     59 O1    s      -0.000952      0.000383      0.001553      0.000000
     60 O3    s      -0.000514     -0.000333      0.002426      0.000000
--------------------------------------------------------------------------------
  Maximum abs         0.005797      0.005402      0.007061      0.000000
--------------------------------------------------------------------------------


  Born effective charge tensors : 

-------------------------------------------------------------------------------
  Atom             x           y             z
-------------------------------------------------------------------------------
    1 Ge    x       3.9108      0.2139      0.3134
            y       0.2986      4.1575      0.1895
            z       0.1117      0.2116      3.5184
-------------------------------------------------------------------------------
    2 Ge    x       3.8464      0.1123      0.3937
            y       0.1993      4.1395      0.3194
            z       0.1360      0.3410      3.6933
-------------------------------------------------------------------------------
    3 Ge    x       3.9534      0.3065     -0.1966
            y       0.2377      4.2149     -0.0047
            z       0.1142     -0.1108      3.4512
-------------------------------------------------------------------------------
    4 Ge    x       4.0839     -0.2046     -0.0697
            y      -0.4491      4.1885      0.0994
            z       0.0880      0.2208      3.2916
-------------------------------------------------------------------------------
    5 Ge    x       4.1432     -0.1329     -0.1425
            y      -0.4741      4.1662     -0.0541
            z      -0.0165      0.1612      3.3483
-------------------------------------------------------------------------------
    6 Ge    x       4.3947     -0.2839      0.2392
            y       0.0937      3.9630     -0.0031
            z      -0.4553      0.1179      3.5225
-------------------------------------------------------------------------------
    7 Ge    x       4.5030     -0.2964     -0.2902
            y       0.1374      3.9215      0.1761
            z      -0.2078     -0.0230      3.8234
-------------------------------------------------------------------------------
    8 Ge    x       3.9439     -0.1769      0.2967
            y       0.1554      3.9385      0.0445
            z      -0.0127      0.1087      4.6198
-------------------------------------------------------------------------------
    9 Si    x       3.5834     -0.0375      0.2747
            y      -0.4148      3.9101     -0.2027
            z       0.1713     -0.2523      3.4607
-------------------------------------------------------------------------------
   10 Si    x       3.2397     -0.1060      0.1741
            y      -0.2948      3.7068      0.0030
            z      -0.0562     -0.1165      3.1586
-------------------------------------------------------------------------------
   11 Si    x       3.5240      0.4054     -0.2528
            y       0.2587      3.8778      0.0746
            z       0.0427      0.0190      3.0970
-------------------------------------------------------------------------------
   12 Si    x       3.6202      0.0572     -0.2092
            y       0.1697      3.4997      0.0452
            z       0.6089      0.0630      4.2100
-------------------------------------------------------------------------------
   13 O1    x      -1.5409     -0.1429      0.2380
            y      -0.1548     -1.4613      0.0243
            z       0.2579      0.0724     -2.6455
-------------------------------------------------------------------------------
   14 O3    x      -1.5009      0.0106      0.4220
            y       0.0613     -1.3820      0.1490
            z       0.3902      0.1040     -2.4404
-------------------------------------------------------------------------------
   15 O3    x      -1.4910     -0.1330      0.1847
            y      -0.1404     -1.3603      0.0050
            z       0.2573      0.0016     -2.4857
-------------------------------------------------------------------------------
   16 O3    x      -1.5786     -0.0325      0.4762
            y       0.0399     -1.3591      0.1223
            z       0.4393      0.1275     -2.3888
-------------------------------------------------------------------------------
   17 O3    x      -1.2304      0.1292     -0.0715
            y       0.1735     -3.0536     -0.1939
            z      -0.0104     -0.2185     -1.3393
-------------------------------------------------------------------------------
   18 O3    x      -1.2750      0.2273     -0.0233
            y       0.3272     -3.0227     -0.1304
            z       0.0163     -0.1046     -1.3212
-------------------------------------------------------------------------------
   19 O1    x      -2.9868     -0.2119     -0.4967
            y      -0.1300     -1.5718     -0.0967
            z      -0.5006     -0.1482     -1.3428
-------------------------------------------------------------------------------
   20 O3    x      -2.7231     -0.3126     -0.4074
            y      -0.2685     -1.5269     -0.0637
            z      -0.4364     -0.0398     -1.2554
-------------------------------------------------------------------------------
   21 O1    x      -2.9175     -0.1811     -0.4529
            y      -0.1041     -1.5699     -0.0957
            z      -0.4602     -0.1471     -1.3662
-------------------------------------------------------------------------------
   22 O2    x      -2.2857     -0.1640     -0.3723
            y      -0.0831     -1.2838     -0.0309
            z      -0.3768     -0.0207     -1.1652
-------------------------------------------------------------------------------
   23 O3    x      -1.7630     -0.7606     -0.3212
            y      -0.8228     -2.3766     -0.5142
            z      -0.4183     -0.5296     -1.6686
-------------------------------------------------------------------------------
   24 O3    x      -1.6079      0.6682     -0.5721
            y       0.6079     -2.3241      0.7615
            z      -0.5088      0.8069     -1.9385
-------------------------------------------------------------------------------
   25 O1    x      -1.8107     -0.7314     -0.6024
            y      -0.7729     -2.3860     -0.8211
            z      -0.5581     -0.8619     -2.1177
-------------------------------------------------------------------------------
   26 O2    x      -1.4747      0.5783     -0.2778
            y       0.5642     -1.9770      0.4072
            z      -0.3235      0.4242     -1.4600
-------------------------------------------------------------------------------
   27 O1    x      -1.4400      0.1949      0.1041
            y       0.3156     -3.1384      0.0358
            z       0.0502      0.0166     -1.3300
-------------------------------------------------------------------------------
   28 O3    x      -1.3927      0.2198      0.1232
            y       0.2881     -2.9495     -0.1634
            z       0.0609     -0.1093     -1.2176
-------------------------------------------------------------------------------
   29 O1    x      -2.4647     -0.9892      0.2499
            y      -1.0153     -2.3104      0.2245
            z       0.1707      0.2230     -1.3583
-------------------------------------------------------------------------------
   30 O1    x      -2.2383      0.9744      0.1565
            y       0.9156     -2.6216     -0.0316
            z       0.2345     -0.0919     -1.3194
-------------------------------------------------------------------------------
   31 O3    x      -2.2160     -0.9646      0.1119
            y      -0.9963     -2.2796      0.1395
            z       0.1669      0.1641     -1.2504
-------------------------------------------------------------------------------
   32 O1    x      -2.3075      0.9417      0.3572
            y       0.8695     -2.5125     -0.3384
            z       0.3107     -0.3141     -1.3299
-------------------------------------------------------------------------------
   33 O1    x      -1.8484      0.2145     -0.6036
            y       0.0835     -1.4010      0.1941
            z      -0.3849      0.2270     -2.6271
-------------------------------------------------------------------------------
   34 O3    x      -2.5469      0.2424      0.8949
            y       0.1375     -1.2839     -0.1265
            z       0.8754     -0.1575     -2.0340
-------------------------------------------------------------------------------
   35 O1    x      -2.6534      0.3121      0.8643
            y       0.1912     -1.3189     -0.1318
            z       0.8775     -0.1390     -2.2405
-------------------------------------------------------------------------------
   36 O3    x      -1.4524      0.0533     -0.5125
            y      -0.0043     -1.2132     -0.0121
            z      -0.6542     -0.0259     -3.5522
-------------------------------------------------------------------------------




  Elastic Constant Matrix: (Units=GPa)

-------------------------------------------------------------------------------
  Indices      1         2         3         4         5         6    
-------------------------------------------------------------------------------
       1     30.0277   15.7195    7.7433    0.4393    1.0095   -8.9541
       2     15.7195   42.6269   12.8476    1.4381    6.8977   -8.3010
       3      7.7433   12.8476   29.1211    1.6839   11.4480    1.5218
       4      0.4393    1.4381    1.6839   10.4451    1.7139    3.9690
       5      1.0095    6.8977   11.4480    1.7139   12.5087    1.6750
       6     -8.9541   -8.3010    1.5218    3.9690    1.6750   21.1944
-------------------------------------------------------------------------------


  Elastic Compliance Matrix: (Units=1/GPa)

-------------------------------------------------------------------------------
  Indices      1         2         3         4         5         6    
-------------------------------------------------------------------------------
       1    0.047709 -0.012464 -0.013031 -0.006655  0.013668  0.016376
       2   -0.012464  0.034489 -0.007492 -0.005125 -0.011884  0.010679
       3   -0.013031 -0.007492  0.061001  0.003553 -0.049854 -0.009545
       4   -0.006655 -0.005125  0.003553  0.107229 -0.011332 -0.024259
       5    0.013668 -0.011884 -0.049854 -0.011332  0.133068 -0.003695
       6    0.016376  0.010679 -0.009545 -0.024259 -0.003695  0.063803
-------------------------------------------------------------------------------

  Mechanical properties :

-------------------------------------------------------------------------------
  Convention :                    Reuss         Voigt         Hill
-------------------------------------------------------------------------------
  Bulk  Modulus (GPa)     =      12.94896      19.37738      16.16317
  Shear Modulus (GPa)     =       9.27618      13.19402      11.23510
-------------------------------------------------------------------------------
  Velocity S-wave (km/s)  =       1.90475       2.27165       2.09624
  Velocity P-wave (km/s)  =       3.14674       3.80255       3.49008
-------------------------------------------------------------------------------
  Compressibility (1/GPa) =    0.07722627
-------------------------------------------------------------------------------
  Stress axis :                     x             y             z
-------------------------------------------------------------------------------
  Youngs Moduli (GPa)     =      20.96050      28.99456      16.39310
-------------------------------------------------------------------------------
  Poissons Ratio (x)      =                     0.36140       0.21361
  Poissons Ratio (y)      =       0.26126                     0.12281
  Poissons Ratio (z)      =       0.27313       0.21722
-------------------------------------------------------------------------------


  Piezoelectric Strain Matrix: (Units=C/m**2)

-------------------------------------------------------------------------------
  Indices      1         2         3         4         5         6    
-------------------------------------------------------------------------------
       x     0.28514  -0.31424  -0.15004  -0.29850  -0.15956  -0.03982
       y     0.66487   0.54184  -0.13210  -0.67044   0.18235   0.06897
       z     0.05220  -0.46325   0.55360  -0.00623  -0.53657   0.23705
-------------------------------------------------------------------------------


  Piezoelectric Stress Matrix: (Units=10**-11 C/N)

-------------------------------------------------------------------------------
  Indices      1         2         3         4         5         6    
-------------------------------------------------------------------------------
       x     1.86291  -1.02670  -0.32398  -3.00540  -0.25911   0.80358
       y     3.47714   1.33952  -3.29117  -8.33003   4.08405   3.79255
       z    -0.23595  -1.18352   6.10263   0.36554  -9.35868   0.78822
-------------------------------------------------------------------------------


  Static dielectric constant tensor : 

-------------------------------------------------------------------------------
              x         y         z
-------------------------------------------------------------------------------
       x     5.05639  -0.07880   0.15143
       y    -0.07880   5.93887   0.29668
       z     0.15143   0.29668   4.06410
--------------------------------------------------------------------------------

  High frequency dielectric constant tensor : 

-------------------------------------------------------------------------------
              x         y         z
-------------------------------------------------------------------------------
       x     1.56935  -0.00325   0.00913
       y    -0.00325   1.58144   0.00327
       z     0.00913   0.00327   1.53335
-------------------------------------------------------------------------------

  Static refractive indices : 

-------------------------------------------------------------------------------
    1 =    1.99841      2 =    2.25339      3 =    2.44703
-------------------------------------------------------------------------------

  High frequency refractive indices : 

-------------------------------------------------------------------------------
    1 =    1.23728      2 =    1.25339      3 =    1.25789
-------------------------------------------------------------------------------


  Time to end of optimisation =       3.2158 seconds


  Peak dynamic memory used =       2.76 MB 


  Timing analysis for GULP :

--------------------------------------------------------------------------------
  Task / Subroutine                                          Time (Seconds)
--------------------------------------------------------------------------------
  Calculation of reciprocal space energy and derivatives          0.2072
  Calculation of real space energy and derivatives                2.7455
  Calculation of three-body energy and derivatives                0.0421
  Calculation and manipulation of Hessian matrix                  0.2774
  Calculation of matrix inversion                                 0.0055
  Global summation overhead                                       0.0001
--------------------------------------------------------------------------------
  Total CPU time                                                  3.2158
--------------------------------------------------------------------------------


  Dump file written as c00106.vasp.grs
  CIF file written as c00106.vasp.cif


  Job Finished at 11:43.35 22nd October    2025                               

