********************************************************************************
*                       GENERAL UTILITY LATTICE PROGRAM                        *
*                                 Julian Gale                                  *
*                       Curtin Institute for Computation                       *
*                    School of Molecular and Life Sciences                     *
*                    Curtin University, Western Australia                      *
********************************************************************************
* Version = 6.1.2 * Last modified =   3rd November 2022                        *
********************************************************************************
*  optimise     - perform optimisation run                                     *
*  conp         - constant pressure calculation                                *
*  property     - calculate properties for final geometry                      *
********************************************************************************

  Job Started  at 11:26.46 22nd October    2025                               

  Number of CPUs =     1


  Total number of configurations input =      1

********************************************************************************
*  Input for Configuration =   1 : c00055.vasp                                 *
********************************************************************************

  Formula = Ge9Si3O24                                                   

  Number of irreducible atoms/shells =      60


  Total number atoms/shells =      60

  Dimensionality = 3               :  Bulk   



  Cartesian lattice vectors (Angstroms) :

        9.086940    0.000000    0.000000
        0.000000    7.554810    0.000000
       -3.295144    0.000000    9.944380

  Cell parameters (Angstroms/Degrees):

  a =       9.0869    alpha =  90.0000
  b =       7.5548    beta  = 108.3330
  c =      10.4761    gamma =  90.0000

  Initial cell volume =         682.682735 Angs**3

  Temperature of configuration =   0.00     K 

  Pressure of configuration =         0.000 GPa 

  Fractional coordinates of asymmetric unit :

--------------------------------------------------------------------------------
   No.  Atomic       x           y          z         Charge      Occupancy
        Label      (Frac)      (Frac)     (Frac)        (e)         (Frac)  
--------------------------------------------------------------------------------
      1 Ge    c    0.313820    0.296860    0.309830     4.00000    1.000000    
      2 Ge    c    0.313820 *  0.703140 *  0.309830 *   4.00000    1.000000    
      3 Ge    c    0.331050 *  0.296920 *  0.607380 *   4.00000    1.000000    
      4 Ge    c    0.668950 *  0.296920 *  0.392620 *   4.00000    1.000000    
      5 Ge    c    0.668950 *  0.703080 *  0.392620 *   4.00000    1.000000    
      6 Ge    c    0.331050 *  0.703080 *  0.607380 *   4.00000    1.000000    
      7 Ge    c    0.879680 *  0.000000 *  0.350160 *   4.00000    1.000000    
      8 Ge    c    0.120320 *  0.000000 *  0.649840 *   4.00000    1.000000    
      9 Ge    c    0.906930 *  0.000000 *  0.841770 *   4.00000    1.000000    
     10 Si    c    0.686180 *  0.296860 *  0.690170 *   4.00000    1.000000    
     11 Si    c    0.686180 *  0.703140 *  0.690170 *   4.00000    1.000000    
     12 Si    c    0.093070 *  0.000000 *  0.158230 *   4.00000    1.000000    
     13 O1    c    0.268740 *  0.279030 *  0.446100 *   1.73396    1.000000    
     14 O3    c    0.731260 *  0.279030 *  0.553900 *   1.33043    1.000000    
     15 O3    c    0.731260 *  0.720970 *  0.553900 *   1.33043    1.000000    
     16 O1    c    0.268740 *  0.720970 *  0.446100 *   1.73396    1.000000    
     17 O1    c    0.295480 *  0.500000 *  0.260860 *   1.73396    1.000000    
     18 O2    c    0.704520 *  0.500000 *  0.739140 *   0.87073    1.000000    
     19 O1    c    0.490600 *  0.234690 *  0.337530 *   1.73396    1.000000    
     20 O3    c    0.509400 *  0.234690 *  0.662470 *   1.33043    1.000000    
     21 O3    c    0.509400 *  0.765310 *  0.662470 *   1.33043    1.000000    
     22 O1    c    0.490600 *  0.765310 *  0.337530 *   1.73396    1.000000    
     23 O3    c    0.200440 *  0.174000 *  0.194980 *   1.33043    1.000000    
     24 O3    c    0.799560 *  0.174000 *  0.805020 *   1.33043    1.000000    
     25 O3    c    0.799560 *  0.826000 *  0.805020 *   1.33043    1.000000    
     26 O3    c    0.200440 *  0.826000 *  0.194980 *   1.33043    1.000000    
     27 O1    c    0.317860 *  0.500000 *  0.649090 *   1.73396    1.000000    
     28 O1    c    0.682140 *  0.500000 *  0.350910 *   1.73396    1.000000    
     29 O1    c    0.227920 *  0.173870 *  0.671620 *   1.73396    1.000000    
     30 O1    c    0.772080 *  0.173870 *  0.328380 *   1.73396    1.000000    
     31 O1    c    0.772080 *  0.826130 *  0.328380 *   1.73396    1.000000    
     32 O1    c    0.227920 *  0.826130 *  0.671620 *   1.73396    1.000000    
     33 O1    c    0.000000 *  0.000000 *  0.500000 *   1.73396    1.000000    
     34 O3    c    0.971960 *  0.000000 *  0.241930 *   1.33043    1.000000    
     35 O1    c    0.028040 *  0.000000 *  0.758070 *   1.73396    1.000000    
     36 O3    c    0.000000 *  0.000000 *  0.000000 *   1.33043    1.000000    
     37 O1    s    0.268740 *  0.279030 *  0.446100 *  -3.73396    1.000000    
     38 O3    s    0.731260 *  0.279030 *  0.553900 *  -3.33043    1.000000    
     39 O3    s    0.731260 *  0.720970 *  0.553900 *  -3.33043    1.000000    
     40 O1    s    0.268740 *  0.720970 *  0.446100 *  -3.73396    1.000000    
     41 O1    s    0.295480 *  0.500000 *  0.260860 *  -3.73396    1.000000    
     42 O2    s    0.704520 *  0.500000 *  0.739140 *  -2.87073    1.000000    
     43 O1    s    0.490600 *  0.234690 *  0.337530 *  -3.73396    1.000000    
     44 O3    s    0.509400 *  0.234690 *  0.662470 *  -3.33043    1.000000    
     45 O3    s    0.509400 *  0.765310 *  0.662470 *  -3.33043    1.000000    
     46 O1    s    0.490600 *  0.765310 *  0.337530 *  -3.73396    1.000000    
     47 O3    s    0.200440 *  0.174000 *  0.194980 *  -3.33043    1.000000    
     48 O3    s    0.799560 *  0.174000 *  0.805020 *  -3.33043    1.000000    
     49 O3    s    0.799560 *  0.826000 *  0.805020 *  -3.33043    1.000000    
     50 O3    s    0.200440 *  0.826000 *  0.194980 *  -3.33043    1.000000    
     51 O1    s    0.317860 *  0.500000 *  0.649090 *  -3.73396    1.000000    
     52 O1    s    0.682140 *  0.500000 *  0.350910 *  -3.73396    1.000000    
     53 O1    s    0.227920 *  0.173870 *  0.671620 *  -3.73396    1.000000    
     54 O1    s    0.772080 *  0.173870 *  0.328380 *  -3.73396    1.000000    
     55 O1    s    0.772080 *  0.826130 *  0.328380 *  -3.73396    1.000000    
     56 O1    s    0.227920 *  0.826130 *  0.671620 *  -3.73396    1.000000    
     57 O1    s    0.000000 *  0.000000 *  0.500000 *  -3.73396    1.000000    
     58 O3    s    0.971960 *  0.000000 *  0.241930 *  -3.33043    1.000000    
     59 O1    s    0.028040 *  0.000000 *  0.758070 *  -3.73396    1.000000    
     60 O3    s    0.000000 *  0.000000 *  0.000000 *  -3.33043    1.000000    
--------------------------------------------------------------------------------



********************************************************************************
*  General input information                                                   *
********************************************************************************

  Species output for all configurations : 

--------------------------------------------------------------------------------
  Species    Type    Atomic    Atomic    Charge       Radii (Angs)     Library
                     Number     Mass       (e)     Cova   Ionic  VDW   Symbol
--------------------------------------------------------------------------------
    Ge       Core       32      72.61   4.000000   1.170  0.000  1.750 Ge       
    Si       Core       14      28.09   4.000000   1.200  0.000  2.100 Si       
    O1       Core        8      16.00   1.733957   0.730  0.000  1.360 O1       
    O2       Core        8      16.00   0.870733   0.730  0.000  1.360 O2       
    O3       Core        8      16.00   1.330431   0.730  0.000  1.360 O3       
    O1       Shell       8       0.00  -3.733957   0.730  0.000  0.000 O1       
    O2       Shell       8       0.00  -2.870733   0.730  0.000  0.000 O2       
    O3       Shell       8       0.00  -3.330431   0.730  0.000  0.000 O3       
--------------------------------------------------------------------------------


  Lattice summation method               =    Ewald          (3-D)
                                         =    Parry          (2-D)
                                         =    Saunders et al (1-D)
  Accuracy factor for lattice sums       =   12.000


  Analytic derivatives to be used

  Time limit = Infinity

  Maximum range for interatomic potentials =    100000.000000 Angstroms

  General interatomic potentials :

--------------------------------------------------------------------------------
Atom  Types   Potential      Parameter       Value         Units   Cutoffs(Ang)
  1     2                                                            Min /  Max 
--------------------------------------------------------------------------------
Si   c O1   s Buckingham    Buckingham A     1315.2478    eV        0.000 16.000
                            Buckingham rho  0.31775900    Ang       
                            Buckingham C     10.141118    eV*Ang^6  
--------------------------------------------------------------------------------
Si   c O2   s Buckingham    Buckingham A     1315.2478    eV        0.000 16.000
                            Buckingham rho  0.31775900    Ang       
                            Buckingham C     10.141118    eV*Ang^6  
--------------------------------------------------------------------------------
Si   c O3   s Buckingham    Buckingham A     1315.2478    eV        0.000 16.000
                            Buckingham rho  0.31775900    Ang       
                            Buckingham C     10.141118    eV*Ang^6  
--------------------------------------------------------------------------------
Ge   c O1   s Buckingham    Buckingham A     1497.3996    eV        0.000 16.000
                            Buckingham rho  0.32564600    Ang       
                            Buckingham C     16.808599    eV*Ang^6  
--------------------------------------------------------------------------------
Ge   c O2   s Buckingham    Buckingham A     1497.3996    eV        0.000 16.000
                            Buckingham rho  0.32564600    Ang       
                            Buckingham C     16.808599    eV*Ang^6  
--------------------------------------------------------------------------------
Ge   c O3   s Buckingham    Buckingham A     1497.3996    eV        0.000 16.000
                            Buckingham rho  0.32564600    Ang       
                            Buckingham C     16.808599    eV*Ang^6  
--------------------------------------------------------------------------------
O1   s O1   s Buckingham    Buckingham A     22764.000    eV        0.000 16.000
                            Buckingham rho  0.14900000    Ang       
                            Buckingham C     10.937044    eV*Ang^6  
--------------------------------------------------------------------------------
O1   s O2   s Buckingham    Buckingham A     22764.000    eV        0.000 16.000
                            Buckingham rho  0.14900000    Ang       
                            Buckingham C     10.937044    eV*Ang^6  
--------------------------------------------------------------------------------
O1   s O3   s Buckingham    Buckingham A     22764.000    eV        0.000 16.000
                            Buckingham rho  0.14900000    Ang       
                            Buckingham C     10.937044    eV*Ang^6  
--------------------------------------------------------------------------------
O2   s O2   s Buckingham    Buckingham A     22764.000    eV        0.000 16.000
                            Buckingham rho  0.14900000    Ang       
                            Buckingham C     10.937044    eV*Ang^6  
--------------------------------------------------------------------------------
O2   s O3   s Buckingham    Buckingham A     22764.000    eV        0.000 16.000
                            Buckingham rho  0.14900000    Ang       
                            Buckingham C     10.937044    eV*Ang^6  
--------------------------------------------------------------------------------
O3   s O3   s Buckingham    Buckingham A     22764.000    eV        0.000 16.000
                            Buckingham rho  0.14900000    Ang       
                            Buckingham C     10.937044    eV*Ang^6  
--------------------------------------------------------------------------------
O1   c O1   s Spring (c-s)  Spring k 2       180.31577    eV*Ang^-2 0.000  0.800
                            Spring k 4       0.0000000    eV*Ang^-4 
--------------------------------------------------------------------------------
O2   c O2   s Spring (c-s)  Spring k 2       75.969800    eV*Ang^-2 0.000  0.800
                            Spring k 4       0.0000000    eV*Ang^-4 
--------------------------------------------------------------------------------
O3   c O3   s Spring (c-s)  Spring k 2       128.14270    eV*Ang^-2 0.000  0.800
                            Spring k 4       0.0000000    eV*Ang^-4 
--------------------------------------------------------------------------------

  General Three-body potentials :

--------------------------------------------------------------------------------
  Atoms       Potential      Parameter       Value         Units   Cutoffs(Ang)
  1 / 2 / 3                                                          Min /  Max 
--------------------------------------------------------------------------------
Si    core    Harmonic      Three-body cnst  1.2614000    eV*rad^-2 0.000  1.900
O1    shel                  Three-body angl  109.47000    degrees   0.000  1.900
O1    shel                  Three-body k4    0.0000000    eV*rad^-4 0.000  3.500
                            Three-body k3    0.0000000    eV*rad^-3 
--------------------------------------------------------------------------------
Si    core    Harmonic      Three-body cnst  1.2614000    eV*rad^-2 0.000  1.900
O1    shel                  Three-body angl  109.47000    degrees   0.000  1.900
õ(1   shel                  Three-body k4    0.0000000    eV*rad^-4 0.000  3.500
                            Three-body k3    0.0000000    eV*rad^-3 
--------------------------------------------------------------------------------
Si    core    Harmonic      Three-body cnst  1.2614000    eV*rad^-2 0.000  1.900
õ(1   shel                  Three-body angl  109.47000    degrees   0.000  1.900
õ(1   shel                  Three-body k4    0.0000000    eV*rad^-4 0.000  3.500
                            Three-body k3    0.0000000    eV*rad^-3 
--------------------------------------------------------------------------------
Si    core    Harmonic      Three-body cnst  1.2614000    eV*rad^-2 0.000  1.900
O1    shel                  Three-body angl  109.47000    degrees   0.000  1.900
O2    shel                  Three-body k4    0.0000000    eV*rad^-4 0.000  3.500
                            Three-body k3    0.0000000    eV*rad^-3 
--------------------------------------------------------------------------------
Si    core    Harmonic      Three-body cnst  1.2614000    eV*rad^-2 0.000  1.900
O1    shel                  Three-body angl  109.47000    degrees   0.000  1.900
õ(2   shel                  Three-body k4    0.0000000    eV*rad^-4 0.000  3.500
                            Three-body k3    0.0000000    eV*rad^-3 
--------------------------------------------------------------------------------
Si    core    Harmonic      Three-body cnst  1.2614000    eV*rad^-2 0.000  1.900
O2    shel                  Three-body angl  109.47000    degrees   0.000  1.900
õ(1   shel                  Three-body k4    0.0000000    eV*rad^-4 0.000  3.500
                            Three-body k3    0.0000000    eV*rad^-3 
--------------------------------------------------------------------------------
Si    core    Harmonic      Three-body cnst  1.2614000    eV*rad^-2 0.000  1.900
õ(1   shel                  Three-body angl  109.47000    degrees   0.000  1.900
õ(2   shel                  Three-body k4    0.0000000    eV*rad^-4 0.000  3.500
                            Three-body k3    0.0000000    eV*rad^-3 
--------------------------------------------------------------------------------
Si    core    Harmonic      Three-body cnst  1.2614000    eV*rad^-2 0.000  1.900
O2    shel                  Three-body angl  109.47000    degrees   0.000  1.900
O2    shel                  Three-body k4    0.0000000    eV*rad^-4 0.000  3.500
                            Three-body k3    0.0000000    eV*rad^-3 
--------------------------------------------------------------------------------
Si    core    Harmonic      Three-body cnst  1.2614000    eV*rad^-2 0.000  1.900
O2    shel                  Three-body angl  109.47000    degrees   0.000  1.900
õ(2   shel                  Three-body k4    0.0000000    eV*rad^-4 0.000  3.500
                            Three-body k3    0.0000000    eV*rad^-3 
--------------------------------------------------------------------------------
Si    core    Harmonic      Three-body cnst  1.2614000    eV*rad^-2 0.000  1.900
õ(2   shel                  Three-body angl  109.47000    degrees   0.000  1.900
õ(2   shel                  Three-body k4    0.0000000    eV*rad^-4 0.000  3.500
                            Three-body k3    0.0000000    eV*rad^-3 
--------------------------------------------------------------------------------

********************************************************************************
*  Output for configuration   1 : c00055.vasp                                  *
********************************************************************************


  Components of energy : 

--------------------------------------------------------------------------------
  Interatomic potentials     =         440.38964420 eV    
  Three-body potentials      =           0.00000000 eV    
  Monopole - monopole (real) =       -1236.99964305 eV    
  Monopole - monopole (recip)=        -659.26603192 eV    
  Monopole - monopole (total)=       -1896.26567496 eV    
--------------------------------------------------------------------------------
  Total lattice energy       =       -1455.87603076 eV    
--------------------------------------------------------------------------------
  Total lattice energy       =         -140469.7819 kJ/(mole unit cells)
--------------------------------------------------------------------------------


  Number of variables =      183

  Maximum number of calculations  =          1000
  Maximum Hessian update interval =            10
  Maximum step size               =   0.100000000
  Maximum parameter tolerance     =   0.000010000
  Maximum function  tolerance     =   0.000010000
  Maximum gradient  tolerance     =   0.001000000
  Maximum gradient  component     =   0.010000000

  Symmetry not applied to optimisation

  Cell parameters to be optimised using strains

  Newton-Raphson optimiser to be used

  BFGS hessian update to be used

  Lower half triangular hessian to be used

  Minimiser to switch to RFO
  When gradient norm is less than     0.050000

  Dumpfile to be written after every cycle

  Start of bulk optimisation :

  Cycle:      0 Energy:     -1455.876031  Gnorm:      6.584408  CPU:    0.029
  ** Hessian calculated **
  Cycle:      1 Energy:     -1468.383262  Gnorm:      4.461559  CPU:    0.089
  ** Hessian calculated **
  Cycle:      2 Energy:     -1476.404957  Gnorm:      2.330032  CPU:    0.171
  ** Hessian calculated **
  Cycle:      3 Energy:     -1478.579959  Gnorm:      0.599705  CPU:    0.222
  Cycle:      4 Energy:     -1478.888159  Gnorm:      0.296911  CPU:    0.257
  Cycle:      5 Energy:     -1479.085289  Gnorm:      0.246995  CPU:    0.299
  Cycle:      6 Energy:     -1479.303064  Gnorm:      0.264237  CPU:    0.340
  Cycle:      7 Energy:     -1479.452010  Gnorm:      0.240432  CPU:    0.374
  Cycle:      8 Energy:     -1479.567553  Gnorm:      0.208566  CPU:    0.409
  Cycle:      9 Energy:     -1479.652739  Gnorm:      0.179227  CPU:    0.443
  Cycle:     10 Energy:     -1479.723196  Gnorm:      0.148726  CPU:    0.478
  Cycle:     11 Energy:     -1479.796422  Gnorm:      0.151000  CPU:    0.518
  Cycle:     12 Energy:     -1479.854555  Gnorm:      0.143412  CPU:    0.553
  ** Hessian calculated **
  Cycle:     13 Energy:     -1479.877387  Gnorm:      0.122262  CPU:    0.615
  Cycle:     14 Energy:     -1479.904403  Gnorm:      0.108876  CPU:    0.656
  Cycle:     15 Energy:     -1479.938107  Gnorm:      0.100740  CPU:    0.697
  Cycle:     16 Energy:     -1479.983135  Gnorm:      0.089465  CPU:    0.738
  Cycle:     17 Energy:     -1480.026947  Gnorm:      0.105376  CPU:    0.778
  Cycle:     18 Energy:     -1480.051282  Gnorm:      0.098221  CPU:    0.813
  Cycle:     19 Energy:     -1480.078665  Gnorm:      0.102139  CPU:    0.853
  Cycle:     20 Energy:     -1480.114510  Gnorm:      0.112352  CPU:    0.894
  Cycle:     21 Energy:     -1480.165980  Gnorm:      0.119888  CPU:    0.934
  Cycle:     22 Energy:     -1480.236258  Gnorm:      0.128616  CPU:    0.975
  ** Hessian calculated **
  Cycle:     23 Energy:     -1480.279026  Gnorm:      0.125423  CPU:    1.038
  ** Hessian calculated **
  Cycle:     24 Energy:     -1480.297006  Gnorm:      0.108439  CPU:    1.101
  Cycle:     25 Energy:     -1480.320134  Gnorm:      0.096151  CPU:    1.141
  Cycle:     26 Energy:     -1480.349802  Gnorm:      0.086754  CPU:    1.181
  Cycle:     27 Energy:     -1480.378846  Gnorm:      0.077959  CPU:    1.221
  Cycle:     28 Energy:     -1480.390275  Gnorm:      0.051232  CPU:    1.255
  Cycle:     29 Energy:     -1480.396521  Gnorm:      0.048296  CPU:    1.289
  ** Hessian has required structure
  Cycle:     30 Energy:     -1480.407897  Gnorm:      0.113869  CPU:    1.330
  ** Hessian has required structure
  Cycle:     31 Energy:     -1480.429291  Gnorm:      0.116201  CPU:    1.377
  ** Hessian has required structure
  Cycle:     32 Energy:     -1480.450715  Gnorm:      0.149705  CPU:    1.418
  ** Hessian has required structure
  Cycle:     33 Energy:     -1480.454825  Gnorm:      0.129324  CPU:    1.452
  ** Hessian has wrong structure
  ** Imaginary eigenvectors =   3
  ** Hessian has wrong structure
  ** Imaginary eigenvectors =   3
  Cycle:     34 Energy:     -1480.493714  Gnorm:      0.129451  CPU:    1.607
  ** Hessian has wrong structure
  ** Imaginary eigenvectors =   3
  Cycle:     35 Energy:     -1480.569490  Gnorm:      0.131265  CPU:    1.712
  ** Hessian has wrong structure
  ** Imaginary eigenvectors =   3
  Cycle:     36 Energy:     -1480.656429  Gnorm:      0.134095  CPU:    1.831
  ** Hessian has wrong structure
  ** Imaginary eigenvectors =   1
  ** Hessian has wrong structure
  ** Imaginary eigenvectors =   1
  Cycle:     37 Energy:     -1480.845204  Gnorm:      0.118681  CPU:    1.979
  ** Hessian has wrong structure
  ** Imaginary eigenvectors =   1
  Cycle:     38 Energy:     -1480.954008  Gnorm:      0.125372  CPU:    2.064
  ** Hessian has required structure
  Cycle:     39 Energy:     -1481.091726  Gnorm:      0.069765  CPU:    2.132
  ** Hessian has required structure
  Cycle:     40 Energy:     -1481.134466  Gnorm:      0.036590  CPU:    2.178
  ** Hessian has required structure
  Cycle:     41 Energy:     -1481.148489  Gnorm:      0.029271  CPU:    2.218
  ** Hessian has required structure
  Cycle:     42 Energy:     -1481.155582  Gnorm:      0.017015  CPU:    2.259
  ** Hessian has required structure
  Cycle:     43 Energy:     -1481.158296  Gnorm:      0.014224  CPU:    2.299
  ** Hessian has required structure
  Cycle:     44 Energy:     -1481.159558  Gnorm:      0.006845  CPU:    2.339
  ** Hessian has required structure
  Cycle:     45 Energy:     -1481.160073  Gnorm:      0.005571  CPU:    2.379
  ** Hessian has required structure
  Cycle:     46 Energy:     -1481.160276  Gnorm:      0.002507  CPU:    2.426
  ** Hessian has required structure
  Cycle:     47 Energy:     -1481.160321  Gnorm:      0.001686  CPU:    2.466
  ** Hessian has required structure
  Cycle:     48 Energy:     -1481.160345  Gnorm:      0.000770  CPU:    2.513
  ** Hessian has required structure
  Cycle:     49 Energy:     -1481.160349  Gnorm:      0.000540  CPU:    2.569
  ** Hessian has required structure
  Cycle:     50 Energy:     -1481.160351  Gnorm:      0.000424  CPU:    2.602
  ** Hessian has required structure
  Cycle:     51 Energy:     -1481.160355  Gnorm:      0.000323  CPU:    2.643
  ** Hessian has required structure
  Cycle:     52 Energy:     -1481.160355  Gnorm:      0.000298  CPU:    2.676
  ** Hessian has required structure
  Cycle:     53 Energy:     -1481.160355  Gnorm:      0.000286  CPU:    2.710
  ** Hessian has required structure
  Cycle:     54 Energy:     -1481.160355  Gnorm:      0.000290  CPU:    2.770
  ** Hessian has required structure
  Cycle:     55 Energy:     -1481.160355  Gnorm:      0.000288  CPU:    2.803
  ** Hessian has required structure
  Cycle:     56 Energy:     -1481.160355  Gnorm:      0.000287  CPU:    2.837
  ** Hessian has required structure
  Cycle:     57 Energy:     -1481.160355  Gnorm:      0.000286  CPU:    2.871
  ** Hessian has required structure
  Cycle:     58 Energy:     -1481.160355  Gnorm:      0.000286  CPU:    2.905
  ** Hessian has required structure
  Cycle:     59 Energy:     -1481.160355  Gnorm:      0.000291  CPU:    3.004
  ** Hessian has required structure
  Cycle:     60 Energy:     -1481.160355  Gnorm:      0.000291  CPU:    3.038
  ** Hessian has required structure
  Cycle:     61 Energy:     -1481.160355  Gnorm:      0.000291  CPU:    3.072
  ** Hessian has required structure
  Cycle:     62 Energy:     -1481.160355  Gnorm:      0.000291  CPU:    3.105
  ** Hessian has required structure
  Cycle:     63 Energy:     -1481.160355  Gnorm:      0.000290  CPU:    3.139
  ** Hessian has required structure
  Cycle:     64 Energy:     -1481.160355  Gnorm:      0.000289  CPU:    3.173
  ** Hessian has required structure


  **** Too many failed attempts to optimise ****

  Final energy =   -1481.16035504 eV      
  Final Gnorm  =       0.00028921

  Components of energy : 

--------------------------------------------------------------------------------
  Interatomic potentials     =         392.83815392 eV    
  Three-body potentials      =           0.00000000 eV    
  Monopole - monopole (real) =        -617.41012079 eV    
  Monopole - monopole (recip)=       -1256.58838817 eV    
  Monopole - monopole (total)=       -1873.99850896 eV    
--------------------------------------------------------------------------------
  Total lattice energy       =       -1481.16035504 eV    
--------------------------------------------------------------------------------
  Total lattice energy       =         -142909.3327 kJ/(mole unit cells)
--------------------------------------------------------------------------------

  Final fractional coordinates of atoms :

--------------------------------------------------------------------------------
   No.  Atomic        x           y          z          Radius
        Label       (Frac)      (Frac)     (Frac)       (Angs) 
--------------------------------------------------------------------------------
     1  Ge    c     0.313820    0.296860    0.309830    0.000000
     2  Ge    c     0.260738    0.701008    0.305003    0.000000
     3  Ge    c     0.329253    0.283510    0.631493    0.000000
     4  Ge    c     0.678641    0.371176    0.401257    0.000000
     5  Ge    c     0.622049    0.781780    0.388641    0.000000
     6  Ge    c     0.284081    0.680823    0.632734    0.000000
     7  Ge    c     0.869876    0.066186    0.333616    0.000000
     8  Ge    c     0.085627    0.992442    0.643224    0.000000
     9  Ge    c     0.869088    0.049560    0.835860    0.000000
    10  Si    c     0.683430    0.364458    0.710713    0.000000
    11  Si    c     0.635766    0.760425    0.703600    0.000000
    12  Si    c     0.073293    0.013347    0.143051    0.000000
    13  O1    c     0.256077    0.276810    0.454810    0.000000
    14  O3    c     0.745792    0.373472    0.580260    0.000000
    15  O3    c     0.687707    0.794036    0.567619    0.000000
    16  O1    c     0.220273    0.664543    0.456322    0.000000
    17  O1    c     0.277101    0.502012    0.241702    0.000000
    18  O2    c     0.660531    0.558778    0.752978    0.000000
    19  O1    c     0.505573    0.263748    0.348006    0.000000
    20  O3    c     0.522791    0.260514    0.666647    0.000000
    21  O3    c     0.457954    0.793872    0.670714    0.000000
    22  O1    c     0.430604    0.814313    0.334751    0.000000
    23  O3    c     0.216320    0.142899    0.195745    0.000000
    24  O3    c     0.794310    0.252686    0.832697    0.000000
    25  O3    c     0.733313    0.885126    0.822004    0.000000
    26  O3    c     0.118180    0.819565    0.194213    0.000000
    27  O1    c     0.299854    0.476700    0.697394    0.000000
    28  O1    c     0.656598    0.579501    0.342074    0.000000
    29  O1    c     0.240024    0.130830    0.702779    0.000000
    30  O1    c     0.814316    0.271739    0.350421    0.000000
    31  O1    c     0.713992    0.931912    0.316608    0.000000
    32  O1    c     0.158488    0.791061    0.689553    0.000000
    33  O1    c     0.022737    0.002275    0.465485    0.000000
    34  O3    c     0.927768    0.068651    0.186571    0.000000
    35  O1    c     0.934833    0.039707    0.695673    0.000000
    36  O3    c     0.022871    0.018480    0.977421    0.000000
    37  O1    s     0.265651    0.278772    0.456979    0.000000
    38  O3    s     0.734613    0.372397    0.579422    0.000000
    39  O3    s     0.677943    0.790019    0.566985    0.000000
    40  O1    s     0.228151    0.668536    0.457774    0.000000
    41  O1    s     0.278534    0.501748    0.251260    0.000000
    42  O2    s     0.660470    0.558424    0.743862    0.000000
    43  O1    s     0.504157    0.274163    0.349112    0.000000
    44  O3    s     0.522585    0.272158    0.667998    0.000000
    45  O3    s     0.462260    0.782179    0.671036    0.000000
    46  O1    s     0.432732    0.803458    0.336699    0.000000
    47  O3    s     0.210078    0.142614    0.199850    0.000000
    48  O3    s     0.789365    0.247943    0.821258    0.000000
    49  O3    s     0.734171    0.885513    0.811446    0.000000
    50  O3    s     0.125317    0.828710    0.198202    0.000000
    51  O1    s     0.300771    0.478784    0.687499    0.000000
    52  O1    s     0.655735    0.578527    0.350042    0.000000
    53  O1    s     0.235804    0.132853    0.692724    0.000000
    54  O1    s     0.807910    0.264266    0.353126    0.000000
    55  O1    s     0.718513    0.930146    0.323634    0.000000
    56  O1    s     0.162720    0.797375    0.681869    0.000000
    57  O1    s     0.015532    0.006475    0.468151    0.000000
    58  O3    s     0.937003    0.063208    0.193681    0.000000
    59  O1    s     0.942225    0.036600    0.701958    0.000000
    60  O3    s     0.014710    0.020597    0.981311    0.000000
--------------------------------------------------------------------------------

  Final Cartesian lattice vectors (Angstroms) :

        9.218514   -0.147270    0.131851
       -0.119907    7.771849    0.065822
       -3.222312    0.138909    9.664957


  Final cell parameters and derivatives :

--------------------------------------------------------------------------------
       a            9.220633 Angstrom     dE/de1(xx)     0.010017 eV/strain
       b            7.773053 Angstrom     dE/de2(yy)     0.009409 eV/strain
       c           10.188914 Angstrom     dE/de3(zz)    -0.000170 eV/strain
       alpha       88.479060 Degrees      dE/de4(yz)     0.000599 eV/strain
       beta       107.628105 Degrees      dE/de5(xz)     0.000337 eV/strain
       gamma       91.791968 Degrees      dE/de6(xy)     0.002488 eV/strain
--------------------------------------------------------------------------------

  Primitive cell volume =           695.520907 Angs**3

  Density of cell =      2.678217 g/cm**3

  Non-primitive cell volume =           695.520907 Angs**3


  Final internal derivatives :

--------------------------------------------------------------------------------
   No.  Atomic          a             b             c           Radius
        Label          (eV)          (eV)          (eV)        (eV/Angs)
--------------------------------------------------------------------------------
      1 Ge    c       0.000000      0.000000      0.000000      0.000000
      2 Ge    c       0.002029      0.003266     -0.002905      0.000000
      3 Ge    c       0.000678      0.000253     -0.004582      0.000000
      4 Ge    c       0.000781     -0.002207      0.000070      0.000000
      5 Ge    c      -0.000227      0.000733      0.001464      0.000000
      6 Ge    c      -0.001679      0.002601      0.000106      0.000000
      7 Ge    c      -0.001978      0.001496     -0.001342      0.000000
      8 Ge    c       0.002761     -0.001954     -0.009958      0.000000
      9 Ge    c       0.000837      0.000203      0.003835      0.000000
     10 Si    c       0.005639     -0.000435     -0.002085      0.000000
     11 Si    c       0.003172      0.000859     -0.002588      0.000000
     12 Si    c       0.004951      0.001429     -0.006565      0.000000
     13 O1    c      -0.002711     -0.002177     -0.001575      0.000000
     14 O3    c      -0.002120      0.000553      0.003467      0.000000
     15 O3    c      -0.001655      0.000066      0.000625      0.000000
     16 O1    c      -0.002568      0.000817      0.004992      0.000000
     17 O1    c       0.000192     -0.005539     -0.003556      0.000000
     18 O2    c       0.000223      0.002190      0.000106      0.000000
     19 O1    c       0.001745     -0.000186     -0.001571      0.000000
     20 O3    c      -0.004735     -0.006142      0.001459      0.000000
     21 O3    c       0.001444      0.001935     -0.000377      0.000000
     22 O1    c      -0.001106      0.000686     -0.000304      0.000000
     23 O3    c       0.002964      0.000158     -0.000773      0.000000
     24 O3    c      -0.000391     -0.002402      0.000800      0.000000
     25 O3    c       0.000280      0.000873      0.000921      0.000000
     26 O3    c       0.002413     -0.003470     -0.000406      0.000000
     27 O1    c      -0.003962      0.001586      0.006372      0.000000
     28 O1    c       0.000113      0.002714     -0.001102      0.000000
     29 O1    c       0.002614      0.005789      0.011443      0.000000
     30 O1    c      -0.002002      0.000413      0.001098      0.000000
     31 O1    c      -0.004070     -0.003568      0.001542      0.000000
     32 O1    c       0.003892     -0.005100      0.002201      0.000000
     33 O1    c       0.006132      0.001022      0.010488      0.000000
     34 O3    c      -0.011454      0.000567      0.007759      0.000000
     35 O1    c      -0.022970     -0.001233      0.017139      0.000000
     36 O3    c      -0.004633      0.002039     -0.001541      0.000000
     37 O1    s       0.003021      0.003409     -0.000384      0.000000
     38 O3    s       0.002748     -0.001707     -0.003492      0.000000
     39 O3    s      -0.000142      0.001595     -0.000150      0.000000
     40 O1    s      -0.000889     -0.001313     -0.000216      0.000000
     41 O1    s       0.000894      0.002401      0.002414      0.000000
     42 O2    s       0.000493      0.000562      0.000658      0.000000
     43 O1    s       0.000257     -0.000256      0.002719      0.000000
     44 O3    s       0.002860      0.002221     -0.001940      0.000000
     45 O3    s      -0.001303     -0.000897      0.000241      0.000000
     46 O1    s       0.002201     -0.000165      0.000260      0.000000
     47 O3    s      -0.002385      0.000442      0.002124      0.000000
     48 O3    s       0.003156      0.001094     -0.001160      0.000000
     49 O3    s       0.000406     -0.000148     -0.000155      0.000000
     50 O3    s      -0.001868      0.001240      0.000287      0.000000
     51 O1    s       0.003007      0.001256     -0.004211      0.000000
     52 O1    s      -0.000657     -0.001608      0.001966      0.000000
     53 O1    s       0.000245     -0.001814     -0.002302      0.000000
     54 O1    s       0.000963      0.001353     -0.000836      0.000000
     55 O1    s       0.001968      0.001557     -0.000856      0.000000
     56 O1    s      -0.001908     -0.001794     -0.000871      0.000000
     57 O1    s      -0.002713     -0.002185     -0.008984      0.000000
     58 O3    s       0.004635     -0.000750     -0.004720      0.000000
     59 O1    s       0.011660      0.000673     -0.008313      0.000000
     60 O3    s       0.002424     -0.001238     -0.003465      0.000000
--------------------------------------------------------------------------------
  Maximum abs         0.022970      0.006142      0.017139      0.000000
--------------------------------------------------------------------------------


  Born effective charge tensors : 

-------------------------------------------------------------------------------
  Atom             x           y             z
-------------------------------------------------------------------------------
    1 Ge    x       3.9020      0.1639      0.3477
            y       0.1755      4.2047      0.1005
            z       0.0815      0.2119      3.6598
-------------------------------------------------------------------------------
    2 Ge    x       3.8068      0.0288      0.2227
            y      -0.4081      4.2207     -0.1721
            z       0.1521     -0.1997      3.6572
-------------------------------------------------------------------------------
    3 Ge    x       4.0207      0.3420     -0.1844
            y       0.3320      4.1506      0.0999
            z       0.0900     -0.0139      3.4161
-------------------------------------------------------------------------------
    4 Ge    x       4.1485     -0.1326     -0.1344
            y      -0.4555      4.1974     -0.0117
            z       0.0312      0.1628      3.3858
-------------------------------------------------------------------------------
    5 Ge    x       4.1160      0.2728     -0.1916
            y       0.2089      4.2061     -0.0693
            z       0.1076     -0.1144      3.4395
-------------------------------------------------------------------------------
    6 Ge    x       4.0709     -0.1789     -0.1102
            y      -0.5051      4.1437     -0.0702
            z       0.0356      0.1361      3.3898
-------------------------------------------------------------------------------
    7 Ge    x       4.5075     -0.2448     -0.2232
            y       0.1006      3.9160      0.1135
            z      -0.1593     -0.0772      3.7123
-------------------------------------------------------------------------------
    8 Ge    x       4.5696     -0.3047      0.2684
            y       0.0730      3.9088      0.0140
            z      -0.4242      0.0935      3.5728
-------------------------------------------------------------------------------
    9 Ge    x       3.8287     -0.1420     -0.2193
            y       0.0767      3.9042      0.0604
            z       0.6422     -0.1484      4.3511
-------------------------------------------------------------------------------
   10 Si    x       3.4867      0.0068      0.3007
            y      -0.3025      3.6837     -0.3544
            z       0.1014     -0.2973      3.3392
-------------------------------------------------------------------------------
   11 Si    x       3.6106      0.2027      0.3129
            y       0.2674      3.6731      0.3088
            z       0.0845      0.2946      3.3429
-------------------------------------------------------------------------------
   12 Si    x       3.6976     -0.2364      0.3222
            y       0.2019      3.6598     -0.0231
            z       0.0274     -0.0217      4.4000
-------------------------------------------------------------------------------
   13 O1    x      -1.6053     -0.1155      0.2650
            y      -0.1210     -1.4255     -0.0447
            z       0.3433     -0.0168     -2.6548
-------------------------------------------------------------------------------
   14 O3    x      -1.5671      0.0397      0.4872
            y       0.1138     -1.3664      0.0065
            z       0.4289      0.0180     -2.3804
-------------------------------------------------------------------------------
   15 O3    x      -1.5219     -0.1385      0.4167
            y      -0.1534     -1.3919      0.0706
            z       0.3924      0.0494     -2.4431
-------------------------------------------------------------------------------
   16 O1    x      -1.5353     -0.0047      0.3036
            y       0.0624     -1.4515      0.1113
            z       0.3440      0.0584     -2.6969
-------------------------------------------------------------------------------
   17 O1    x      -1.3259      0.1920     -0.0572
            y       0.3215     -3.2104      0.0112
            z      -0.0129     -0.0069     -1.4427
-------------------------------------------------------------------------------
   18 O2    x      -1.1708      0.1334     -0.0604
            y       0.1908     -2.4638      0.0283
            z      -0.0205      0.0021     -1.1582
-------------------------------------------------------------------------------
   19 O1    x      -2.9444     -0.2385     -0.5311
            y      -0.1931     -1.5710     -0.1132
            z      -0.5377     -0.1518     -1.4005
-------------------------------------------------------------------------------
   20 O3    x      -2.6945     -0.3547     -0.4434
            y      -0.2683     -1.5522     -0.0853
            z      -0.4611     -0.0745     -1.2571
-------------------------------------------------------------------------------
   21 O3    x      -2.8294     -0.1409     -0.4213
            y      -0.0375     -1.4812     -0.0225
            z      -0.4115     -0.0864     -1.2224
-------------------------------------------------------------------------------
   22 O1    x      -2.9157     -0.2759     -0.5042
            y      -0.1589     -1.5661     -0.0075
            z      -0.5566     -0.0166     -1.3913
-------------------------------------------------------------------------------
   23 O3    x      -1.8388     -0.7059     -0.5688
            y      -0.7435     -2.1754     -0.6670
            z      -0.5235     -0.7041     -1.8360
-------------------------------------------------------------------------------
   24 O3    x      -1.5773      0.6968     -0.4218
            y       0.6478     -2.3911      0.6127
            z      -0.4750      0.6960     -1.8248
-------------------------------------------------------------------------------
   25 O3    x      -1.7004     -0.6954     -0.4251
            y      -0.7380     -2.2597     -0.6826
            z      -0.5081     -0.7042     -1.8440
-------------------------------------------------------------------------------
   26 O3    x      -1.5499      0.6110     -0.4466
            y       0.5403     -2.4875      0.6908
            z      -0.3977      0.7078     -1.7718
-------------------------------------------------------------------------------
   27 O1    x      -1.4464      0.1613      0.1001
            y       0.2532     -3.0819      0.0061
            z       0.0464      0.0173     -1.3276
-------------------------------------------------------------------------------
   28 O1    x      -1.4161      0.2018      0.0889
            y       0.3112     -3.2132      0.0764
            z       0.0353      0.0340     -1.3354
-------------------------------------------------------------------------------
   29 O1    x      -2.3753     -0.9546      0.0361
            y      -1.0252     -2.3086      0.0551
            z       0.0950      0.0826     -1.3707
-------------------------------------------------------------------------------
   30 O1    x      -2.3680      0.9815      0.3658
            y       0.9245     -2.5057     -0.3010
            z       0.3230     -0.2852     -1.3377
-------------------------------------------------------------------------------
   31 O1    x      -2.5504     -1.0260      0.2972
            y      -1.0554     -2.2690      0.2234
            z       0.2354      0.2321     -1.3849
-------------------------------------------------------------------------------
   32 O1    x      -2.2591      0.9266      0.1180
            y       0.8987     -2.5054      0.0048
            z       0.1831     -0.0319     -1.3107
-------------------------------------------------------------------------------
   33 O1    x      -1.8247      0.1941     -0.5315
            y       0.0832     -1.3685      0.2133
            z      -0.3433      0.2405     -2.6686
-------------------------------------------------------------------------------
   34 O3    x      -2.5291      0.3153      0.7494
            y       0.2031     -1.2641     -0.1219
            z       0.7636     -0.1133     -2.0283
-------------------------------------------------------------------------------
   35 O1    x      -2.7961      0.3136      0.8584
            y       0.1746     -1.3490     -0.1253
            z       0.8389     -0.1419     -2.0407
-------------------------------------------------------------------------------
   36 O3    x      -1.4237      0.1059     -0.3862
            y       0.0046     -1.2095      0.0644
            z      -0.5516      0.1692     -3.5379
-------------------------------------------------------------------------------




  Elastic Constant Matrix: (Units=GPa)

-------------------------------------------------------------------------------
  Indices      1         2         3         4         5         6    
-------------------------------------------------------------------------------
       1     29.8820   12.0707    4.0852   -0.5235    0.3726   -7.6810
       2     12.0707   36.2080    9.8053    0.7388    4.6019   -7.3539
       3      4.0852    9.8053   24.5376   -1.5762   11.9181    0.3076
       4     -0.5235    0.7388   -1.5762    8.5563   -0.0467    1.9345
       5      0.3726    4.6019   11.9181   -0.0467   12.2576   -0.1765
       6     -7.6810   -7.3539    0.3076    1.9345   -0.1765   19.3841
-------------------------------------------------------------------------------


  Elastic Compliance Matrix: (Units=1/GPa)

-------------------------------------------------------------------------------
  Indices      1         2         3         4         5         6    
-------------------------------------------------------------------------------
       1    0.042032 -0.010482 -0.008362 -0.000944  0.010972  0.013006
       2   -0.010482  0.037307 -0.013810 -0.008919 -0.000134  0.011108
       3   -0.008362 -0.013810  0.088062  0.019316 -0.080292 -0.012609
       4   -0.000944 -0.008919  0.019316  0.124828 -0.015169 -0.016660
       5    0.010972 -0.000134 -0.080292 -0.015169  0.159432  0.008536
       6    0.013006  0.011108 -0.012609 -0.016660  0.008536  0.062897
-------------------------------------------------------------------------------

  Mechanical properties :

-------------------------------------------------------------------------------
  Convention :                    Reuss         Voigt         Hill
-------------------------------------------------------------------------------
  Bulk  Modulus (GPa)     =       9.79490      15.83891      12.81691
  Shear Modulus (GPa)     =       8.14469      12.35067      10.24768
-------------------------------------------------------------------------------
  Velocity S-wave (km/s)  =       1.74387       2.14745       1.95609
  Velocity P-wave (km/s)  =       2.77705       3.47314       3.14442
-------------------------------------------------------------------------------
  Compressibility (1/GPa) =    0.10209391
-------------------------------------------------------------------------------
  Stress axis :                     x             y             z
-------------------------------------------------------------------------------
  Youngs Moduli (GPa)     =      23.79149      26.80427      11.35563
-------------------------------------------------------------------------------
  Poissons Ratio (x)      =                     0.28095       0.09496
  Poissons Ratio (y)      =       0.24937                     0.15682
  Poissons Ratio (z)      =       0.19895       0.37017
-------------------------------------------------------------------------------


  Piezoelectric Strain Matrix: (Units=C/m**2)

-------------------------------------------------------------------------------
  Indices      1         2         3         4         5         6    
-------------------------------------------------------------------------------
       x     0.05372  -0.81803   0.36693   0.33230   0.03130   0.34954
       y     0.61425  -0.57235  -0.99563   1.00932  -0.39270   0.84536
       z    -0.55004  -0.43872  -0.25648  -0.07056   0.85221   0.07263
-------------------------------------------------------------------------------


  Piezoelectric Stress Matrix: (Units=10**-11 C/N)

-------------------------------------------------------------------------------
  Indices      1         2         3         4         5         6    
-------------------------------------------------------------------------------
       x     1.23393  -3.52343   4.26590   4.95156  -2.58289   0.37009
       y     4.58753  -1.36001  -4.45412  10.31572   1.60537   4.71877
       z    -0.60145  -0.57388  -8.26324  -2.34669  15.21779   0.42251
-------------------------------------------------------------------------------


  Static dielectric constant tensor : 

-------------------------------------------------------------------------------
              x         y         z
-------------------------------------------------------------------------------
       x     5.18635  -0.07787   0.18660
       y    -0.07787   6.37439   0.06451
       z     0.18660   0.06451   4.08596
--------------------------------------------------------------------------------

  High frequency dielectric constant tensor : 

-------------------------------------------------------------------------------
              x         y         z
-------------------------------------------------------------------------------
       x     1.56469  -0.00289   0.01013
       y    -0.00289   1.57298   0.00036
       z     0.01013   0.00036   1.53035
-------------------------------------------------------------------------------

  Static refractive indices : 

-------------------------------------------------------------------------------
    1 =    2.01312      2 =    2.28328      3 =    2.52600
-------------------------------------------------------------------------------

  High frequency refractive indices : 

-------------------------------------------------------------------------------
    1 =    1.23595      2 =    1.25154      3 =    1.25463
-------------------------------------------------------------------------------


  Time to end of optimisation =       3.2512 seconds


  Peak dynamic memory used =       2.76 MB 


  Timing analysis for GULP :

--------------------------------------------------------------------------------
  Task / Subroutine                                          Time (Seconds)
--------------------------------------------------------------------------------
  Calculation of reciprocal space energy and derivatives          0.2146
  Calculation of real space energy and derivatives                2.7314
  Calculation of three-body energy and derivatives                0.0347
  Calculation and manipulation of Hessian matrix                  0.4876
  Calculation of matrix inversion                                 0.0042
--------------------------------------------------------------------------------
  Total CPU time                                                  3.2513
--------------------------------------------------------------------------------


  Dump file written as c00055.vasp.grs
  CIF file written as c00055.vasp.cif


  Job Finished at 11:26.49 22nd October    2025                               

