********************************************************************************
*                       GENERAL UTILITY LATTICE PROGRAM                        *
*                                 Julian Gale                                  *
*                       Curtin Institute for Computation                       *
*                    School of Molecular and Life Sciences                     *
*                    Curtin University, Western Australia                      *
********************************************************************************
* Version = 6.1.2 * Last modified =   3rd November 2022                        *
********************************************************************************
*  optimise     - perform optimisation run                                     *
*  conp         - constant pressure calculation                                *
*  property     - calculate properties for final geometry                      *
********************************************************************************

  Job Started  at 11:23.42 22nd October    2025                               

  Number of CPUs =     1


  Total number of configurations input =      1

********************************************************************************
*  Input for Configuration =   1 : c00002.vasp                                 *
********************************************************************************

  Formula = Ge9Si3O24                                                   

  Number of irreducible atoms/shells =      60


  Total number atoms/shells =      60

  Dimensionality = 3               :  Bulk   



  Cartesian lattice vectors (Angstroms) :

        9.086940    0.000000    0.000000
        0.000000    7.554810    0.000000
       -3.295144    0.000000    9.944380

  Cell parameters (Angstroms/Degrees):

  a =       9.0869    alpha =  90.0000
  b =       7.5548    beta  = 108.3330
  c =      10.4761    gamma =  90.0000

  Initial cell volume =         682.682735 Angs**3

  Temperature of configuration =   0.00     K 

  Pressure of configuration =         0.000 GPa 

  Fractional coordinates of asymmetric unit :

--------------------------------------------------------------------------------
   No.  Atomic       x           y          z         Charge      Occupancy
        Label      (Frac)      (Frac)     (Frac)        (e)         (Frac)  
--------------------------------------------------------------------------------
      1 Ge    c    0.313820    0.296860    0.309830     4.00000    1.000000    
      2 Ge    c    0.686180 *  0.296860 *  0.690170 *   4.00000    1.000000    
      3 Ge    c    0.686180 *  0.703140 *  0.690170 *   4.00000    1.000000    
      4 Ge    c    0.313820 *  0.703140 *  0.309830 *   4.00000    1.000000    
      5 Ge    c    0.331050 *  0.296920 *  0.607380 *   4.00000    1.000000    
      6 Ge    c    0.668950 *  0.296920 *  0.392620 *   4.00000    1.000000    
      7 Ge    c    0.668950 *  0.703080 *  0.392620 *   4.00000    1.000000    
      8 Ge    c    0.331050 *  0.703080 *  0.607380 *   4.00000    1.000000    
      9 Ge    c    0.093070 *  0.000000 *  0.158230 *   4.00000    1.000000    
     10 Si    c    0.879680 *  0.000000 *  0.350160 *   4.00000    1.000000    
     11 Si    c    0.120320 *  0.000000 *  0.649840 *   4.00000    1.000000    
     12 Si    c    0.906930 *  0.000000 *  0.841770 *   4.00000    1.000000    
     13 O1    c    0.268740 *  0.279030 *  0.446100 *   1.73396    1.000000    
     14 O1    c    0.731260 *  0.279030 *  0.553900 *   1.73396    1.000000    
     15 O1    c    0.731260 *  0.720970 *  0.553900 *   1.73396    1.000000    
     16 O1    c    0.268740 *  0.720970 *  0.446100 *   1.73396    1.000000    
     17 O1    c    0.295480 *  0.500000 *  0.260860 *   1.73396    1.000000    
     18 O1    c    0.704520 *  0.500000 *  0.739140 *   1.73396    1.000000    
     19 O1    c    0.490600 *  0.234690 *  0.337530 *   1.73396    1.000000    
     20 O1    c    0.509400 *  0.234690 *  0.662470 *   1.73396    1.000000    
     21 O1    c    0.509400 *  0.765310 *  0.662470 *   1.73396    1.000000    
     22 O1    c    0.490600 *  0.765310 *  0.337530 *   1.73396    1.000000    
     23 O1    c    0.200440 *  0.174000 *  0.194980 *   1.73396    1.000000    
     24 O3    c    0.799560 *  0.174000 *  0.805020 *   1.33043    1.000000    
     25 O3    c    0.799560 *  0.826000 *  0.805020 *   1.33043    1.000000    
     26 O1    c    0.200440 *  0.826000 *  0.194980 *   1.73396    1.000000    
     27 O1    c    0.317860 *  0.500000 *  0.649090 *   1.73396    1.000000    
     28 O1    c    0.682140 *  0.500000 *  0.350910 *   1.73396    1.000000    
     29 O3    c    0.227920 *  0.173870 *  0.671620 *   1.33043    1.000000    
     30 O3    c    0.772080 *  0.173870 *  0.328380 *   1.33043    1.000000    
     31 O3    c    0.772080 *  0.826130 *  0.328380 *   1.33043    1.000000    
     32 O3    c    0.227920 *  0.826130 *  0.671620 *   1.33043    1.000000    
     33 O2    c    0.000000 *  0.000000 *  0.500000 *   0.87073    1.000000    
     34 O3    c    0.971960 *  0.000000 *  0.241930 *   1.33043    1.000000    
     35 O2    c    0.028040 *  0.000000 *  0.758070 *   0.87073    1.000000    
     36 O3    c    0.000000 *  0.000000 *  0.000000 *   1.33043    1.000000    
     37 O1    s    0.268740 *  0.279030 *  0.446100 *  -3.73396    1.000000    
     38 O1    s    0.731260 *  0.279030 *  0.553900 *  -3.73396    1.000000    
     39 O1    s    0.731260 *  0.720970 *  0.553900 *  -3.73396    1.000000    
     40 O1    s    0.268740 *  0.720970 *  0.446100 *  -3.73396    1.000000    
     41 O1    s    0.295480 *  0.500000 *  0.260860 *  -3.73396    1.000000    
     42 O1    s    0.704520 *  0.500000 *  0.739140 *  -3.73396    1.000000    
     43 O1    s    0.490600 *  0.234690 *  0.337530 *  -3.73396    1.000000    
     44 O1    s    0.509400 *  0.234690 *  0.662470 *  -3.73396    1.000000    
     45 O1    s    0.509400 *  0.765310 *  0.662470 *  -3.73396    1.000000    
     46 O1    s    0.490600 *  0.765310 *  0.337530 *  -3.73396    1.000000    
     47 O1    s    0.200440 *  0.174000 *  0.194980 *  -3.73396    1.000000    
     48 O3    s    0.799560 *  0.174000 *  0.805020 *  -3.33043    1.000000    
     49 O3    s    0.799560 *  0.826000 *  0.805020 *  -3.33043    1.000000    
     50 O1    s    0.200440 *  0.826000 *  0.194980 *  -3.73396    1.000000    
     51 O1    s    0.317860 *  0.500000 *  0.649090 *  -3.73396    1.000000    
     52 O1    s    0.682140 *  0.500000 *  0.350910 *  -3.73396    1.000000    
     53 O3    s    0.227920 *  0.173870 *  0.671620 *  -3.33043    1.000000    
     54 O3    s    0.772080 *  0.173870 *  0.328380 *  -3.33043    1.000000    
     55 O3    s    0.772080 *  0.826130 *  0.328380 *  -3.33043    1.000000    
     56 O3    s    0.227920 *  0.826130 *  0.671620 *  -3.33043    1.000000    
     57 O2    s    0.000000 *  0.000000 *  0.500000 *  -2.87073    1.000000    
     58 O3    s    0.971960 *  0.000000 *  0.241930 *  -3.33043    1.000000    
     59 O2    s    0.028040 *  0.000000 *  0.758070 *  -2.87073    1.000000    
     60 O3    s    0.000000 *  0.000000 *  0.000000 *  -3.33043    1.000000    
--------------------------------------------------------------------------------



********************************************************************************
*  General input information                                                   *
********************************************************************************

  Species output for all configurations : 

--------------------------------------------------------------------------------
  Species    Type    Atomic    Atomic    Charge       Radii (Angs)     Library
                     Number     Mass       (e)     Cova   Ionic  VDW   Symbol
--------------------------------------------------------------------------------
    Ge       Core       32      72.61   4.000000   1.170  0.000  1.750 Ge       
    Si       Core       14      28.09   4.000000   1.200  0.000  2.100 Si       
    O1       Core        8      16.00   1.733957   0.730  0.000  1.360 O1       
    O2       Core        8      16.00   0.870733   0.730  0.000  1.360 O2       
    O3       Core        8      16.00   1.330431   0.730  0.000  1.360 O3       
    O1       Shell       8       0.00  -3.733957   0.730  0.000  0.000 O1       
    O2       Shell       8       0.00  -2.870733   0.730  0.000  0.000 O2       
    O3       Shell       8       0.00  -3.330431   0.730  0.000  0.000 O3       
--------------------------------------------------------------------------------


  Lattice summation method               =    Ewald          (3-D)
                                         =    Parry          (2-D)
                                         =    Saunders et al (1-D)
  Accuracy factor for lattice sums       =   12.000


  Analytic derivatives to be used

  Time limit = Infinity

  Maximum range for interatomic potentials =    100000.000000 Angstroms

  General interatomic potentials :

--------------------------------------------------------------------------------
Atom  Types   Potential      Parameter       Value         Units   Cutoffs(Ang)
  1     2                                                            Min /  Max 
--------------------------------------------------------------------------------
Si   c O1   s Buckingham    Buckingham A     1315.2478    eV        0.000 16.000
                            Buckingham rho  0.31775900    Ang       
                            Buckingham C     10.141118    eV*Ang^6  
--------------------------------------------------------------------------------
Si   c O2   s Buckingham    Buckingham A     1315.2478    eV        0.000 16.000
                            Buckingham rho  0.31775900    Ang       
                            Buckingham C     10.141118    eV*Ang^6  
--------------------------------------------------------------------------------
Si   c O3   s Buckingham    Buckingham A     1315.2478    eV        0.000 16.000
                            Buckingham rho  0.31775900    Ang       
                            Buckingham C     10.141118    eV*Ang^6  
--------------------------------------------------------------------------------
Ge   c O1   s Buckingham    Buckingham A     1497.3996    eV        0.000 16.000
                            Buckingham rho  0.32564600    Ang       
                            Buckingham C     16.808599    eV*Ang^6  
--------------------------------------------------------------------------------
Ge   c O2   s Buckingham    Buckingham A     1497.3996    eV        0.000 16.000
                            Buckingham rho  0.32564600    Ang       
                            Buckingham C     16.808599    eV*Ang^6  
--------------------------------------------------------------------------------
Ge   c O3   s Buckingham    Buckingham A     1497.3996    eV        0.000 16.000
                            Buckingham rho  0.32564600    Ang       
                            Buckingham C     16.808599    eV*Ang^6  
--------------------------------------------------------------------------------
O1   s O1   s Buckingham    Buckingham A     22764.000    eV        0.000 16.000
                            Buckingham rho  0.14900000    Ang       
                            Buckingham C     10.937044    eV*Ang^6  
--------------------------------------------------------------------------------
O1   s O2   s Buckingham    Buckingham A     22764.000    eV        0.000 16.000
                            Buckingham rho  0.14900000    Ang       
                            Buckingham C     10.937044    eV*Ang^6  
--------------------------------------------------------------------------------
O1   s O3   s Buckingham    Buckingham A     22764.000    eV        0.000 16.000
                            Buckingham rho  0.14900000    Ang       
                            Buckingham C     10.937044    eV*Ang^6  
--------------------------------------------------------------------------------
O2   s O2   s Buckingham    Buckingham A     22764.000    eV        0.000 16.000
                            Buckingham rho  0.14900000    Ang       
                            Buckingham C     10.937044    eV*Ang^6  
--------------------------------------------------------------------------------
O2   s O3   s Buckingham    Buckingham A     22764.000    eV        0.000 16.000
                            Buckingham rho  0.14900000    Ang       
                            Buckingham C     10.937044    eV*Ang^6  
--------------------------------------------------------------------------------
O3   s O3   s Buckingham    Buckingham A     22764.000    eV        0.000 16.000
                            Buckingham rho  0.14900000    Ang       
                            Buckingham C     10.937044    eV*Ang^6  
--------------------------------------------------------------------------------
O1   c O1   s Spring (c-s)  Spring k 2       180.31577    eV*Ang^-2 0.000  0.800
                            Spring k 4       0.0000000    eV*Ang^-4 
--------------------------------------------------------------------------------
O2   c O2   s Spring (c-s)  Spring k 2       75.969800    eV*Ang^-2 0.000  0.800
                            Spring k 4       0.0000000    eV*Ang^-4 
--------------------------------------------------------------------------------
O3   c O3   s Spring (c-s)  Spring k 2       128.14270    eV*Ang^-2 0.000  0.800
                            Spring k 4       0.0000000    eV*Ang^-4 
--------------------------------------------------------------------------------

  General Three-body potentials :

--------------------------------------------------------------------------------
  Atoms       Potential      Parameter       Value         Units   Cutoffs(Ang)
  1 / 2 / 3                                                          Min /  Max 
--------------------------------------------------------------------------------
Si    core    Harmonic      Three-body cnst  1.2614000    eV*rad^-2 0.000  1.900
O1    shel                  Three-body angl  109.47000    degrees   0.000  1.900
O1    shel                  Three-body k4    0.0000000    eV*rad^-4 0.000  3.500
                            Three-body k3    0.0000000    eV*rad^-3 
--------------------------------------------------------------------------------
Si    core    Harmonic      Three-body cnst  1.2614000    eV*rad^-2 0.000  1.900
O1    shel                  Three-body angl  109.47000    degrees   0.000  1.900
õ(1   shel                  Three-body k4    0.0000000    eV*rad^-4 0.000  3.500
                            Three-body k3    0.0000000    eV*rad^-3 
--------------------------------------------------------------------------------
Si    core    Harmonic      Three-body cnst  1.2614000    eV*rad^-2 0.000  1.900
õ(1   shel                  Three-body angl  109.47000    degrees   0.000  1.900
õ(1   shel                  Three-body k4    0.0000000    eV*rad^-4 0.000  3.500
                            Three-body k3    0.0000000    eV*rad^-3 
--------------------------------------------------------------------------------
Si    core    Harmonic      Three-body cnst  1.2614000    eV*rad^-2 0.000  1.900
O1    shel                  Three-body angl  109.47000    degrees   0.000  1.900
O2    shel                  Three-body k4    0.0000000    eV*rad^-4 0.000  3.500
                            Three-body k3    0.0000000    eV*rad^-3 
--------------------------------------------------------------------------------
Si    core    Harmonic      Three-body cnst  1.2614000    eV*rad^-2 0.000  1.900
O1    shel                  Three-body angl  109.47000    degrees   0.000  1.900
õ(2   shel                  Three-body k4    0.0000000    eV*rad^-4 0.000  3.500
                            Three-body k3    0.0000000    eV*rad^-3 
--------------------------------------------------------------------------------
Si    core    Harmonic      Three-body cnst  1.2614000    eV*rad^-2 0.000  1.900
O2    shel                  Three-body angl  109.47000    degrees   0.000  1.900
õ(1   shel                  Three-body k4    0.0000000    eV*rad^-4 0.000  3.500
                            Three-body k3    0.0000000    eV*rad^-3 
--------------------------------------------------------------------------------
Si    core    Harmonic      Three-body cnst  1.2614000    eV*rad^-2 0.000  1.900
õ(1   shel                  Three-body angl  109.47000    degrees   0.000  1.900
õ(2   shel                  Three-body k4    0.0000000    eV*rad^-4 0.000  3.500
                            Three-body k3    0.0000000    eV*rad^-3 
--------------------------------------------------------------------------------
Si    core    Harmonic      Three-body cnst  1.2614000    eV*rad^-2 0.000  1.900
O2    shel                  Three-body angl  109.47000    degrees   0.000  1.900
O2    shel                  Three-body k4    0.0000000    eV*rad^-4 0.000  3.500
                            Three-body k3    0.0000000    eV*rad^-3 
--------------------------------------------------------------------------------
Si    core    Harmonic      Three-body cnst  1.2614000    eV*rad^-2 0.000  1.900
O2    shel                  Three-body angl  109.47000    degrees   0.000  1.900
õ(2   shel                  Three-body k4    0.0000000    eV*rad^-4 0.000  3.500
                            Three-body k3    0.0000000    eV*rad^-3 
--------------------------------------------------------------------------------
Si    core    Harmonic      Three-body cnst  1.2614000    eV*rad^-2 0.000  1.900
õ(2   shel                  Three-body angl  109.47000    degrees   0.000  1.900
õ(2   shel                  Three-body k4    0.0000000    eV*rad^-4 0.000  3.500
                            Three-body k3    0.0000000    eV*rad^-3 
--------------------------------------------------------------------------------

********************************************************************************
*  Output for configuration   1 : c00002.vasp                                  *
********************************************************************************


  Components of energy : 

--------------------------------------------------------------------------------
  Interatomic potentials     =         440.35392789 eV    
  Three-body potentials      =           0.00007244 eV    
  Monopole - monopole (real) =       -1236.99964305 eV    
  Monopole - monopole (recip)=        -659.26603192 eV    
  Monopole - monopole (total)=       -1896.26567496 eV    
--------------------------------------------------------------------------------
  Total lattice energy       =       -1455.91167464 eV    
--------------------------------------------------------------------------------
  Total lattice energy       =         -140473.2210 kJ/(mole unit cells)
--------------------------------------------------------------------------------


  Number of variables =      183

  Maximum number of calculations  =          1000
  Maximum Hessian update interval =            10
  Maximum step size               =   0.100000000
  Maximum parameter tolerance     =   0.000010000
  Maximum function  tolerance     =   0.000010000
  Maximum gradient  tolerance     =   0.001000000
  Maximum gradient  component     =   0.010000000

  Symmetry not applied to optimisation

  Cell parameters to be optimised using strains

  Newton-Raphson optimiser to be used

  BFGS hessian update to be used

  Lower half triangular hessian to be used

  Minimiser to switch to RFO
  When gradient norm is less than     0.050000

  Dumpfile to be written after every cycle

  Start of bulk optimisation :

  Cycle:      0 Energy:     -1455.911675  Gnorm:      6.626100  CPU:    0.029
  ** Hessian calculated **
  Cycle:      1 Energy:     -1465.684236  Gnorm:      5.063832  CPU:    0.078
  ** Hessian calculated **
  Cycle:      2 Energy:     -1477.062761  Gnorm:      1.391466  CPU:    0.125
  ** Hessian calculated **
  Cycle:      3 Energy:     -1478.497556  Gnorm:      1.100166  CPU:    0.177
  ** Hessian calculated **
  Cycle:      4 Energy:     -1479.303775  Gnorm:      0.524132  CPU:    0.220
  Cycle:      5 Energy:     -1479.580949  Gnorm:      0.284393  CPU:    0.248
  Cycle:      6 Energy:     -1479.776043  Gnorm:      0.230676  CPU:    0.281
  Cycle:      7 Energy:     -1479.984335  Gnorm:      0.214220  CPU:    0.315
  Cycle:      8 Energy:     -1480.187638  Gnorm:      0.209940  CPU:    0.348
  Cycle:      9 Energy:     -1480.282177  Gnorm:      0.164856  CPU:    0.376
  Cycle:     10 Energy:     -1480.335101  Gnorm:      0.127242  CPU:    0.404
  Cycle:     11 Energy:     -1480.371812  Gnorm:      0.114827  CPU:    0.438
  Cycle:     12 Energy:     -1480.398940  Gnorm:      0.095896  CPU:    0.466
  Cycle:     13 Energy:     -1480.425931  Gnorm:      0.093145  CPU:    0.500
  ** Hessian calculated **
  Cycle:     14 Energy:     -1480.435008  Gnorm:      0.080953  CPU:    0.551
  Cycle:     15 Energy:     -1480.449488  Gnorm:      0.074271  CPU:    0.590
  Cycle:     16 Energy:     -1480.466754  Gnorm:      0.070431  CPU:    0.623
  Cycle:     17 Energy:     -1480.488261  Gnorm:      0.066324  CPU:    0.657
  Cycle:     18 Energy:     -1480.513300  Gnorm:      0.064779  CPU:    0.690
  Cycle:     19 Energy:     -1480.534433  Gnorm:      0.071746  CPU:    0.724
  Cycle:     20 Energy:     -1480.547010  Gnorm:      0.074131  CPU:    0.752
  Cycle:     21 Energy:     -1480.563693  Gnorm:      0.081854  CPU:    0.786
  Cycle:     22 Energy:     -1480.585173  Gnorm:      0.086062  CPU:    0.819
  Cycle:     23 Energy:     -1480.613075  Gnorm:      0.091717  CPU:    0.853
  ** Hessian calculated **
  Cycle:     24 Energy:     -1480.621692  Gnorm:      0.077114  CPU:    0.904
  Cycle:     25 Energy:     -1480.634894  Gnorm:      0.069042  CPU:    0.943
  Cycle:     26 Energy:     -1480.649081  Gnorm:      0.059199  CPU:    0.977
  Cycle:     27 Energy:     -1480.663242  Gnorm:      0.053999  CPU:    1.010
  Cycle:     28 Energy:     -1480.670581  Gnorm:      0.036783  CPU:    1.038
  ** Hessian has required structure
  Cycle:     29 Energy:     -1480.672140  Gnorm:      0.054438  CPU:    1.067
  ** Hessian has required structure
  Cycle:     30 Energy:     -1480.683910  Gnorm:      0.096610  CPU:    1.106
  ** Hessian has required structure
  Cycle:     31 Energy:     -1480.697455  Gnorm:      0.127895  CPU:    1.139
  ** Hessian has required structure
  Cycle:     32 Energy:     -1480.699496  Gnorm:      0.119525  CPU:    1.167
  ** Hessian has required structure
  Cycle:     33 Energy:     -1480.702635  Gnorm:      0.134085  CPU:    1.196
  ** Hessian has wrong structure
  ** Imaginary eigenvectors =   4
  Cycle:     34 Energy:     -1480.754198  Gnorm:      0.132998  CPU:    1.305
  ** Hessian has wrong structure
  ** Imaginary eigenvectors =   2
  Cycle:     35 Energy:     -1480.803166  Gnorm:      0.135600  CPU:    1.398
  ** Hessian has wrong structure
  ** Imaginary eigenvectors =   1
  ** Hessian has wrong structure
  ** Imaginary eigenvectors =   1
  Cycle:     36 Energy:     -1480.834568  Gnorm:      0.135031  CPU:    1.525
  ** Hessian has required structure
  Cycle:     37 Energy:     -1480.883649  Gnorm:      0.134013  CPU:    1.564
  ** Hessian has required structure
  Cycle:     38 Energy:     -1480.985628  Gnorm:      0.068620  CPU:    1.593
  ** Hessian has required structure
  Cycle:     39 Energy:     -1481.030014  Gnorm:      0.054935  CPU:    1.626
  ** Hessian has required structure
  Cycle:     40 Energy:     -1481.047384  Gnorm:      0.069872  CPU:    1.655
  ** Hessian has required structure
  Cycle:     41 Energy:     -1481.055458  Gnorm:      0.053524  CPU:    1.689
  ** Hessian has required structure
  Cycle:     42 Energy:     -1481.060133  Gnorm:      0.044826  CPU:    1.723
  ** Hessian has required structure
  Cycle:     43 Energy:     -1481.063704  Gnorm:      0.033142  CPU:    1.756
  ** Hessian has required structure
  Cycle:     44 Energy:     -1481.066182  Gnorm:      0.035217  CPU:    1.795
  ** Hessian has required structure
  Cycle:     45 Energy:     -1481.068652  Gnorm:      0.033314  CPU:    1.829
  ** Hessian has required structure
  Cycle:     46 Energy:     -1481.075195  Gnorm:      0.030751  CPU:    1.886
  ** Hessian has required structure
  Cycle:     47 Energy:     -1481.085220  Gnorm:      0.027308  CPU:    1.930
  ** Hessian has required structure
  Cycle:     48 Energy:     -1481.096286  Gnorm:      0.022856  CPU:    1.969
  ** Hessian has required structure
  Cycle:     49 Energy:     -1481.106383  Gnorm:      0.015644  CPU:    2.008
  ** Hessian has required structure
  Cycle:     50 Energy:     -1481.109477  Gnorm:      0.008453  CPU:    2.047
  ** Hessian has required structure
  Cycle:     51 Energy:     -1481.110518  Gnorm:      0.006116  CPU:    2.086
  ** Hessian has required structure
  Cycle:     52 Energy:     -1481.110830  Gnorm:      0.002404  CPU:    2.120
  ** Hessian has required structure
  Cycle:     53 Energy:     -1481.110979  Gnorm:      0.001999  CPU:    2.159
  ** Hessian has required structure
  Cycle:     54 Energy:     -1481.111012  Gnorm:      0.000833  CPU:    2.199
  ** Hessian has required structure
  Cycle:     55 Energy:     -1481.111019  Gnorm:      0.000582  CPU:    2.233
  ** Hessian has required structure
  Cycle:     56 Energy:     -1481.111022  Gnorm:      0.000407  CPU:    2.280
  ** Hessian has required structure
  Cycle:     57 Energy:     -1481.111023  Gnorm:      0.000286  CPU:    2.308
  ** Hessian has required structure
  Cycle:     58 Energy:     -1481.111023  Gnorm:      0.000200  CPU:    2.337
  ** Hessian has required structure


  **** Optimisation achieved ****


  Final energy =   -1481.11102430 eV      
  Final Gnorm  =       0.00014029

  Components of energy : 

--------------------------------------------------------------------------------
  Interatomic potentials     =         391.89307839 eV    
  Three-body potentials      =           0.00001959 eV    
  Monopole - monopole (real) =        -615.15946157 eV    
  Monopole - monopole (recip)=       -1257.84466070 eV    
  Monopole - monopole (total)=       -1873.00412228 eV    
--------------------------------------------------------------------------------
  Total lattice energy       =       -1481.11102430 eV    
--------------------------------------------------------------------------------
  Total lattice energy       =         -142904.5730 kJ/(mole unit cells)
--------------------------------------------------------------------------------

  Final fractional coordinates of atoms :

--------------------------------------------------------------------------------
   No.  Atomic        x           y          z          Radius
        Label       (Frac)      (Frac)     (Frac)       (Angs) 
--------------------------------------------------------------------------------
     1  Ge    c     0.313820    0.296860    0.309830    0.000000
     2  Ge    c     0.670500    0.369075    0.716646    0.000000
     3  Ge    c     0.622982    0.772606    0.705687    0.000000
     4  Ge    c     0.254961    0.698640    0.299752    0.000000
     5  Ge    c     0.299729    0.286690    0.619402    0.000000
     6  Ge    c     0.682206    0.386235    0.406768    0.000000
     7  Ge    c     0.622817    0.789096    0.389732    0.000000
     8  Ge    c     0.253472    0.690950    0.615352    0.000000
     9  Ge    c     0.067488    0.013742    0.142938    0.000000
    10  Si    c     0.861213    0.078596    0.342721    0.000000
    11  Si    c     0.056499    0.995905    0.637228    0.000000
    12  Si    c     0.861766    0.057170    0.840202    0.000000
    13  O1    c     0.240414    0.275626    0.447107    0.000000
    14  O1    c     0.738672    0.404082    0.578337    0.000000
    15  O1    c     0.683740    0.791057    0.562074    0.000000
    16  O1    c     0.197397    0.669305    0.444034    0.000000
    17  O1    c     0.282808    0.501143    0.242511    0.000000
    18  O1    c     0.649594    0.568164    0.774867    0.000000
    19  O1    c     0.509293    0.270893    0.362512    0.000000
    20  O1    c     0.495291    0.256945    0.669879    0.000000
    21  O1    c     0.427613    0.804272    0.662001    0.000000
    22  O1    c     0.427405    0.817121    0.338661    0.000000
    23  O1    c     0.227725    0.147380    0.191764    0.000000
    24  O3    c     0.798344    0.247207    0.835822    0.000000
    25  O3    c     0.721166    0.917967    0.826284    0.000000
    26  O1    c     0.116539    0.805951    0.183095    0.000000
    27  O1    c     0.269414    0.485278    0.677937    0.000000
    28  O1    c     0.661926    0.589405    0.338344    0.000000
    29  O3    c     0.198766    0.131874    0.686781    0.000000
    30  O3    c     0.820396    0.274320    0.359121    0.000000
    31  O3    c     0.710813    0.952255    0.318957    0.000000
    32  O3    c     0.118180    0.804616    0.667607    0.000000
    33  O2    c     0.989499    0.013176    0.475241    0.000000
    34  O3    c     0.925691    0.076172    0.213724    0.000000
    35  O2    c     0.922413    0.030589    0.707389    0.000000
    36  O3    c     0.999444    0.027396    0.970383    0.000000
    37  O1    s     0.250184    0.277970    0.449799    0.000000
    38  O1    s     0.729280    0.400117    0.575818    0.000000
    39  O1    s     0.674579    0.789517    0.559876    0.000000
    40  O1    s     0.206006    0.673137    0.446077    0.000000
    41  O1    s     0.282954    0.501257    0.251742    0.000000
    42  O1    s     0.649284    0.567674    0.765493    0.000000
    43  O1    s     0.507412    0.281495    0.361852    0.000000
    44  O1    s     0.493584    0.267370    0.669535    0.000000
    45  O1    s     0.429239    0.793536    0.661770    0.000000
    46  O1    s     0.429478    0.806413    0.339672    0.000000
    47  O1    s     0.221958    0.148626    0.197161    0.000000
    48  O3    s     0.794587    0.238221    0.827062    0.000000
    49  O3    s     0.726859    0.919795    0.818146    0.000000
    50  O1    s     0.123309    0.813858    0.188887    0.000000
    51  O1    s     0.270365    0.486664    0.669008    0.000000
    52  O1    s     0.660688    0.588403    0.347091    0.000000
    53  O3    s     0.193065    0.131085    0.676566    0.000000
    54  O3    s     0.813336    0.264317    0.361339    0.000000
    55  O3    s     0.718334    0.951273    0.327064    0.000000
    56  O3    s     0.122632    0.814209    0.660734    0.000000
    57  O2    s     0.983281    0.018066    0.478077    0.000000
    58  O3    s     0.930741    0.071297    0.221042    0.000000
    59  O2    s     0.930945    0.029470    0.712932    0.000000
    60  O3    s     0.990486    0.029419    0.970791    0.000000
--------------------------------------------------------------------------------

  Final Cartesian lattice vectors (Angstroms) :

        8.982944   -0.186772    0.208347
       -0.161153    7.773800    0.035076
       -3.030656    0.109093    9.876430


  Final cell parameters and derivatives :

--------------------------------------------------------------------------------
       a            8.987301 Angstrom     dE/de1(xx)     0.007669 eV/strain
       b            7.775549 Angstrom     dE/de2(yy)     0.006582 eV/strain
       c           10.331536 Angstrom     dE/de3(zz)     0.005316 eV/strain
       alpha       88.799628 Degrees      dE/de4(yz)     0.000056 eV/strain
       beta       105.739042 Degrees      dE/de5(xz)     0.000281 eV/strain
       gamma       92.372037 Degrees      dE/de6(xy)     0.000171 eV/strain
--------------------------------------------------------------------------------

  Primitive cell volume =           694.280127 Angs**3

  Density of cell =      2.683003 g/cm**3

  Non-primitive cell volume =           694.280127 Angs**3


  Final internal derivatives :

--------------------------------------------------------------------------------
   No.  Atomic          a             b             c           Radius
        Label          (eV)          (eV)          (eV)        (eV/Angs)
--------------------------------------------------------------------------------
      1 Ge    c       0.000000      0.000000      0.000000      0.000000
      2 Ge    c       0.000389     -0.000067     -0.001155      0.000000
      3 Ge    c       0.000794     -0.000307     -0.000369      0.000000
      4 Ge    c       0.003000     -0.000746     -0.000060      0.000000
      5 Ge    c      -0.000310     -0.001165     -0.000526      0.000000
      6 Ge    c      -0.000590     -0.000979      0.000448      0.000000
      7 Ge    c       0.000170      0.000945     -0.000059      0.000000
      8 Ge    c       0.000346     -0.000603      0.000389      0.000000
      9 Ge    c       0.003047      0.000539     -0.005374      0.000000
     10 Si    c      -0.001570      0.001335     -0.001978      0.000000
     11 Si    c      -0.000218     -0.000900     -0.001023      0.000000
     12 Si    c       0.000493      0.000642      0.001652      0.000000
     13 O1    c      -0.000335     -0.000419      0.000092      0.000000
     14 O1    c      -0.000292     -0.000132      0.000041      0.000000
     15 O1    c       0.000729      0.000186      0.000305      0.000000
     16 O1    c      -0.003612      0.000259      0.001420      0.000000
     17 O1    c       0.000155      0.000472     -0.001243      0.000000
     18 O1    c       0.000074      0.001889      0.001279      0.000000
     19 O1    c       0.000773     -0.000560      0.000467      0.000000
     20 O1    c      -0.001027     -0.001124     -0.000489      0.000000
     21 O1    c       0.002085      0.001676     -0.000770      0.000000
     22 O1    c       0.000057      0.001078      0.000714      0.000000
     23 O1    c       0.002062      0.002272      0.001003      0.000000
     24 O3    c       0.000138      0.000489      0.002342      0.000000
     25 O3    c      -0.002955     -0.002904      0.000986      0.000000
     26 O1    c      -0.002982      0.000291     -0.003815      0.000000
     27 O1    c      -0.001057      0.000418      0.002212      0.000000
     28 O1    c       0.000496      0.000370     -0.001053      0.000000
     29 O3    c       0.003294      0.003938      0.000203      0.000000
     30 O3    c       0.000397      0.000563      0.000141      0.000000
     31 O3    c      -0.003747     -0.002815      0.001312      0.000000
     32 O3    c      -0.001986     -0.000551      0.002688      0.000000
     33 O2    c       0.003398     -0.000761      0.003291      0.000000
     34 O3    c      -0.009906      0.001942      0.008197      0.000000
     35 O2    c      -0.001226     -0.000354     -0.001333      0.000000
     36 O3    c       0.001126     -0.000111      0.003500      0.000000
     37 O1    s      -0.000058      0.000804      0.000229      0.000000
     38 O1    s       0.001182      0.000186     -0.000422      0.000000
     39 O1    s      -0.000150     -0.000367     -0.000545      0.000000
     40 O1    s      -0.001292     -0.000671      0.000346      0.000000
     41 O1    s       0.000373     -0.001265      0.000183      0.000000
     42 O1    s      -0.000303     -0.000647     -0.000459      0.000000
     43 O1    s      -0.000139      0.000360     -0.000867      0.000000
     44 O1    s      -0.000140      0.000429      0.000808      0.000000
     45 O1    s      -0.000814     -0.000157      0.001902      0.000000
     46 O1    s       0.001944     -0.000209     -0.001714      0.000000
     47 O1    s       0.001181     -0.000882     -0.001375      0.000000
     48 O3    s      -0.000669      0.001138     -0.000790      0.000000
     49 O3    s      -0.000578      0.000182      0.000566      0.000000
     50 O1    s       0.001768     -0.001228      0.000050      0.000000
     51 O1    s       0.000803     -0.001121     -0.001587      0.000000
     52 O1    s      -0.000123      0.000009      0.000429      0.000000
     53 O3    s      -0.000081     -0.001301      0.000848      0.000000
     54 O3    s      -0.000225      0.001274     -0.000730      0.000000
     55 O3    s       0.000211      0.000169     -0.001159      0.000000
     56 O3    s       0.001167     -0.000709     -0.000748      0.000000
     57 O2    s      -0.000072     -0.000292     -0.001784      0.000000
     58 O3    s       0.003188     -0.000879     -0.004191      0.000000
     59 O2    s       0.000798      0.001512     -0.000421      0.000000
     60 O3    s       0.001269     -0.000158     -0.002335      0.000000
--------------------------------------------------------------------------------
  Maximum abs         0.009906      0.003938      0.008197      0.000000
--------------------------------------------------------------------------------


  Born effective charge tensors : 

-------------------------------------------------------------------------------
  Atom             x           y             z
-------------------------------------------------------------------------------
    1 Ge    x       3.9718      0.1854      0.3776
            y       0.1844      4.1969      0.1289
            z       0.0680      0.2637      3.7221
-------------------------------------------------------------------------------
    2 Ge    x       3.8692      0.0272      0.2640
            y      -0.3773      4.2633     -0.1805
            z       0.0706     -0.1751      3.5717
-------------------------------------------------------------------------------
    3 Ge    x       4.0021      0.2010      0.3536
            y       0.2311      4.1641      0.0640
            z       0.0726      0.1452      3.6008
-------------------------------------------------------------------------------
    4 Ge    x       3.9204      0.0188      0.2732
            y      -0.4189      4.2036     -0.1928
            z       0.1802     -0.2161      3.7250
-------------------------------------------------------------------------------
    5 Ge    x       4.1607      0.2673     -0.0800
            y       0.2111      4.1622      0.1028
            z       0.2201      0.0136      3.3856
-------------------------------------------------------------------------------
    6 Ge    x       4.0007     -0.0576     -0.0417
            y      -0.4231      4.2502     -0.0922
            z       0.0961      0.1605      3.3886
-------------------------------------------------------------------------------
    7 Ge    x       4.0775      0.2525     -0.0684
            y       0.1619      4.1888      0.0440
            z       0.2211     -0.0636      3.4484
-------------------------------------------------------------------------------
    8 Ge    x       4.0540     -0.0825     -0.0285
            y      -0.4240      4.2808     -0.0219
            z       0.1544      0.1627      3.3528
-------------------------------------------------------------------------------
    9 Ge    x       3.8704     -0.2612      0.2251
            y       0.1832      3.8940     -0.0065
            z       0.0739     -0.0280      4.6487
-------------------------------------------------------------------------------
   10 Si    x       3.9328     -0.1451     -0.3551
            y       0.1959      3.6572      0.1857
            z      -0.3408     -0.0198      3.3922
-------------------------------------------------------------------------------
   11 Si    x       3.7364     -0.1544      0.2755
            y       0.1578      3.6413      0.0253
            z      -0.3060      0.0732      2.9492
-------------------------------------------------------------------------------
   12 Si    x       3.5046     -0.1813     -0.0214
            y       0.0964      3.6351      0.0436
            z       0.7702     -0.1627      4.0544
-------------------------------------------------------------------------------
   13 O1    x      -1.6953     -0.1264      0.4354
            y      -0.1388     -1.4280      0.0131
            z       0.4139     -0.0126     -2.5540
-------------------------------------------------------------------------------
   14 O1    x      -1.6163     -0.0146      0.4360
            y       0.0702     -1.4626      0.0545
            z       0.4265      0.0521     -2.5750
-------------------------------------------------------------------------------
   15 O1    x      -1.6209     -0.1242      0.3928
            y      -0.1227     -1.4339     -0.0176
            z       0.3673      0.0047     -2.6243
-------------------------------------------------------------------------------
   16 O1    x      -1.6050      0.0075      0.4459
            y       0.0784     -1.4593      0.0152
            z       0.4101      0.0004     -2.6037
-------------------------------------------------------------------------------
   17 O1    x      -1.3630      0.2096     -0.0419
            y       0.3328     -3.1487      0.0472
            z       0.0038      0.0279     -1.4231
-------------------------------------------------------------------------------
   18 O1    x      -1.3417      0.1763     -0.0502
            y       0.2831     -3.2363      0.0555
            z       0.0074      0.0134     -1.4192
-------------------------------------------------------------------------------
   19 O1    x      -2.9533     -0.2753     -0.5812
            y      -0.1683     -1.5743     -0.0733
            z      -0.5394     -0.1407     -1.3793
-------------------------------------------------------------------------------
   20 O1    x      -2.9892     -0.2897     -0.5958
            y      -0.1707     -1.5763     -0.0507
            z      -0.5993     -0.0536     -1.3929
-------------------------------------------------------------------------------
   21 O1    x      -3.0261     -0.2599     -0.5739
            y      -0.1579     -1.5774     -0.0780
            z      -0.5316     -0.1366     -1.3546
-------------------------------------------------------------------------------
   22 O1    x      -2.9599     -0.3205     -0.5484
            y      -0.2364     -1.6013     -0.0603
            z      -0.5614     -0.0466     -1.3811
-------------------------------------------------------------------------------
   23 O1    x      -1.9272     -0.6839     -0.5679
            y      -0.7128     -2.2370     -0.7365
            z      -0.5017     -0.7635     -2.0188
-------------------------------------------------------------------------------
   24 O3    x      -1.6043      0.7316     -0.2975
            y       0.6910     -2.4929      0.4733
            z      -0.3740      0.5094     -1.6568
-------------------------------------------------------------------------------
   25 O3    x      -1.9068     -0.7374     -0.3378
            y      -0.7736     -2.1349     -0.5312
            z      -0.3982     -0.5129     -1.7008
-------------------------------------------------------------------------------
   26 O1    x      -1.6744      0.6765     -0.5178
            y       0.6010     -2.5426      0.7194
            z      -0.4755      0.7464     -1.9635
-------------------------------------------------------------------------------
   27 O1    x      -1.4382      0.1578      0.0824
            y       0.2758     -3.2401      0.0346
            z       0.0208      0.0383     -1.3072
-------------------------------------------------------------------------------
   28 O1    x      -1.4392      0.1925      0.0711
            y       0.3225     -3.2246      0.1159
            z       0.0250      0.0499     -1.3202
-------------------------------------------------------------------------------
   29 O3    x      -2.2816     -0.9450     -0.0366
            y      -0.9573     -2.1566     -0.0162
            z       0.0204     -0.0046     -1.2712
-------------------------------------------------------------------------------
   30 O3    x      -2.0130      0.8702      0.2245
            y       0.8032     -2.5313     -0.2431
            z       0.1875     -0.2066     -1.2076
-------------------------------------------------------------------------------
   31 O3    x      -2.3223     -0.9448      0.1114
            y      -0.9378     -2.1460      0.1050
            z       0.0526      0.1193     -1.2716
-------------------------------------------------------------------------------
   32 O3    x      -2.0396      0.8989      0.0563
            y       0.8521     -2.5100      0.0204
            z       0.1139      0.0049     -1.1987
-------------------------------------------------------------------------------
   33 O2    x      -1.4523      0.1186     -0.3745
            y       0.0216     -1.2205      0.1773
            z      -0.1711      0.1952     -2.0594
-------------------------------------------------------------------------------
   34 O3    x      -2.3888      0.2748      0.9530
            y       0.1456     -1.2404     -0.1487
            z       0.9610     -0.1569     -2.2572
-------------------------------------------------------------------------------
   35 O2    x      -2.0059      0.2038      0.6216
            y       0.0816     -1.1748     -0.1163
            z       0.5984     -0.1419     -1.7344
-------------------------------------------------------------------------------
   36 O3    x      -1.4364      0.1336     -0.4807
            y       0.0390     -1.1877      0.1402
            z      -0.7366      0.2611     -3.5648
-------------------------------------------------------------------------------




  Elastic Constant Matrix: (Units=GPa)

-------------------------------------------------------------------------------
  Indices      1         2         3         4         5         6    
-------------------------------------------------------------------------------
       1     28.5366   11.7382    7.9978   -1.1894    0.8235   -8.2171
       2     11.7382   34.7951   10.1346   -0.0488    4.3632   -7.8627
       3      7.9978   10.1346   32.1680   -1.8050    9.5381   -0.7715
       4     -1.1894   -0.0488   -1.8050    9.8016   -1.3958    3.8180
       5      0.8235    4.3632    9.5381   -1.3958   12.4050   -1.1500
       6     -8.2171   -7.8627   -0.7715    3.8180   -1.1500   19.1924
-------------------------------------------------------------------------------


  Elastic Compliance Matrix: (Units=1/GPa)

-------------------------------------------------------------------------------
  Indices      1         2         3         4         5         6    
-------------------------------------------------------------------------------
       1    0.046671 -0.010118 -0.011190 -0.001301  0.010427  0.016271
       2   -0.010118  0.037933 -0.007649 -0.008105 -0.006577  0.012119
       3   -0.011190 -0.007649  0.045895  0.006082 -0.032024 -0.009209
       4   -0.001301 -0.008105  0.006082  0.114253  0.008721 -0.025839
       5    0.010427 -0.006577 -0.032024  0.008721  0.108324  0.005238
       6    0.016271  0.012119 -0.009209 -0.025839  0.005238  0.069119
-------------------------------------------------------------------------------

  Mechanical properties :

-------------------------------------------------------------------------------
  Convention :                    Reuss         Voigt         Hill
-------------------------------------------------------------------------------
  Bulk  Modulus (GPa)     =      13.77711      17.24897      15.51304
  Shear Modulus (GPa)     =       9.91464      12.65506      11.28485
-------------------------------------------------------------------------------
  Velocity S-wave (km/s)  =       1.92233       2.17181       2.05087
  Velocity P-wave (km/s)  =       3.17208       3.56623       3.37491
-------------------------------------------------------------------------------
  Compressibility (1/GPa) =    0.07258415
-------------------------------------------------------------------------------
  Stress axis :                     x             y             z
-------------------------------------------------------------------------------
  Youngs Moduli (GPa)     =      21.42664      26.36242      21.78890
-------------------------------------------------------------------------------
  Poissons Ratio (x)      =                     0.26673       0.24383
  Poissons Ratio (y)      =       0.21679                     0.16667
  Poissons Ratio (z)      =       0.23977       0.20165
-------------------------------------------------------------------------------


  Piezoelectric Strain Matrix: (Units=C/m**2)

-------------------------------------------------------------------------------
  Indices      1         2         3         4         5         6    
-------------------------------------------------------------------------------
       x    -0.63181   0.01976   0.34974   0.08459   0.19298  -0.02317
       y    -0.34933  -0.52315  -1.04993   0.93153  -0.32789  -0.10227
       z    -0.09485  -0.11663  -1.09971   0.09578   0.30988   0.10544
-------------------------------------------------------------------------------


  Piezoelectric Stress Matrix: (Units=10**-11 C/N)

-------------------------------------------------------------------------------
  Indices      1         2         3         4         5         6    
-------------------------------------------------------------------------------
       x    -3.20757   0.22310   1.75182   1.47354   0.36033  -1.60377
       y    -0.55559  -1.49116  -2.31677  10.45218   0.54911  -3.52117
       z     1.38815   0.34108  -5.88298   0.53005   6.99503   1.36068
-------------------------------------------------------------------------------


  Static dielectric constant tensor : 

-------------------------------------------------------------------------------
              x         y         z
-------------------------------------------------------------------------------
       x     5.07284   0.07347   0.41731
       y     0.07347   6.55378   0.03779
       z     0.41731   0.03779   4.00013
--------------------------------------------------------------------------------

  High frequency dielectric constant tensor : 

-------------------------------------------------------------------------------
              x         y         z
-------------------------------------------------------------------------------
       x     1.56993  -0.00251   0.00858
       y    -0.00251   1.57526   0.00080
       z     0.00858   0.00080   1.53105
-------------------------------------------------------------------------------

  Static refractive indices : 

-------------------------------------------------------------------------------
    1 =    1.96389      2 =    2.28278      3 =    2.56102
-------------------------------------------------------------------------------

  High frequency refractive indices : 

-------------------------------------------------------------------------------
    1 =    1.23661      2 =    1.25324      3 =    1.25555
-------------------------------------------------------------------------------


  Time to end of optimisation =       2.4025 seconds


  Peak dynamic memory used =       2.76 MB 


  Timing analysis for GULP :

--------------------------------------------------------------------------------
  Task / Subroutine                                          Time (Seconds)
--------------------------------------------------------------------------------
  Calculation of reciprocal space energy and derivatives          0.1591
  Calculation of real space energy and derivatives                2.0231
  Calculation of three-body energy and derivatives                0.0238
  Calculation and manipulation of Hessian matrix                  0.2907
  Calculation of matrix inversion                                 0.0035
--------------------------------------------------------------------------------
  Total CPU time                                                  2.4025
--------------------------------------------------------------------------------


  Dump file written as c00002.vasp.grs
  CIF file written as c00002.vasp.cif


  Job Finished at 11:23.45 22nd October    2025                               

