********************************************************************************
*                       GENERAL UTILITY LATTICE PROGRAM                        *
*                                 Julian Gale                                  *
*                       Curtin Institute for Computation                       *
*                    School of Molecular and Life Sciences                     *
*                    Curtin University, Western Australia                      *
********************************************************************************
* Version = 6.1.2 * Last modified =   3rd November 2022                        *
********************************************************************************
*  optimise     - perform optimisation run                                     *
*  conp         - constant pressure calculation                                *
*  property     - calculate properties for final geometry                      *
********************************************************************************

  Job Started  at 11:25.44 22nd October    2025                               

  Number of CPUs =     1


  Total number of configurations input =      1

********************************************************************************
*  Input for Configuration =   1 : c00037.vasp                                 *
********************************************************************************

  Formula = Ge9Si3O24                                                   

  Number of irreducible atoms/shells =      60


  Total number atoms/shells =      60

  Dimensionality = 3               :  Bulk   



  Cartesian lattice vectors (Angstroms) :

        9.086940    0.000000    0.000000
        0.000000    7.554810    0.000000
       -3.295144    0.000000    9.944380

  Cell parameters (Angstroms/Degrees):

  a =       9.0869    alpha =  90.0000
  b =       7.5548    beta  = 108.3330
  c =      10.4761    gamma =  90.0000

  Initial cell volume =         682.682735 Angs**3

  Temperature of configuration =   0.00     K 

  Pressure of configuration =         0.000 GPa 

  Fractional coordinates of asymmetric unit :

--------------------------------------------------------------------------------
   No.  Atomic       x           y          z         Charge      Occupancy
        Label      (Frac)      (Frac)     (Frac)        (e)         (Frac)  
--------------------------------------------------------------------------------
      1 Ge    c    0.313820    0.296860    0.309830     4.00000    1.000000    
      2 Ge    c    0.686180 *  0.296860 *  0.690170 *   4.00000    1.000000    
      3 Ge    c    0.686180 *  0.703140 *  0.690170 *   4.00000    1.000000    
      4 Ge    c    0.331050 *  0.296920 *  0.607380 *   4.00000    1.000000    
      5 Ge    c    0.668950 *  0.703080 *  0.392620 *   4.00000    1.000000    
      6 Ge    c    0.879680 *  0.000000 *  0.350160 *   4.00000    1.000000    
      7 Ge    c    0.120320 *  0.000000 *  0.649840 *   4.00000    1.000000    
      8 Ge    c    0.093070 *  0.000000 *  0.158230 *   4.00000    1.000000    
      9 Ge    c    0.906930 *  0.000000 *  0.841770 *   4.00000    1.000000    
     10 Si    c    0.313820 *  0.703140 *  0.309830 *   4.00000    1.000000    
     11 Si    c    0.668950 *  0.296920 *  0.392620 *   4.00000    1.000000    
     12 Si    c    0.331050 *  0.703080 *  0.607380 *   4.00000    1.000000    
     13 O1    c    0.268740 *  0.279030 *  0.446100 *   1.73396    1.000000    
     14 O3    c    0.731260 *  0.279030 *  0.553900 *   1.33043    1.000000    
     15 O1    c    0.731260 *  0.720970 *  0.553900 *   1.73396    1.000000    
     16 O2    c    0.268740 *  0.720970 *  0.446100 *   0.87073    1.000000    
     17 O3    c    0.295480 *  0.500000 *  0.260860 *   1.33043    1.000000    
     18 O1    c    0.704520 *  0.500000 *  0.739140 *   1.73396    1.000000    
     19 O3    c    0.490600 *  0.234690 *  0.337530 *   1.33043    1.000000    
     20 O1    c    0.509400 *  0.234690 *  0.662470 *   1.73396    1.000000    
     21 O3    c    0.509400 *  0.765310 *  0.662470 *   1.33043    1.000000    
     22 O3    c    0.490600 *  0.765310 *  0.337530 *   1.33043    1.000000    
     23 O1    c    0.200440 *  0.174000 *  0.194980 *   1.73396    1.000000    
     24 O1    c    0.799560 *  0.174000 *  0.805020 *   1.73396    1.000000    
     25 O1    c    0.799560 *  0.826000 *  0.805020 *   1.73396    1.000000    
     26 O3    c    0.200440 *  0.826000 *  0.194980 *   1.33043    1.000000    
     27 O3    c    0.317860 *  0.500000 *  0.649090 *   1.33043    1.000000    
     28 O3    c    0.682140 *  0.500000 *  0.350910 *   1.33043    1.000000    
     29 O1    c    0.227920 *  0.173870 *  0.671620 *   1.73396    1.000000    
     30 O3    c    0.772080 *  0.173870 *  0.328380 *   1.33043    1.000000    
     31 O1    c    0.772080 *  0.826130 *  0.328380 *   1.73396    1.000000    
     32 O3    c    0.227920 *  0.826130 *  0.671620 *   1.33043    1.000000    
     33 O1    c    0.000000 *  0.000000 *  0.500000 *   1.73396    1.000000    
     34 O1    c    0.971960 *  0.000000 *  0.241930 *   1.73396    1.000000    
     35 O1    c    0.028040 *  0.000000 *  0.758070 *   1.73396    1.000000    
     36 O1    c    0.000000 *  0.000000 *  0.000000 *   1.73396    1.000000    
     37 O1    s    0.268740 *  0.279030 *  0.446100 *  -3.73396    1.000000    
     38 O3    s    0.731260 *  0.279030 *  0.553900 *  -3.33043    1.000000    
     39 O1    s    0.731260 *  0.720970 *  0.553900 *  -3.73396    1.000000    
     40 O2    s    0.268740 *  0.720970 *  0.446100 *  -2.87073    1.000000    
     41 O3    s    0.295480 *  0.500000 *  0.260860 *  -3.33043    1.000000    
     42 O1    s    0.704520 *  0.500000 *  0.739140 *  -3.73396    1.000000    
     43 O3    s    0.490600 *  0.234690 *  0.337530 *  -3.33043    1.000000    
     44 O1    s    0.509400 *  0.234690 *  0.662470 *  -3.73396    1.000000    
     45 O3    s    0.509400 *  0.765310 *  0.662470 *  -3.33043    1.000000    
     46 O3    s    0.490600 *  0.765310 *  0.337530 *  -3.33043    1.000000    
     47 O1    s    0.200440 *  0.174000 *  0.194980 *  -3.73396    1.000000    
     48 O1    s    0.799560 *  0.174000 *  0.805020 *  -3.73396    1.000000    
     49 O1    s    0.799560 *  0.826000 *  0.805020 *  -3.73396    1.000000    
     50 O3    s    0.200440 *  0.826000 *  0.194980 *  -3.33043    1.000000    
     51 O3    s    0.317860 *  0.500000 *  0.649090 *  -3.33043    1.000000    
     52 O3    s    0.682140 *  0.500000 *  0.350910 *  -3.33043    1.000000    
     53 O1    s    0.227920 *  0.173870 *  0.671620 *  -3.73396    1.000000    
     54 O3    s    0.772080 *  0.173870 *  0.328380 *  -3.33043    1.000000    
     55 O1    s    0.772080 *  0.826130 *  0.328380 *  -3.73396    1.000000    
     56 O3    s    0.227920 *  0.826130 *  0.671620 *  -3.33043    1.000000    
     57 O1    s    0.000000 *  0.000000 *  0.500000 *  -3.73396    1.000000    
     58 O1    s    0.971960 *  0.000000 *  0.241930 *  -3.73396    1.000000    
     59 O1    s    0.028040 *  0.000000 *  0.758070 *  -3.73396    1.000000    
     60 O1    s    0.000000 *  0.000000 *  0.000000 *  -3.73396    1.000000    
--------------------------------------------------------------------------------



********************************************************************************
*  General input information                                                   *
********************************************************************************

  Species output for all configurations : 

--------------------------------------------------------------------------------
  Species    Type    Atomic    Atomic    Charge       Radii (Angs)     Library
                     Number     Mass       (e)     Cova   Ionic  VDW   Symbol
--------------------------------------------------------------------------------
    Ge       Core       32      72.61   4.000000   1.170  0.000  1.750 Ge       
    Si       Core       14      28.09   4.000000   1.200  0.000  2.100 Si       
    O1       Core        8      16.00   1.733957   0.730  0.000  1.360 O1       
    O2       Core        8      16.00   0.870733   0.730  0.000  1.360 O2       
    O3       Core        8      16.00   1.330431   0.730  0.000  1.360 O3       
    O1       Shell       8       0.00  -3.733957   0.730  0.000  0.000 O1       
    O2       Shell       8       0.00  -2.870733   0.730  0.000  0.000 O2       
    O3       Shell       8       0.00  -3.330431   0.730  0.000  0.000 O3       
--------------------------------------------------------------------------------


  Lattice summation method               =    Ewald          (3-D)
                                         =    Parry          (2-D)
                                         =    Saunders et al (1-D)
  Accuracy factor for lattice sums       =   12.000


  Analytic derivatives to be used

  Time limit = Infinity

  Maximum range for interatomic potentials =    100000.000000 Angstroms

  General interatomic potentials :

--------------------------------------------------------------------------------
Atom  Types   Potential      Parameter       Value         Units   Cutoffs(Ang)
  1     2                                                            Min /  Max 
--------------------------------------------------------------------------------
Si   c O1   s Buckingham    Buckingham A     1315.2478    eV        0.000 16.000
                            Buckingham rho  0.31775900    Ang       
                            Buckingham C     10.141118    eV*Ang^6  
--------------------------------------------------------------------------------
Si   c O2   s Buckingham    Buckingham A     1315.2478    eV        0.000 16.000
                            Buckingham rho  0.31775900    Ang       
                            Buckingham C     10.141118    eV*Ang^6  
--------------------------------------------------------------------------------
Si   c O3   s Buckingham    Buckingham A     1315.2478    eV        0.000 16.000
                            Buckingham rho  0.31775900    Ang       
                            Buckingham C     10.141118    eV*Ang^6  
--------------------------------------------------------------------------------
Ge   c O1   s Buckingham    Buckingham A     1497.3996    eV        0.000 16.000
                            Buckingham rho  0.32564600    Ang       
                            Buckingham C     16.808599    eV*Ang^6  
--------------------------------------------------------------------------------
Ge   c O2   s Buckingham    Buckingham A     1497.3996    eV        0.000 16.000
                            Buckingham rho  0.32564600    Ang       
                            Buckingham C     16.808599    eV*Ang^6  
--------------------------------------------------------------------------------
Ge   c O3   s Buckingham    Buckingham A     1497.3996    eV        0.000 16.000
                            Buckingham rho  0.32564600    Ang       
                            Buckingham C     16.808599    eV*Ang^6  
--------------------------------------------------------------------------------
O1   s O1   s Buckingham    Buckingham A     22764.000    eV        0.000 16.000
                            Buckingham rho  0.14900000    Ang       
                            Buckingham C     10.937044    eV*Ang^6  
--------------------------------------------------------------------------------
O1   s O2   s Buckingham    Buckingham A     22764.000    eV        0.000 16.000
                            Buckingham rho  0.14900000    Ang       
                            Buckingham C     10.937044    eV*Ang^6  
--------------------------------------------------------------------------------
O1   s O3   s Buckingham    Buckingham A     22764.000    eV        0.000 16.000
                            Buckingham rho  0.14900000    Ang       
                            Buckingham C     10.937044    eV*Ang^6  
--------------------------------------------------------------------------------
O2   s O2   s Buckingham    Buckingham A     22764.000    eV        0.000 16.000
                            Buckingham rho  0.14900000    Ang       
                            Buckingham C     10.937044    eV*Ang^6  
--------------------------------------------------------------------------------
O2   s O3   s Buckingham    Buckingham A     22764.000    eV        0.000 16.000
                            Buckingham rho  0.14900000    Ang       
                            Buckingham C     10.937044    eV*Ang^6  
--------------------------------------------------------------------------------
O3   s O3   s Buckingham    Buckingham A     22764.000    eV        0.000 16.000
                            Buckingham rho  0.14900000    Ang       
                            Buckingham C     10.937044    eV*Ang^6  
--------------------------------------------------------------------------------
O1   c O1   s Spring (c-s)  Spring k 2       180.31577    eV*Ang^-2 0.000  0.800
                            Spring k 4       0.0000000    eV*Ang^-4 
--------------------------------------------------------------------------------
O2   c O2   s Spring (c-s)  Spring k 2       75.969800    eV*Ang^-2 0.000  0.800
                            Spring k 4       0.0000000    eV*Ang^-4 
--------------------------------------------------------------------------------
O3   c O3   s Spring (c-s)  Spring k 2       128.14270    eV*Ang^-2 0.000  0.800
                            Spring k 4       0.0000000    eV*Ang^-4 
--------------------------------------------------------------------------------

  General Three-body potentials :

--------------------------------------------------------------------------------
  Atoms       Potential      Parameter       Value         Units   Cutoffs(Ang)
  1 / 2 / 3                                                          Min /  Max 
--------------------------------------------------------------------------------
Si    core    Harmonic      Three-body cnst  1.2614000    eV*rad^-2 0.000  1.900
O1    shel                  Three-body angl  109.47000    degrees   0.000  1.900
O1    shel                  Three-body k4    0.0000000    eV*rad^-4 0.000  3.500
                            Three-body k3    0.0000000    eV*rad^-3 
--------------------------------------------------------------------------------
Si    core    Harmonic      Three-body cnst  1.2614000    eV*rad^-2 0.000  1.900
O1    shel                  Three-body angl  109.47000    degrees   0.000  1.900
õ(1   shel                  Three-body k4    0.0000000    eV*rad^-4 0.000  3.500
                            Three-body k3    0.0000000    eV*rad^-3 
--------------------------------------------------------------------------------
Si    core    Harmonic      Three-body cnst  1.2614000    eV*rad^-2 0.000  1.900
õ(1   shel                  Three-body angl  109.47000    degrees   0.000  1.900
õ(1   shel                  Three-body k4    0.0000000    eV*rad^-4 0.000  3.500
                            Three-body k3    0.0000000    eV*rad^-3 
--------------------------------------------------------------------------------
Si    core    Harmonic      Three-body cnst  1.2614000    eV*rad^-2 0.000  1.900
O1    shel                  Three-body angl  109.47000    degrees   0.000  1.900
O2    shel                  Three-body k4    0.0000000    eV*rad^-4 0.000  3.500
                            Three-body k3    0.0000000    eV*rad^-3 
--------------------------------------------------------------------------------
Si    core    Harmonic      Three-body cnst  1.2614000    eV*rad^-2 0.000  1.900
O1    shel                  Three-body angl  109.47000    degrees   0.000  1.900
õ(2   shel                  Three-body k4    0.0000000    eV*rad^-4 0.000  3.500
                            Three-body k3    0.0000000    eV*rad^-3 
--------------------------------------------------------------------------------
Si    core    Harmonic      Three-body cnst  1.2614000    eV*rad^-2 0.000  1.900
O2    shel                  Three-body angl  109.47000    degrees   0.000  1.900
õ(1   shel                  Three-body k4    0.0000000    eV*rad^-4 0.000  3.500
                            Three-body k3    0.0000000    eV*rad^-3 
--------------------------------------------------------------------------------
Si    core    Harmonic      Three-body cnst  1.2614000    eV*rad^-2 0.000  1.900
õ(1   shel                  Three-body angl  109.47000    degrees   0.000  1.900
õ(2   shel                  Three-body k4    0.0000000    eV*rad^-4 0.000  3.500
                            Three-body k3    0.0000000    eV*rad^-3 
--------------------------------------------------------------------------------
Si    core    Harmonic      Three-body cnst  1.2614000    eV*rad^-2 0.000  1.900
O2    shel                  Three-body angl  109.47000    degrees   0.000  1.900
O2    shel                  Three-body k4    0.0000000    eV*rad^-4 0.000  3.500
                            Three-body k3    0.0000000    eV*rad^-3 
--------------------------------------------------------------------------------
Si    core    Harmonic      Three-body cnst  1.2614000    eV*rad^-2 0.000  1.900
O2    shel                  Three-body angl  109.47000    degrees   0.000  1.900
õ(2   shel                  Three-body k4    0.0000000    eV*rad^-4 0.000  3.500
                            Three-body k3    0.0000000    eV*rad^-3 
--------------------------------------------------------------------------------
Si    core    Harmonic      Three-body cnst  1.2614000    eV*rad^-2 0.000  1.900
õ(2   shel                  Three-body angl  109.47000    degrees   0.000  1.900
õ(2   shel                  Three-body k4    0.0000000    eV*rad^-4 0.000  3.500
                            Three-body k3    0.0000000    eV*rad^-3 
--------------------------------------------------------------------------------

********************************************************************************
*  Output for configuration   1 : c00037.vasp                                  *
********************************************************************************


  Components of energy : 

--------------------------------------------------------------------------------
  Interatomic potentials     =         440.40714781 eV    
  Three-body potentials      =           0.00000000 eV    
  Monopole - monopole (real) =       -1236.99964305 eV    
  Monopole - monopole (recip)=        -659.26603192 eV    
  Monopole - monopole (total)=       -1896.26567496 eV    
--------------------------------------------------------------------------------
  Total lattice energy       =       -1455.85852715 eV    
--------------------------------------------------------------------------------
  Total lattice energy       =         -140468.0930 kJ/(mole unit cells)
--------------------------------------------------------------------------------


  Number of variables =      183

  Maximum number of calculations  =          1000
  Maximum Hessian update interval =            10
  Maximum step size               =   0.100000000
  Maximum parameter tolerance     =   0.000010000
  Maximum function  tolerance     =   0.000010000
  Maximum gradient  tolerance     =   0.001000000
  Maximum gradient  component     =   0.010000000

  Symmetry not applied to optimisation

  Cell parameters to be optimised using strains

  Newton-Raphson optimiser to be used

  BFGS hessian update to be used

  Lower half triangular hessian to be used

  Minimiser to switch to RFO
  When gradient norm is less than     0.050000

  Dumpfile to be written after every cycle

  Start of bulk optimisation :

  Cycle:      0 Energy:     -1455.858527  Gnorm:      6.403824  CPU:    0.030
  ** Hessian calculated **
  Cycle:      1 Energy:     -1475.732454  Gnorm:      1.711945  CPU:    0.064
  ** Hessian calculated **
  Cycle:      2 Energy:     -1478.164102  Gnorm:      0.886665  CPU:    0.120
  Cycle:      3 Energy:     -1478.881302  Gnorm:      0.447515  CPU:    0.154
  Cycle:      4 Energy:     -1479.283705  Gnorm:      0.374424  CPU:    0.194
  Cycle:      5 Energy:     -1479.775201  Gnorm:      0.330109  CPU:    0.235
  Cycle:      6 Energy:     -1480.276076  Gnorm:      0.315914  CPU:    0.275
  Cycle:      7 Energy:     -1480.484739  Gnorm:      0.242743  CPU:    0.309
  Cycle:      8 Energy:     -1480.569356  Gnorm:      0.148244  CPU:    0.343
  Cycle:      9 Energy:     -1480.611543  Gnorm:      0.126051  CPU:    0.378
  Cycle:     10 Energy:     -1480.646203  Gnorm:      0.105719  CPU:    0.412
  Cycle:     11 Energy:     -1480.677136  Gnorm:      0.097994  CPU:    0.446
  ** Hessian calculated **
  Cycle:     12 Energy:     -1480.691826  Gnorm:      0.096292  CPU:    0.508
  Cycle:     13 Energy:     -1480.716695  Gnorm:      0.093275  CPU:    0.555
  Cycle:     14 Energy:     -1480.755433  Gnorm:      0.088175  CPU:    0.601
  Cycle:     15 Energy:     -1480.802607  Gnorm:      0.081211  CPU:    0.642
  Cycle:     16 Energy:     -1480.875510  Gnorm:      0.068593  CPU:    0.689
  Cycle:     17 Energy:     -1480.947988  Gnorm:      0.053189  CPU:    0.729
  Cycle:     18 Energy:     -1480.998266  Gnorm:      0.045259  CPU:    0.770
  ** Hessian has wrong structure
  ** Imaginary eigenvectors =   3
  Cycle:     19 Energy:     -1481.015263  Gnorm:      0.121012  CPU:    0.847
  ** Hessian has wrong structure
  ** Imaginary eigenvectors =   2
  ** Hessian has wrong structure
  ** Imaginary eigenvectors =   1
  Cycle:     20 Energy:     -1481.077821  Gnorm:      0.152535  CPU:    0.987
  ** Hessian has required structure
  ** Hessian has required structure
  Cycle:     21 Energy:     -1481.222087  Gnorm:      0.099589  CPU:    1.061
  ** Hessian has required structure
  Cycle:     22 Energy:     -1481.309630  Gnorm:      0.082165  CPU:    1.108
  ** Hessian has required structure
  Cycle:     23 Energy:     -1481.374260  Gnorm:      0.035834  CPU:    1.148
  ** Hessian has required structure
  Cycle:     24 Energy:     -1481.412448  Gnorm:      0.056368  CPU:    1.195
  ** Hessian has required structure
  Cycle:     25 Energy:     -1481.445528  Gnorm:      0.071973  CPU:    1.235
  ** Hessian has required structure
  Cycle:     26 Energy:     -1481.465386  Gnorm:      0.062788  CPU:    1.275
  ** Hessian has required structure
  Cycle:     27 Energy:     -1481.485538  Gnorm:      0.054399  CPU:    1.322
  ** Hessian has required structure
  Cycle:     28 Energy:     -1481.495840  Gnorm:      0.034621  CPU:    1.363
  ** Hessian has required structure
  Cycle:     29 Energy:     -1481.504497  Gnorm:      0.032553  CPU:    1.409
  ** Hessian has required structure
  Cycle:     30 Energy:     -1481.509838  Gnorm:      0.036521  CPU:    1.450
  ** Hessian has required structure
  Cycle:     31 Energy:     -1481.525691  Gnorm:      0.032128  CPU:    1.517
  ** Hessian has required structure
  Cycle:     32 Energy:     -1481.543585  Gnorm:      0.032942  CPU:    1.565
  ** Hessian has required structure
  Cycle:     33 Energy:     -1481.555578  Gnorm:      0.039886  CPU:    1.605
  ** Hessian has required structure
  Cycle:     34 Energy:     -1481.562641  Gnorm:      0.029502  CPU:    1.652
  ** Hessian has required structure
  Cycle:     35 Energy:     -1481.569071  Gnorm:      0.028744  CPU:    1.699
  ** Hessian has required structure
  Cycle:     36 Energy:     -1481.575633  Gnorm:      0.024338  CPU:    1.747
  ** Hessian has required structure
  Cycle:     37 Energy:     -1481.582808  Gnorm:      0.018648  CPU:    1.788
  ** Hessian has required structure
  Cycle:     38 Energy:     -1481.587264  Gnorm:      0.029032  CPU:    1.828
  ** Hessian has required structure
  Cycle:     39 Energy:     -1481.591406  Gnorm:      0.026607  CPU:    1.876
  ** Hessian has required structure
  Cycle:     40 Energy:     -1481.597198  Gnorm:      0.020795  CPU:    1.923
  ** Hessian has required structure
  Cycle:     41 Energy:     -1481.606525  Gnorm:      0.020153  CPU:    1.992
  ** Hessian has required structure
  Cycle:     42 Energy:     -1481.613129  Gnorm:      0.021415  CPU:    2.033
  ** Hessian has required structure
  Cycle:     43 Energy:     -1481.619348  Gnorm:      0.013434  CPU:    2.073
  ** Hessian has required structure
  Cycle:     44 Energy:     -1481.623764  Gnorm:      0.023054  CPU:    2.121
  ** Hessian has required structure
  Cycle:     45 Energy:     -1481.629112  Gnorm:      0.019432  CPU:    2.168
  ** Hessian has required structure
  Cycle:     46 Energy:     -1481.634220  Gnorm:      0.012753  CPU:    2.230
  ** Hessian has required structure
  Cycle:     47 Energy:     -1481.637267  Gnorm:      0.012274  CPU:    2.289
  ** Hessian has required structure
  Cycle:     48 Energy:     -1481.639656  Gnorm:      0.004900  CPU:    2.348
  ** Hessian has required structure
  Cycle:     49 Energy:     -1481.640399  Gnorm:      0.006906  CPU:    2.407
  ** Hessian has required structure
  Cycle:     50 Energy:     -1481.640760  Gnorm:      0.005481  CPU:    2.466
  ** Hessian has required structure
  Cycle:     51 Energy:     -1481.640958  Gnorm:      0.004567  CPU:    2.559
  ** Hessian has required structure
  Cycle:     52 Energy:     -1481.641176  Gnorm:      0.003292  CPU:    2.629
  ** Hessian has required structure
  Cycle:     53 Energy:     -1481.641331  Gnorm:      0.002005  CPU:    2.687
  ** Hessian has required structure
  Cycle:     54 Energy:     -1481.641402  Gnorm:      0.001030  CPU:    2.756
  ** Hessian has required structure
  Cycle:     55 Energy:     -1481.641418  Gnorm:      0.000625  CPU:    2.815
  ** Hessian has required structure
  Cycle:     56 Energy:     -1481.641427  Gnorm:      0.000257  CPU:    2.894
  ** Hessian has required structure
  Cycle:     57 Energy:     -1481.641429  Gnorm:      0.000206  CPU:    2.943
  ** Hessian has required structure
  Cycle:     58 Energy:     -1481.641429  Gnorm:      0.000181  CPU:    2.991
  ** Hessian has required structure


  **** Optimisation achieved ****


  Final energy =   -1481.64142910 eV      
  Final Gnorm  =       0.00015019

  Components of energy : 

--------------------------------------------------------------------------------
  Interatomic potentials     =         393.56555085 eV    
  Three-body potentials      =           0.00000000 eV    
  Monopole - monopole (real) =        -625.20947327 eV    
  Monopole - monopole (recip)=       -1249.99750668 eV    
  Monopole - monopole (total)=       -1875.20697994 eV    
--------------------------------------------------------------------------------
  Total lattice energy       =       -1481.64142910 eV    
--------------------------------------------------------------------------------
  Total lattice energy       =         -142955.7489 kJ/(mole unit cells)
--------------------------------------------------------------------------------

  Final fractional coordinates of atoms :

--------------------------------------------------------------------------------
   No.  Atomic        x           y          z          Radius
        Label       (Frac)      (Frac)     (Frac)       (Angs) 
--------------------------------------------------------------------------------
     1  Ge    c     0.313820    0.296860    0.309830    0.000000
     2  Ge    c     0.720678    0.264155    0.707696    0.000000
     3  Ge    c     0.676924    0.683808    0.718264    0.000000
     4  Ge    c     0.359469    0.222399    0.641276    0.000000
     5  Ge    c     0.645847    0.734420    0.398029    0.000000
     6  Ge    c     0.861817    0.039603    0.332341    0.000000
     7  Ge    c     0.124765    0.928926    0.637540    0.000000
     8  Ge    c     0.097867    0.995318    0.175343    0.000000
     9  Ge    c     0.937241    0.935417    0.856441    0.000000
    10  Si    c     0.309092    0.677429    0.329528    0.000000
    11  Si    c     0.673823    0.328966    0.390895    0.000000
    12  Si    c     0.342283    0.613853    0.639046    0.000000
    13  O1    c     0.304572    0.207605    0.465216    0.000000
    14  O3    c     0.716463    0.226972    0.542874    0.000000
    15  O1    c     0.676251    0.788616    0.562551    0.000000
    16  O2    c     0.382719    0.602203    0.494745    0.000000
    17  O3    c     0.240546    0.507988    0.258659    0.000000
    18  O1    c     0.744022    0.475855    0.735969    0.000000
    19  O3    c     0.496821    0.311499    0.309399    0.000000
    20  O1    c     0.550879    0.193297    0.719131    0.000000
    21  O3    c     0.498414    0.681985    0.738327    0.000000
    22  O3    c     0.455213    0.750853    0.295995    0.000000
    23  O1    c     0.210429    0.170556    0.187928    0.000000
    24  O1    c     0.870551    0.146044    0.821262    0.000000
    25  O1    c     0.789319    0.799715    0.844014    0.000000
    26  O3    c     0.186595    0.827981    0.302277    0.000000
    27  O3    c     0.308940    0.420108    0.682230    0.000000
    28  O3    c     0.715692    0.526899    0.406061    0.000000
    29  O1    c     0.266717    0.066617    0.707282    0.000000
    30  O3    c     0.767678    0.236582    0.311735    0.000000
    31  O1    c     0.742200    0.871645    0.321222    0.000000
    32  O3    c     0.198844    0.733448    0.616282    0.000000
    33  O1    c     0.015401    0.026011    0.480686    0.000000
    34  O1    c     0.930154    0.044475    0.196346    0.000000
    35  O1    c     0.021067    0.875289    0.741871    0.000000
    36  O1    c     0.067987    0.917117    0.019104    0.000000
    37  O1    s     0.309219    0.215328    0.466304    0.000000
    38  O3    s     0.712897    0.239173    0.541242    0.000000
    39  O1    s     0.674059    0.777235    0.561453    0.000000
    40  O2    s     0.373481    0.609277    0.492943    0.000000
    41  O3    s     0.252492    0.509098    0.269263    0.000000
    42  O1    s     0.737001    0.475168    0.732374    0.000000
    43  O3    s     0.499218    0.312025    0.317478    0.000000
    44  O1    s     0.548874    0.200753    0.712333    0.000000
    45  O3    s     0.496358    0.675602    0.727332    0.000000
    46  O3    s     0.455731    0.742822    0.306687    0.000000
    47  O1    s     0.209948    0.167085    0.196534    0.000000
    48  O1    s     0.863866    0.139718    0.815087    0.000000
    49  O1    s     0.791625    0.800821    0.835253    0.000000
    50  O3    s     0.192665    0.824850    0.295834    0.000000
    51  O3    s     0.316022    0.424360    0.674917    0.000000
    52  O3    s     0.706101    0.523782    0.403967    0.000000
    53  O1    s     0.263030    0.068069    0.697055    0.000000
    54  O3    s     0.765680    0.230485    0.321198    0.000000
    55  O1    s     0.743887    0.873870    0.328208    0.000000
    56  O3    s     0.208338    0.735989    0.620301    0.000000
    57  O1    s     0.012078    0.019458    0.481464    0.000000
    58  O1    s     0.938005    0.040319    0.204715    0.000000
    59  O1    s     0.022962    0.884132    0.742180    0.000000
    60  O1    s     0.060257    0.924503    0.018597    0.000000
--------------------------------------------------------------------------------

  Final Cartesian lattice vectors (Angstroms) :

        9.367487   -0.008206   -0.019766
       -0.014857    7.794740    0.368185
       -3.405622    0.487866    9.706439


  Final cell parameters and derivatives :

--------------------------------------------------------------------------------
       a            9.367512 Angstrom     dE/de1(xx)     0.008364 eV/strain
       b            7.803444 Angstrom     dE/de2(yy)     0.004400 eV/strain
       c           10.298118 Angstrom     dE/de3(zz)     0.007260 eV/strain
       alpha       84.697009 Degrees      dE/de4(yz)    -0.000400 eV/strain
       beta       109.434731 Degrees      dE/de5(xz)    -0.000043 eV/strain
       gamma       90.164925 Degrees      dE/de6(xy)    -0.000851 eV/strain
--------------------------------------------------------------------------------

  Primitive cell volume =           706.538131 Angs**3

  Density of cell =      2.636455 g/cm**3

  Non-primitive cell volume =           706.538131 Angs**3


  Final internal derivatives :

--------------------------------------------------------------------------------
   No.  Atomic          a             b             c           Radius
        Label          (eV)          (eV)          (eV)        (eV/Angs)
--------------------------------------------------------------------------------
      1 Ge    c       0.000000      0.000000      0.000000      0.000000
      2 Ge    c       0.000780      0.002721      0.003703      0.000000
      3 Ge    c      -0.000051      0.001790     -0.001110      0.000000
      4 Ge    c      -0.004671     -0.000495      0.002660      0.000000
      5 Ge    c      -0.000987     -0.000476      0.002135      0.000000
      6 Ge    c       0.000014     -0.001370     -0.000362      0.000000
      7 Ge    c       0.001784      0.000065     -0.000485      0.000000
      8 Ge    c       0.000758     -0.000117      0.000388      0.000000
      9 Ge    c      -0.001437     -0.000956      0.000427      0.000000
     10 Si    c       0.001392      0.000068     -0.001200      0.000000
     11 Si    c       0.000663      0.004959     -0.000373      0.000000
     12 Si    c       0.000616      0.000602     -0.001583      0.000000
     13 O1    c      -0.004446     -0.002212     -0.000381      0.000000
     14 O3    c       0.004345     -0.004288     -0.005700      0.000000
     15 O1    c       0.000495     -0.000598     -0.003282      0.000000
     16 O2    c       0.000832     -0.000827      0.000741      0.000000
     17 O3    c      -0.000790      0.005507      0.000963      0.000000
     18 O1    c       0.002636     -0.005481     -0.001703      0.000000
     19 O3    c       0.008717     -0.000232     -0.004622      0.000000
     20 O1    c       0.003496     -0.004810      0.002614      0.000000
     21 O3    c      -0.001876      0.000095      0.001394      0.000000
     22 O3    c      -0.003990     -0.002331      0.001897      0.000000
     23 O1    c       0.000736      0.000385      0.000093      0.000000
     24 O1    c       0.000818      0.000568      0.001214      0.000000
     25 O1    c       0.000968      0.001306      0.001099      0.000000
     26 O3    c       0.001617      0.000285     -0.000087      0.000000
     27 O3    c      -0.001792      0.002592      0.002995      0.000000
     28 O3    c      -0.000223     -0.005195      0.001348      0.000000
     29 O1    c       0.000374      0.000017      0.000229      0.000000
     30 O3    c       0.000276      0.000500     -0.001755      0.000000
     31 O1    c       0.000732      0.000373     -0.001136      0.000000
     32 O3    c       0.000085     -0.000258     -0.000370      0.000000
     33 O1    c       0.000664      0.000416     -0.000415      0.000000
     34 O1    c      -0.001376      0.000123      0.000737      0.000000
     35 O1    c      -0.000385     -0.001382     -0.000030      0.000000
     36 O1    c       0.000583     -0.000052      0.000640      0.000000
     37 O1    s      -0.000141     -0.001794      0.000959      0.000000
     38 O3    s       0.000807      0.001521      0.001274      0.000000
     39 O1    s      -0.000040      0.001473      0.001161      0.000000
     40 O2    s      -0.001246      0.001532     -0.000453      0.000000
     41 O3    s      -0.001174      0.000344     -0.002181      0.000000
     42 O1    s      -0.000360      0.003501      0.002415      0.000000
     43 O3    s      -0.001655     -0.000418     -0.001643      0.000000
     44 O1    s      -0.002648      0.001100      0.000792      0.000000
     45 O3    s      -0.000518      0.000579      0.000776      0.000000
     46 O3    s       0.000858      0.001117     -0.001122      0.000000
     47 O1    s      -0.001738     -0.000967     -0.001342      0.000000
     48 O1    s       0.000797      0.000118      0.001194      0.000000
     49 O1    s      -0.000474     -0.000461      0.000176      0.000000
     50 O3    s       0.000744     -0.001005     -0.000484      0.000000
     51 O3    s      -0.000745      0.000344      0.001560      0.000000
     52 O3    s       0.000865      0.002240     -0.001304      0.000000
     53 O1    s      -0.001610     -0.000524      0.000616      0.000000
     54 O3    s       0.001215      0.000889     -0.001471      0.000000
     55 O1    s      -0.000237     -0.000576      0.000067      0.000000
     56 O3    s       0.000042     -0.000184     -0.000049      0.000000
     57 O1    s      -0.000585      0.000591      0.000749      0.000000
     58 O1    s       0.000715      0.000096     -0.000618      0.000000
     59 O1    s       0.000577      0.000427     -0.000324      0.000000
     60 O1    s       0.000002     -0.000271     -0.000032      0.000000
--------------------------------------------------------------------------------
  Maximum abs         0.008717      0.005507      0.005700      0.000000
--------------------------------------------------------------------------------


  Born effective charge tensors : 

-------------------------------------------------------------------------------
  Atom             x           y             z
-------------------------------------------------------------------------------
    1 Ge    x       3.7029      0.4303      0.1644
            y       0.2169      4.2386      0.2997
            z       0.1709      0.2699      3.6280
-------------------------------------------------------------------------------
    2 Ge    x       3.8993     -0.1782      0.1972
            y      -0.2899      4.2062     -0.2828
            z       0.3646     -0.0760      3.6119
-------------------------------------------------------------------------------
    3 Ge    x       3.8213      0.3367      0.2702
            y       0.1432      4.1741      0.3463
            z       0.3379      0.1572      3.6838
-------------------------------------------------------------------------------
    4 Ge    x       4.0140      0.4058      0.0162
            y       0.2712      4.1922     -0.0169
            z       0.0951      0.0057      3.4270
-------------------------------------------------------------------------------
    5 Ge    x       4.0558      0.4311     -0.0649
            y       0.3086      4.0989     -0.1469
            z      -0.1460      0.0993      3.3937
-------------------------------------------------------------------------------
    6 Ge    x       4.5992     -0.0460     -0.1021
            y       0.0118      3.9666      0.0615
            z      -0.2458      0.1098      3.6937
-------------------------------------------------------------------------------
    7 Ge    x       4.5002     -0.1084     -0.0214
            y       0.1101      3.9784      0.1922
            z      -0.3593     -0.2649      3.6481
-------------------------------------------------------------------------------
    8 Ge    x       4.0324     -0.0691      0.3407
            y       0.1463      3.9826     -0.1298
            z      -0.1191      0.5624      4.4144
-------------------------------------------------------------------------------
    9 Ge    x       4.0350     -0.2634     -0.0999
            y       0.2065      3.9318      0.1300
            z       0.4928      0.0979      4.6556
-------------------------------------------------------------------------------
   10 Si    x       3.5111     -0.1875     -0.0149
            y      -0.2468      3.9199      0.1327
            z       0.4368     -0.2263      2.8519
-------------------------------------------------------------------------------
   11 Si    x       3.7982     -0.2937     -0.0613
            y      -0.3297      3.9173      0.3229
            z      -0.0247     -0.0197      3.1754
-------------------------------------------------------------------------------
   12 Si    x       3.7176     -0.1872      0.3299
            y      -0.2589      3.8573     -0.1421
            z      -0.0530      0.1367      2.8276
-------------------------------------------------------------------------------
   13 O1    x      -1.4533     -0.2075      0.3432
            y      -0.1705     -1.5750      0.1011
            z       0.2821      0.1323     -2.6134
-------------------------------------------------------------------------------
   14 O3    x      -1.3580      0.0938      0.2745
            y       0.0863     -1.5150      0.2354
            z       0.2376      0.2190     -2.4382
-------------------------------------------------------------------------------
   15 O1    x      -1.4808     -0.1719      0.2814
            y      -0.1207     -1.5907     -0.0036
            z       0.2977      0.0278     -2.5599
-------------------------------------------------------------------------------
   16 O2    x      -1.3618      0.0531      0.1896
            y       0.0943     -1.3465      0.0763
            z       0.1669      0.1124     -1.9174
-------------------------------------------------------------------------------
   17 O3    x      -1.2615      0.0229     -0.1153
            y       0.0102     -2.8304     -0.2866
            z      -0.1913     -0.2525     -1.3878
-------------------------------------------------------------------------------
   18 O1    x      -1.3807      0.2198     -0.0670
            y       0.2899     -3.2889     -0.1581
            z      -0.1018     -0.1243     -1.3124
-------------------------------------------------------------------------------
   19 O3    x      -2.8277     -0.1298     -0.4468
            y      -0.0322     -1.3647     -0.0995
            z      -0.4627     -0.0787     -1.3319
-------------------------------------------------------------------------------
   20 O1    x      -2.9899     -0.1725     -0.3672
            y      -0.1009     -1.4982      0.0709
            z      -0.3962      0.0271     -1.3719
-------------------------------------------------------------------------------
   21 O3    x      -2.5256     -0.2739     -0.4328
            y      -0.2204     -1.3820     -0.1918
            z      -0.4513     -0.2282     -1.5063
-------------------------------------------------------------------------------
   22 O3    x      -2.6799     -0.2935     -0.2198
            y      -0.2171     -1.4021      0.0747
            z      -0.2259      0.0878     -1.3292
-------------------------------------------------------------------------------
   23 O1    x      -1.7815     -0.7992     -0.4778
            y      -0.7956     -2.5397     -0.6568
            z      -0.4539     -0.7673     -1.8899
-------------------------------------------------------------------------------
   24 O1    x      -1.7889      0.7527     -0.4543
            y       0.7143     -2.5151      0.6188
            z      -0.5590      0.6243     -1.8719
-------------------------------------------------------------------------------
   25 O1    x      -2.0703     -0.7653     -0.4854
            y      -0.8488     -2.1672     -0.6327
            z      -0.5983     -0.6161     -1.9433
-------------------------------------------------------------------------------
   26 O3    x      -1.7567      0.8211     -0.3627
            y       0.7582     -2.3624      0.5627
            z      -0.3654      0.5751     -1.5935
-------------------------------------------------------------------------------
   27 O3    x      -1.3511     -0.0575      0.0907
            y      -0.0302     -2.9608      0.0384
            z       0.1445      0.0333     -1.2012
-------------------------------------------------------------------------------
   28 O3    x      -1.3936      0.0427     -0.0032
            y       0.0990     -3.0846     -0.1736
            z       0.0211     -0.1262     -1.1237
-------------------------------------------------------------------------------
   29 O1    x      -2.3058     -0.9964     -0.0283
            y      -1.0155     -2.4202     -0.0629
            z       0.0439      0.0168     -1.3838
-------------------------------------------------------------------------------
   30 O3    x      -2.1903      0.9491      0.4176
            y       0.8818     -2.2201     -0.3258
            z       0.3812     -0.2652     -1.3633
-------------------------------------------------------------------------------
   31 O1    x      -2.4404     -1.1060      0.2678
            y      -1.0826     -2.4774      0.2399
            z       0.2618      0.1687     -1.3305
-------------------------------------------------------------------------------
   32 O3    x      -2.2771      1.0675      0.0008
            y       0.9971     -2.3547     -0.0518
            z       0.1501     -0.1103     -1.1392
-------------------------------------------------------------------------------
   33 O1    x      -1.9829      0.2318     -0.8415
            y       0.1342     -1.4538      0.2762
            z      -0.5588      0.3382     -2.5076
-------------------------------------------------------------------------------
   34 O1    x      -2.9088      0.2949      0.7425
            y       0.2346     -1.3449     -0.0445
            z       0.8267     -0.1453     -2.0164
-------------------------------------------------------------------------------
   35 O1    x      -2.7100      0.0885      1.0922
            y       0.0355     -1.3778     -0.1360
            z       0.9725     -0.0539     -2.1777
-------------------------------------------------------------------------------
   36 O1    x      -1.4102      0.0652     -0.3527
            y       0.0098     -1.3919     -0.2374
            z      -0.3717     -0.4469     -3.7006
-------------------------------------------------------------------------------




  Elastic Constant Matrix: (Units=GPa)

-------------------------------------------------------------------------------
  Indices      1         2         3         4         5         6    
-------------------------------------------------------------------------------
       1     38.0470   23.3477   10.2688    3.5940    1.1492  -11.6271
       2     23.3477   58.3104    9.7487    7.0791    5.2064   -6.9498
       3     10.2688    9.7487   22.0812    7.3202    5.2554    3.1689
       4      3.5940    7.0791    7.3202   10.3252    3.1311    2.9649
       5      1.1492    5.2064    5.2554    3.1311    7.8560    5.2759
       6    -11.6271   -6.9498    3.1689    2.9649    5.2759   17.7183
-------------------------------------------------------------------------------


  Elastic Compliance Matrix: (Units=1/GPa)

-------------------------------------------------------------------------------
  Indices      1         2         3         4         5         6    
-------------------------------------------------------------------------------
       1    0.049902 -0.011334 -0.020291 -0.002629 -0.008631  0.034940
       2   -0.011334  0.025744  0.000543 -0.011517 -0.017739  0.009772
       3   -0.020291  0.000543  0.073459 -0.034306 -0.023864 -0.013394
       4   -0.002629 -0.011517 -0.034306  0.139083 -0.010957 -0.020118
       5   -0.008631 -0.017739 -0.023864 -0.010957  0.206269 -0.067940
       6    0.034940  0.009772 -0.013394 -0.020118 -0.067940  0.109193
-------------------------------------------------------------------------------

  Mechanical properties :

-------------------------------------------------------------------------------
  Convention :                    Reuss         Voigt         Hill
-------------------------------------------------------------------------------
  Bulk  Modulus (GPa)     =      11.50233      22.79653      17.14943
  Shear Modulus (GPa)     =       7.19637      12.18478       9.69058
-------------------------------------------------------------------------------
  Velocity S-wave (km/s)  =       1.65214       2.14980       1.91719
  Velocity P-wave (km/s)  =       2.82882       3.84823       3.37721
-------------------------------------------------------------------------------
  Compressibility (1/GPa) =    0.08693893
-------------------------------------------------------------------------------
  Stress axis :                     x             y             z
-------------------------------------------------------------------------------
  Youngs Moduli (GPa)     =      20.03940      38.84417      13.61300
-------------------------------------------------------------------------------
  Poissons Ratio (x)      =                     0.44027       0.27622
  Poissons Ratio (y)      =       0.22713                    -0.00739
  Poissons Ratio (z)      =       0.40662      -0.02108
-------------------------------------------------------------------------------


  Piezoelectric Strain Matrix: (Units=C/m**2)

-------------------------------------------------------------------------------
  Indices      1         2         3         4         5         6    
-------------------------------------------------------------------------------
       x    -0.85130  -0.43142   0.74257   0.18965  -0.14856   0.23122
       y     0.61441  -0.03285  -0.08057   0.07761   0.36741  -0.24512
       z    -0.88341  -0.15998  -0.96542  -0.98435   1.46080  -0.49494
-------------------------------------------------------------------------------


  Piezoelectric Stress Matrix: (Units=10**-11 C/N)

-------------------------------------------------------------------------------
  Indices      1         2         3         4         5         6    
-------------------------------------------------------------------------------
       x    -4.37970   0.16562   6.55309   0.50845  -5.11507  -1.23811
       y     2.07279  -1.76601  -2.65513   1.32278   8.87912  -3.10633
       z    -4.99948  -1.40428  -4.75427 -10.56705  37.92317 -15.29870
-------------------------------------------------------------------------------


  Static dielectric constant tensor : 

-------------------------------------------------------------------------------
              x         y         z
-------------------------------------------------------------------------------
       x     5.56575   0.14669   0.14190
       y     0.14669   5.65425   0.33091
       z     0.14190   0.33091   4.43674
--------------------------------------------------------------------------------

  High frequency dielectric constant tensor : 

-------------------------------------------------------------------------------
              x         y         z
-------------------------------------------------------------------------------
       x     1.55758  -0.00319   0.00772
       y    -0.00319   1.56718   0.00661
       z     0.00772   0.00661   1.51228
-------------------------------------------------------------------------------

  Static refractive indices : 

-------------------------------------------------------------------------------
    1 =    2.08424      2 =    2.33701      3 =    2.41890
-------------------------------------------------------------------------------

  High frequency refractive indices : 

-------------------------------------------------------------------------------
    1 =    1.22888      2 =    1.24837      3 =    1.25239
-------------------------------------------------------------------------------


  Time to end of optimisation =       3.0903 seconds


  Peak dynamic memory used =       2.76 MB 


  Timing analysis for GULP :

--------------------------------------------------------------------------------
  Task / Subroutine                                          Time (Seconds)
--------------------------------------------------------------------------------
  Calculation of reciprocal space energy and derivatives          0.1766
  Calculation of real space energy and derivatives                2.5849
  Calculation of three-body energy and derivatives                0.0275
  Calculation and manipulation of Hessian matrix                  0.3622
  Calculation of matrix inversion                                 0.0022
  Global summation overhead                                       0.0001
--------------------------------------------------------------------------------
  Total CPU time                                                  3.0903
--------------------------------------------------------------------------------


  Dump file written as c00037.vasp.grs
  CIF file written as c00037.vasp.cif


  Job Finished at 11:25.47 22nd October    2025                               

