********************************************************************************
*                       GENERAL UTILITY LATTICE PROGRAM                        *
*                                 Julian Gale                                  *
*                       Curtin Institute for Computation                       *
*                    School of Molecular and Life Sciences                     *
*                    Curtin University, Western Australia                      *
********************************************************************************
* Version = 6.1.2 * Last modified =   3rd November 2022                        *
********************************************************************************
*  optimise     - perform optimisation run                                     *
*  conp         - constant pressure calculation                                *
*  property     - calculate properties for final geometry                      *
********************************************************************************

  Job Started  at 11:26.24 22nd October    2025                               

  Number of CPUs =     1


  Total number of configurations input =      1

********************************************************************************
*  Input for Configuration =   1 : c00049.vasp                                 *
********************************************************************************

  Formula = Ge9Si3O24                                                   

  Number of irreducible atoms/shells =      60


  Total number atoms/shells =      60

  Dimensionality = 3               :  Bulk   



  Cartesian lattice vectors (Angstroms) :

        9.086940    0.000000    0.000000
        0.000000    7.554810    0.000000
       -3.295144    0.000000    9.944380

  Cell parameters (Angstroms/Degrees):

  a =       9.0869    alpha =  90.0000
  b =       7.5548    beta  = 108.3330
  c =      10.4761    gamma =  90.0000

  Initial cell volume =         682.682735 Angs**3

  Temperature of configuration =   0.00     K 

  Pressure of configuration =         0.000 GPa 

  Fractional coordinates of asymmetric unit :

--------------------------------------------------------------------------------
   No.  Atomic       x           y          z         Charge      Occupancy
        Label      (Frac)      (Frac)     (Frac)        (e)         (Frac)  
--------------------------------------------------------------------------------
      1 Ge    c    0.313820    0.296860    0.309830     4.00000    1.000000    
      2 Ge    c    0.686180 *  0.296860 *  0.690170 *   4.00000    1.000000    
      3 Ge    c    0.331050 *  0.296920 *  0.607380 *   4.00000    1.000000    
      4 Ge    c    0.668950 *  0.703080 *  0.392620 *   4.00000    1.000000    
      5 Ge    c    0.331050 *  0.703080 *  0.607380 *   4.00000    1.000000    
      6 Ge    c    0.879680 *  0.000000 *  0.350160 *   4.00000    1.000000    
      7 Ge    c    0.120320 *  0.000000 *  0.649840 *   4.00000    1.000000    
      8 Ge    c    0.093070 *  0.000000 *  0.158230 *   4.00000    1.000000    
      9 Ge    c    0.906930 *  0.000000 *  0.841770 *   4.00000    1.000000    
     10 Si    c    0.686180 *  0.703140 *  0.690170 *   4.00000    1.000000    
     11 Si    c    0.313820 *  0.703140 *  0.309830 *   4.00000    1.000000    
     12 Si    c    0.668950 *  0.296920 *  0.392620 *   4.00000    1.000000    
     13 O1    c    0.268740 *  0.279030 *  0.446100 *   1.73396    1.000000    
     14 O3    c    0.731260 *  0.279030 *  0.553900 *   1.33043    1.000000    
     15 O3    c    0.731260 *  0.720970 *  0.553900 *   1.33043    1.000000    
     16 O3    c    0.268740 *  0.720970 *  0.446100 *   1.33043    1.000000    
     17 O3    c    0.295480 *  0.500000 *  0.260860 *   1.33043    1.000000    
     18 O3    c    0.704520 *  0.500000 *  0.739140 *   1.33043    1.000000    
     19 O3    c    0.490600 *  0.234690 *  0.337530 *   1.33043    1.000000    
     20 O1    c    0.509400 *  0.234690 *  0.662470 *   1.73396    1.000000    
     21 O3    c    0.509400 *  0.765310 *  0.662470 *   1.33043    1.000000    
     22 O3    c    0.490600 *  0.765310 *  0.337530 *   1.33043    1.000000    
     23 O1    c    0.200440 *  0.174000 *  0.194980 *   1.73396    1.000000    
     24 O1    c    0.799560 *  0.174000 *  0.805020 *   1.73396    1.000000    
     25 O3    c    0.799560 *  0.826000 *  0.805020 *   1.33043    1.000000    
     26 O3    c    0.200440 *  0.826000 *  0.194980 *   1.33043    1.000000    
     27 O1    c    0.317860 *  0.500000 *  0.649090 *   1.73396    1.000000    
     28 O3    c    0.682140 *  0.500000 *  0.350910 *   1.33043    1.000000    
     29 O1    c    0.227920 *  0.173870 *  0.671620 *   1.73396    1.000000    
     30 O3    c    0.772080 *  0.173870 *  0.328380 *   1.33043    1.000000    
     31 O1    c    0.772080 *  0.826130 *  0.328380 *   1.73396    1.000000    
     32 O1    c    0.227920 *  0.826130 *  0.671620 *   1.73396    1.000000    
     33 O1    c    0.000000 *  0.000000 *  0.500000 *   1.73396    1.000000    
     34 O1    c    0.971960 *  0.000000 *  0.241930 *   1.73396    1.000000    
     35 O1    c    0.028040 *  0.000000 *  0.758070 *   1.73396    1.000000    
     36 O1    c    0.000000 *  0.000000 *  0.000000 *   1.73396    1.000000    
     37 O1    s    0.268740 *  0.279030 *  0.446100 *  -3.73396    1.000000    
     38 O3    s    0.731260 *  0.279030 *  0.553900 *  -3.33043    1.000000    
     39 O3    s    0.731260 *  0.720970 *  0.553900 *  -3.33043    1.000000    
     40 O3    s    0.268740 *  0.720970 *  0.446100 *  -3.33043    1.000000    
     41 O3    s    0.295480 *  0.500000 *  0.260860 *  -3.33043    1.000000    
     42 O3    s    0.704520 *  0.500000 *  0.739140 *  -3.33043    1.000000    
     43 O3    s    0.490600 *  0.234690 *  0.337530 *  -3.33043    1.000000    
     44 O1    s    0.509400 *  0.234690 *  0.662470 *  -3.73396    1.000000    
     45 O3    s    0.509400 *  0.765310 *  0.662470 *  -3.33043    1.000000    
     46 O3    s    0.490600 *  0.765310 *  0.337530 *  -3.33043    1.000000    
     47 O1    s    0.200440 *  0.174000 *  0.194980 *  -3.73396    1.000000    
     48 O1    s    0.799560 *  0.174000 *  0.805020 *  -3.73396    1.000000    
     49 O3    s    0.799560 *  0.826000 *  0.805020 *  -3.33043    1.000000    
     50 O3    s    0.200440 *  0.826000 *  0.194980 *  -3.33043    1.000000    
     51 O1    s    0.317860 *  0.500000 *  0.649090 *  -3.73396    1.000000    
     52 O3    s    0.682140 *  0.500000 *  0.350910 *  -3.33043    1.000000    
     53 O1    s    0.227920 *  0.173870 *  0.671620 *  -3.73396    1.000000    
     54 O3    s    0.772080 *  0.173870 *  0.328380 *  -3.33043    1.000000    
     55 O1    s    0.772080 *  0.826130 *  0.328380 *  -3.73396    1.000000    
     56 O1    s    0.227920 *  0.826130 *  0.671620 *  -3.73396    1.000000    
     57 O1    s    0.000000 *  0.000000 *  0.500000 *  -3.73396    1.000000    
     58 O1    s    0.971960 *  0.000000 *  0.241930 *  -3.73396    1.000000    
     59 O1    s    0.028040 *  0.000000 *  0.758070 *  -3.73396    1.000000    
     60 O1    s    0.000000 *  0.000000 *  0.000000 *  -3.73396    1.000000    
--------------------------------------------------------------------------------



********************************************************************************
*  General input information                                                   *
********************************************************************************

  Species output for all configurations : 

--------------------------------------------------------------------------------
  Species    Type    Atomic    Atomic    Charge       Radii (Angs)     Library
                     Number     Mass       (e)     Cova   Ionic  VDW   Symbol
--------------------------------------------------------------------------------
    Ge       Core       32      72.61   4.000000   1.170  0.000  1.750 Ge       
    Si       Core       14      28.09   4.000000   1.200  0.000  2.100 Si       
    O1       Core        8      16.00   1.733957   0.730  0.000  1.360 O1       
    O2       Core        8      16.00   0.870733   0.730  0.000  0.000 O2       
    O3       Core        8      16.00   1.330431   0.730  0.000  1.360 O3       
    O1       Shell       8       0.00  -3.733957   0.730  0.000  0.000 O1       
    O2       Shell       8       0.00  -2.870733   0.730  0.000  0.000 O2       
    O3       Shell       8       0.00  -3.330431   0.730  0.000  0.000 O3       
--------------------------------------------------------------------------------


  Lattice summation method               =    Ewald          (3-D)
                                         =    Parry          (2-D)
                                         =    Saunders et al (1-D)
  Accuracy factor for lattice sums       =   12.000


  Analytic derivatives to be used

  Time limit = Infinity

  Maximum range for interatomic potentials =    100000.000000 Angstroms

  General interatomic potentials :

--------------------------------------------------------------------------------
Atom  Types   Potential      Parameter       Value         Units   Cutoffs(Ang)
  1     2                                                            Min /  Max 
--------------------------------------------------------------------------------
Si   c O1   s Buckingham    Buckingham A     1315.2478    eV        0.000 16.000
                            Buckingham rho  0.31775900    Ang       
                            Buckingham C     10.141118    eV*Ang^6  
--------------------------------------------------------------------------------
Si   c O2   s Buckingham    Buckingham A     1315.2478    eV        0.000 16.000
                            Buckingham rho  0.31775900    Ang       
                            Buckingham C     10.141118    eV*Ang^6  
--------------------------------------------------------------------------------
Si   c O3   s Buckingham    Buckingham A     1315.2478    eV        0.000 16.000
                            Buckingham rho  0.31775900    Ang       
                            Buckingham C     10.141118    eV*Ang^6  
--------------------------------------------------------------------------------
Ge   c O1   s Buckingham    Buckingham A     1497.3996    eV        0.000 16.000
                            Buckingham rho  0.32564600    Ang       
                            Buckingham C     16.808599    eV*Ang^6  
--------------------------------------------------------------------------------
Ge   c O2   s Buckingham    Buckingham A     1497.3996    eV        0.000 16.000
                            Buckingham rho  0.32564600    Ang       
                            Buckingham C     16.808599    eV*Ang^6  
--------------------------------------------------------------------------------
Ge   c O3   s Buckingham    Buckingham A     1497.3996    eV        0.000 16.000
                            Buckingham rho  0.32564600    Ang       
                            Buckingham C     16.808599    eV*Ang^6  
--------------------------------------------------------------------------------
O1   s O1   s Buckingham    Buckingham A     22764.000    eV        0.000 16.000
                            Buckingham rho  0.14900000    Ang       
                            Buckingham C     10.937044    eV*Ang^6  
--------------------------------------------------------------------------------
O1   s O2   s Buckingham    Buckingham A     22764.000    eV        0.000 16.000
                            Buckingham rho  0.14900000    Ang       
                            Buckingham C     10.937044    eV*Ang^6  
--------------------------------------------------------------------------------
O1   s O3   s Buckingham    Buckingham A     22764.000    eV        0.000 16.000
                            Buckingham rho  0.14900000    Ang       
                            Buckingham C     10.937044    eV*Ang^6  
--------------------------------------------------------------------------------
O2   s O2   s Buckingham    Buckingham A     22764.000    eV        0.000 16.000
                            Buckingham rho  0.14900000    Ang       
                            Buckingham C     10.937044    eV*Ang^6  
--------------------------------------------------------------------------------
O2   s O3   s Buckingham    Buckingham A     22764.000    eV        0.000 16.000
                            Buckingham rho  0.14900000    Ang       
                            Buckingham C     10.937044    eV*Ang^6  
--------------------------------------------------------------------------------
O3   s O3   s Buckingham    Buckingham A     22764.000    eV        0.000 16.000
                            Buckingham rho  0.14900000    Ang       
                            Buckingham C     10.937044    eV*Ang^6  
--------------------------------------------------------------------------------
O1   c O1   s Spring (c-s)  Spring k 2       180.31577    eV*Ang^-2 0.000  0.800
                            Spring k 4       0.0000000    eV*Ang^-4 
--------------------------------------------------------------------------------
O2   c O2   s Spring (c-s)  Spring k 2       75.969800    eV*Ang^-2 0.000  0.800
                            Spring k 4       0.0000000    eV*Ang^-4 
--------------------------------------------------------------------------------
O3   c O3   s Spring (c-s)  Spring k 2       128.14270    eV*Ang^-2 0.000  0.800
                            Spring k 4       0.0000000    eV*Ang^-4 
--------------------------------------------------------------------------------

  General Three-body potentials :

--------------------------------------------------------------------------------
  Atoms       Potential      Parameter       Value         Units   Cutoffs(Ang)
  1 / 2 / 3                                                          Min /  Max 
--------------------------------------------------------------------------------
Si    core    Harmonic      Three-body cnst  1.2614000    eV*rad^-2 0.000  1.900
O1    shel                  Three-body angl  109.47000    degrees   0.000  1.900
O1    shel                  Three-body k4    0.0000000    eV*rad^-4 0.000  3.500
                            Three-body k3    0.0000000    eV*rad^-3 
--------------------------------------------------------------------------------
Si    core    Harmonic      Three-body cnst  1.2614000    eV*rad^-2 0.000  1.900
O1    shel                  Three-body angl  109.47000    degrees   0.000  1.900
õ(1   shel                  Three-body k4    0.0000000    eV*rad^-4 0.000  3.500
                            Three-body k3    0.0000000    eV*rad^-3 
--------------------------------------------------------------------------------
Si    core    Harmonic      Three-body cnst  1.2614000    eV*rad^-2 0.000  1.900
õ(1   shel                  Three-body angl  109.47000    degrees   0.000  1.900
õ(1   shel                  Three-body k4    0.0000000    eV*rad^-4 0.000  3.500
                            Three-body k3    0.0000000    eV*rad^-3 
--------------------------------------------------------------------------------
Si    core    Harmonic      Three-body cnst  1.2614000    eV*rad^-2 0.000  1.900
O1    shel                  Three-body angl  109.47000    degrees   0.000  1.900
O2    shel                  Three-body k4    0.0000000    eV*rad^-4 0.000  3.500
                            Three-body k3    0.0000000    eV*rad^-3 
--------------------------------------------------------------------------------
Si    core    Harmonic      Three-body cnst  1.2614000    eV*rad^-2 0.000  1.900
O1    shel                  Three-body angl  109.47000    degrees   0.000  1.900
õ(2   shel                  Three-body k4    0.0000000    eV*rad^-4 0.000  3.500
                            Three-body k3    0.0000000    eV*rad^-3 
--------------------------------------------------------------------------------
Si    core    Harmonic      Three-body cnst  1.2614000    eV*rad^-2 0.000  1.900
O2    shel                  Three-body angl  109.47000    degrees   0.000  1.900
õ(1   shel                  Three-body k4    0.0000000    eV*rad^-4 0.000  3.500
                            Three-body k3    0.0000000    eV*rad^-3 
--------------------------------------------------------------------------------
Si    core    Harmonic      Three-body cnst  1.2614000    eV*rad^-2 0.000  1.900
õ(1   shel                  Three-body angl  109.47000    degrees   0.000  1.900
õ(2   shel                  Three-body k4    0.0000000    eV*rad^-4 0.000  3.500
                            Three-body k3    0.0000000    eV*rad^-3 
--------------------------------------------------------------------------------
Si    core    Harmonic      Three-body cnst  1.2614000    eV*rad^-2 0.000  1.900
O2    shel                  Three-body angl  109.47000    degrees   0.000  1.900
O2    shel                  Three-body k4    0.0000000    eV*rad^-4 0.000  3.500
                            Three-body k3    0.0000000    eV*rad^-3 
--------------------------------------------------------------------------------
Si    core    Harmonic      Three-body cnst  1.2614000    eV*rad^-2 0.000  1.900
O2    shel                  Three-body angl  109.47000    degrees   0.000  1.900
õ(2   shel                  Three-body k4    0.0000000    eV*rad^-4 0.000  3.500
                            Three-body k3    0.0000000    eV*rad^-3 
--------------------------------------------------------------------------------
Si    core    Harmonic      Three-body cnst  1.2614000    eV*rad^-2 0.000  1.900
õ(2   shel                  Three-body angl  109.47000    degrees   0.000  1.900
õ(2   shel                  Three-body k4    0.0000000    eV*rad^-4 0.000  3.500
                            Three-body k3    0.0000000    eV*rad^-3 
--------------------------------------------------------------------------------

********************************************************************************
*  Output for configuration   1 : c00049.vasp                                  *
********************************************************************************


  Components of energy : 

--------------------------------------------------------------------------------
  Interatomic potentials     =         440.40625103 eV    
  Three-body potentials      =           0.00000000 eV    
  Monopole - monopole (real) =       -1236.99964305 eV    
  Monopole - monopole (recip)=        -659.26603192 eV    
  Monopole - monopole (total)=       -1896.26567496 eV    
--------------------------------------------------------------------------------
  Total lattice energy       =       -1455.85942394 eV    
--------------------------------------------------------------------------------
  Total lattice energy       =         -140468.1796 kJ/(mole unit cells)
--------------------------------------------------------------------------------


  Number of variables =      183

  Maximum number of calculations  =          1000
  Maximum Hessian update interval =            10
  Maximum step size               =   0.100000000
  Maximum parameter tolerance     =   0.000010000
  Maximum function  tolerance     =   0.000010000
  Maximum gradient  tolerance     =   0.001000000
  Maximum gradient  component     =   0.010000000

  Symmetry not applied to optimisation

  Cell parameters to be optimised using strains

  Newton-Raphson optimiser to be used

  BFGS hessian update to be used

  Lower half triangular hessian to be used

  Minimiser to switch to RFO
  When gradient norm is less than     0.050000

  Dumpfile to be written after every cycle

  Start of bulk optimisation :

  Cycle:      0 Energy:     -1455.859424  Gnorm:      6.467299  CPU:    0.031
  ** Hessian calculated **
  Cycle:      1 Energy:     -1475.774778  Gnorm:      1.756825  CPU:    0.065
  ** Hessian calculated **
  Cycle:      2 Energy:     -1477.664340  Gnorm:      1.347273  CPU:    0.128
  ** Hessian calculated **
  Cycle:      3 Energy:     -1479.031313  Gnorm:      0.679039  CPU:    0.184
  Cycle:      4 Energy:     -1479.457559  Gnorm:      0.373839  CPU:    0.218
  Cycle:      5 Energy:     -1479.731248  Gnorm:      0.308748  CPU:    0.259
  Cycle:      6 Energy:     -1480.065510  Gnorm:      0.264562  CPU:    0.300
  Cycle:      7 Energy:     -1480.291279  Gnorm:      0.228651  CPU:    0.334
  Cycle:      8 Energy:     -1480.401984  Gnorm:      0.177769  CPU:    0.369
  Cycle:      9 Energy:     -1480.449786  Gnorm:      0.120915  CPU:    0.403
  Cycle:     10 Energy:     -1480.479022  Gnorm:      0.111776  CPU:    0.438
  Cycle:     11 Energy:     -1480.513788  Gnorm:      0.109925  CPU:    0.478
  Cycle:     12 Energy:     -1480.551455  Gnorm:      0.117706  CPU:    0.519
  ** Hessian calculated **
  Cycle:     13 Energy:     -1480.564824  Gnorm:      0.097095  CPU:    0.581
  Cycle:     14 Energy:     -1480.583123  Gnorm:      0.086672  CPU:    0.622
  Cycle:     15 Energy:     -1480.608422  Gnorm:      0.082974  CPU:    0.663
  Cycle:     16 Energy:     -1480.637132  Gnorm:      0.091537  CPU:    0.704
  Cycle:     17 Energy:     -1480.658503  Gnorm:      0.085060  CPU:    0.738
  Cycle:     18 Energy:     -1480.674241  Gnorm:      0.084366  CPU:    0.773
  Cycle:     19 Energy:     -1480.693554  Gnorm:      0.090092  CPU:    0.813
  Cycle:     20 Energy:     -1480.718792  Gnorm:      0.097507  CPU:    0.855
  Cycle:     21 Energy:     -1480.753651  Gnorm:      0.110414  CPU:    0.895
  Cycle:     22 Energy:     -1480.797683  Gnorm:      0.115080  CPU:    0.936
  ** Hessian calculated **
  Cycle:     23 Energy:     -1480.830907  Gnorm:      0.109770  CPU:    0.999
  Cycle:     24 Energy:     -1480.893709  Gnorm:      0.096903  CPU:    1.047
  Cycle:     25 Energy:     -1480.902601  Gnorm:      0.091635  CPU:    1.081
  ** Hessian calculated **
  Cycle:     26 Energy:     -1481.014202  Gnorm:      0.065344  CPU:    1.144
  Cycle:     27 Energy:     -1481.070802  Gnorm:      0.041905  CPU:    1.178
  ** Hessian has wrong structure
  ** Imaginary eigenvectors =   2
  Cycle:     28 Energy:     -1481.073582  Gnorm:      0.102765  CPU:    1.237
  ** Hessian has wrong structure
  ** Imaginary eigenvectors =   2
  ** Hessian has wrong structure
  ** Imaginary eigenvectors =   1
  Cycle:     29 Energy:     -1481.104079  Gnorm:      0.117988  CPU:    1.365
  ** Hessian has required structure
  ** Hessian has required structure
  Cycle:     30 Energy:     -1481.204767  Gnorm:      0.082011  CPU:    1.439
  ** Hessian has required structure
  Cycle:     31 Energy:     -1481.271396  Gnorm:      0.046458  CPU:    1.486
  ** Hessian has required structure
  Cycle:     32 Energy:     -1481.298787  Gnorm:      0.075945  CPU:    1.526
  ** Hessian has required structure
  Cycle:     33 Energy:     -1481.329264  Gnorm:      0.052007  CPU:    1.567
  ** Hessian has required structure
  Cycle:     34 Energy:     -1481.339517  Gnorm:      0.058578  CPU:    1.614
  ** Hessian has required structure
  Cycle:     35 Energy:     -1481.350656  Gnorm:      0.046936  CPU:    1.654
  ** Hessian has required structure
  Cycle:     36 Energy:     -1481.356963  Gnorm:      0.033282  CPU:    1.695
  ** Hessian has required structure
  Cycle:     37 Energy:     -1481.360537  Gnorm:      0.029034  CPU:    1.735
  ** Hessian has required structure
  Cycle:     38 Energy:     -1481.362275  Gnorm:      0.018380  CPU:    1.776
  ** Hessian has required structure
  Cycle:     39 Energy:     -1481.363082  Gnorm:      0.011423  CPU:    1.817
  ** Hessian has required structure
  Cycle:     40 Energy:     -1481.363659  Gnorm:      0.005894  CPU:    1.885
  ** Hessian has required structure
  Cycle:     41 Energy:     -1481.363789  Gnorm:      0.003648  CPU:    1.925
  ** Hessian has required structure
  Cycle:     42 Energy:     -1481.363838  Gnorm:      0.002224  CPU:    1.966
  ** Hessian has required structure
  Cycle:     43 Energy:     -1481.363861  Gnorm:      0.001131  CPU:    2.013
  ** Hessian has required structure
  Cycle:     44 Energy:     -1481.363866  Gnorm:      0.000684  CPU:    2.053
  ** Hessian has required structure
  Cycle:     45 Energy:     -1481.363867  Gnorm:      0.000480  CPU:    2.087
  ** Hessian has required structure
  Cycle:     46 Energy:     -1481.363869  Gnorm:      0.000336  CPU:    2.120
  ** Hessian has required structure
  Cycle:     47 Energy:     -1481.363869  Gnorm:      0.000235  CPU:    2.154
  ** Hessian has required structure
  Cycle:     48 Energy:     -1481.363869  Gnorm:      0.000165  CPU:    2.188
  ** Hessian has required structure


  **** Optimisation achieved ****


  Final energy =   -1481.36386941 eV      
  Final Gnorm  =       0.00011546

  Components of energy : 

--------------------------------------------------------------------------------
  Interatomic potentials     =         392.41283605 eV    
  Three-body potentials      =           0.00000000 eV    
  Monopole - monopole (real) =        -627.02097146 eV    
  Monopole - monopole (recip)=       -1246.75573400 eV    
  Monopole - monopole (total)=       -1873.77670546 eV    
--------------------------------------------------------------------------------
  Total lattice energy       =       -1481.36386941 eV    
--------------------------------------------------------------------------------
  Total lattice energy       =         -142928.9687 kJ/(mole unit cells)
--------------------------------------------------------------------------------

  Final fractional coordinates of atoms :

--------------------------------------------------------------------------------
   No.  Atomic        x           y          z          Radius
        Label       (Frac)      (Frac)     (Frac)       (Angs) 
--------------------------------------------------------------------------------
     1  Ge    c     0.313820    0.296860    0.309830    0.000000
     2  Ge    c     0.679151    0.245533    0.707078    0.000000
     3  Ge    c     0.315161    0.311054    0.624029    0.000000
     4  Ge    c     0.710566    0.626954    0.400857    0.000000
     5  Ge    c     0.371787    0.713827    0.629180    0.000000
     6  Ge    c     0.908217    0.941828    0.393081    0.000000
     7  Ge    c     0.133780    0.002920    0.694228    0.000000
     8  Ge    c     0.116621    0.979328    0.189794    0.000000
     9  Ge    c     0.916430    0.947305    0.878371    0.000000
    10  Si    c     0.725492    0.642551    0.711426    0.000000
    11  Si    c     0.354746    0.691701    0.316463    0.000000
    12  Si    c     0.672652    0.232672    0.399388    0.000000
    13  O1    c     0.250036    0.304678    0.449737    0.000000
    14  O3    c     0.738319    0.223343    0.562799    0.000000
    15  O3    c     0.776960    0.625185    0.575990    0.000000
    16  O3    c     0.303549    0.710571    0.453331    0.000000
    17  O3    c     0.324386    0.500573    0.254864    0.000000
    18  O3    c     0.706390    0.456163    0.764490    0.000000
    19  O3    c     0.494232    0.202094    0.359428    0.000000
    20  O1    c     0.490537    0.208148    0.674274    0.000000
    21  O3    c     0.564734    0.745825    0.676850    0.000000
    22  O3    c     0.532800    0.725813    0.352958    0.000000
    23  O1    c     0.198136    0.173403    0.186416    0.000000
    24  O1    c     0.783966    0.108954    0.826288    0.000000
    25  O3    c     0.849002    0.747431    0.823180    0.000000
    26  O3    c     0.257911    0.822227    0.206149    0.000000
    27  O1    c     0.331797    0.518955    0.681364    0.000000
    28  O3    c     0.700696    0.417631    0.345620    0.000000
    29  O1    c     0.185718    0.209359    0.682283    0.000000
    30  O3    c     0.761525    0.092240    0.335810    0.000000
    31  O1    c     0.830713    0.743961    0.343483    0.000000
    32  O1    c     0.289844    0.874902    0.697363    0.000000
    33  O1    c     0.976602    0.944687    0.566826    0.000000
    34  O1    c     0.055869    0.979860    0.332833    0.000000
    35  O1    c     0.081063    0.985058    0.839673    0.000000
    36  O1    c     0.965282    0.944441    0.053038    0.000000
    37  O1    s     0.259696    0.304537    0.451946    0.000000
    38  O3    s     0.727758    0.225849    0.558964    0.000000
    39  O3    s     0.766723    0.627010    0.575315    0.000000
    40  O3    s     0.313455    0.709115    0.454134    0.000000
    41  O3    s     0.326381    0.502006    0.265072    0.000000
    42  O3    s     0.706166    0.458149    0.754998    0.000000
    43  O3    s     0.497893    0.212451    0.359559    0.000000
    44  O1    s     0.492300    0.218572    0.673141    0.000000
    45  O3    s     0.564490    0.733659    0.676295    0.000000
    46  O3    s     0.529498    0.714651    0.353208    0.000000
    47  O1    s     0.201031    0.168743    0.196089    0.000000
    48  O1    s     0.785832    0.107384    0.820727    0.000000
    49  O3    s     0.842058    0.753064    0.816413    0.000000
    50  O3    s     0.256664    0.821283    0.215937    0.000000
    51  O1    s     0.333517    0.517963    0.673186    0.000000
    52  O3    s     0.698910    0.417526    0.355023    0.000000
    53  O1    s     0.191725    0.201775    0.678730    0.000000
    54  O3    s     0.763859    0.094814    0.346568    0.000000
    55  O1    s     0.826935    0.748912    0.351424    0.000000
    56  O1    s     0.284668    0.871475    0.691566    0.000000
    57  O1    s     0.983278    0.948853    0.563504    0.000000
    58  O1    s     0.048419    0.976771    0.327199    0.000000
    59  O1    s     0.072725    0.983551    0.831811    0.000000
    60  O1    s     0.973841    0.947457    0.051214    0.000000
--------------------------------------------------------------------------------

  Final Cartesian lattice vectors (Angstroms) :

        9.213256    0.151832    0.146453
        0.122376    7.831183   -0.048752
       -3.176638   -0.123879    9.810574


  Final cell parameters and derivatives :

--------------------------------------------------------------------------------
       a            9.215671 Angstrom     dE/de1(xx)    -0.000437 eV/strain
       b            7.832291 Angstrom     dE/de2(yy)    -0.000208 eV/strain
       c           10.312795 Angstrom     dE/de3(zz)    -0.000155 eV/strain
       alpha       91.303282 Degrees      dE/de4(yz)    -0.000101 eV/strain
       beta       107.039337 Degrees      dE/de5(xz)     0.000493 eV/strain
       gamma       88.166530 Degrees      dE/de6(xy)     0.000129 eV/strain
--------------------------------------------------------------------------------

  Primitive cell volume =           711.266452 Angs**3

  Density of cell =      2.618928 g/cm**3

  Non-primitive cell volume =           711.266452 Angs**3


  Final internal derivatives :

--------------------------------------------------------------------------------
   No.  Atomic          a             b             c           Radius
        Label          (eV)          (eV)          (eV)        (eV/Angs)
--------------------------------------------------------------------------------
      1 Ge    c       0.000000      0.000000      0.000000      0.000000
      2 Ge    c       0.000355     -0.000026     -0.000374      0.000000
      3 Ge    c       0.000036      0.000015     -0.000542      0.000000
      4 Ge    c       0.000025     -0.000196      0.000528      0.000000
      5 Ge    c      -0.001296      0.000630      0.000971      0.000000
      6 Ge    c      -0.000476     -0.000932      0.002647      0.000000
      7 Ge    c      -0.000246     -0.000133      0.000925      0.000000
      8 Ge    c      -0.001074      0.001051      0.006076      0.000000
      9 Ge    c      -0.000136     -0.000352     -0.000085      0.000000
     10 Si    c       0.000071     -0.000134     -0.000965      0.000000
     11 Si    c      -0.000391      0.000373      0.000087      0.000000
     12 Si    c       0.000569     -0.000028      0.000058      0.000000
     13 O1    c       0.000621      0.000303     -0.000407      0.000000
     14 O3    c      -0.000225     -0.000099     -0.000099      0.000000
     15 O3    c      -0.000325      0.000098      0.000528      0.000000
     16 O3    c       0.000305     -0.000143     -0.000137      0.000000
     17 O3    c      -0.000378      0.000038      0.000451      0.000000
     18 O3    c      -0.000320     -0.000343      0.000177      0.000000
     19 O3    c       0.000094     -0.000323      0.000197      0.000000
     20 O1    c      -0.000363     -0.000562      0.000194      0.000000
     21 O3    c       0.000650      0.000608     -0.000187      0.000000
     22 O3    c      -0.001170      0.000216      0.000196      0.000000
     23 O1    c      -0.000673     -0.001838      0.000237      0.000000
     24 O1    c      -0.000850      0.001471     -0.000415      0.000000
     25 O3    c       0.000803     -0.000067      0.000161      0.000000
     26 O3    c      -0.000344     -0.000412      0.001151      0.000000
     27 O1    c       0.000387      0.000146     -0.000225      0.000000
     28 O3    c      -0.000066     -0.000085      0.000035      0.000000
     29 O1    c      -0.000866     -0.000644      0.000356      0.000000
     30 O3    c      -0.000857      0.000728      0.000800      0.000000
     31 O1    c       0.001515      0.001339     -0.001100      0.000000
     32 O1    c       0.001223     -0.000951     -0.002470      0.000000
     33 O1    c      -0.000429      0.000958     -0.001903      0.000000
     34 O1    c       0.008758     -0.000809     -0.008763      0.000000
     35 O1    c       0.003008      0.000068     -0.003461      0.000000
     36 O1    c      -0.002421     -0.000361     -0.008725      0.000000
     37 O1    s      -0.000510     -0.000436      0.000166      0.000000
     38 O3    s       0.000077      0.000466     -0.000036      0.000000
     39 O3    s       0.000588     -0.000278     -0.000440      0.000000
     40 O3    s      -0.000154      0.000062      0.000305      0.000000
     41 O3    s       0.000223      0.000157     -0.000350      0.000000
     42 O3    s       0.000041     -0.000087     -0.000225      0.000000
     43 O3    s       0.000064      0.000260     -0.000417      0.000000
     44 O1    s       0.000359      0.000522     -0.000078      0.000000
     45 O3    s      -0.000855     -0.000169      0.000191      0.000000
     46 O3    s       0.000224     -0.000325     -0.000055      0.000000
     47 O1    s      -0.000124      0.000963      0.000336      0.000000
     48 O1    s       0.000030     -0.000546      0.000598      0.000000
     49 O3    s      -0.000364     -0.000197      0.000554      0.000000
     50 O3    s       0.000152      0.000217     -0.000415      0.000000
     51 O1    s      -0.000259      0.000210      0.000099      0.000000
     52 O3    s       0.000096     -0.000160      0.000198      0.000000
     53 O1    s       0.000328      0.000092      0.000006      0.000000
     54 O3    s       0.000506     -0.000298     -0.000630      0.000000
     55 O1    s      -0.000589     -0.000703      0.000448      0.000000
     56 O1    s      -0.000977      0.000464      0.000635      0.000000
     57 O1    s       0.000676     -0.000938      0.001047      0.000000
     58 O1    s      -0.005109      0.000843      0.005048      0.000000
     59 O1    s      -0.001128     -0.000006      0.001287      0.000000
     60 O1    s       0.001763      0.000400      0.005337      0.000000
--------------------------------------------------------------------------------
  Maximum abs         0.008758      0.001838      0.008763      0.000000
--------------------------------------------------------------------------------


  Born effective charge tensors : 

-------------------------------------------------------------------------------
  Atom             x           y             z
-------------------------------------------------------------------------------
    1 Ge    x       3.7767      0.1178      0.3079
            y       0.4135      4.1179      0.2892
            z       0.1158      0.2748      3.6255
-------------------------------------------------------------------------------
    2 Ge    x       3.8494     -0.1312      0.3754
            y      -0.2245      4.1594     -0.2741
            z       0.1244     -0.3296      3.6136
-------------------------------------------------------------------------------
    3 Ge    x       4.1336      0.1504     -0.1215
            y       0.4753      4.1801      0.0121
            z       0.0191     -0.1294      3.4095
-------------------------------------------------------------------------------
    4 Ge    x       3.9790      0.2319     -0.1161
            y       0.5054      4.1107     -0.0142
            z       0.0821     -0.1738      3.2524
-------------------------------------------------------------------------------
    5 Ge    x       3.9621     -0.3073     -0.2280
            y      -0.2451      4.2075      0.0343
            z       0.0706      0.1318      3.3543
-------------------------------------------------------------------------------
    6 Ge    x       4.4727      0.2854      0.2547
            y      -0.0631      3.9574      0.0144
            z      -0.4641     -0.0655      3.5178
-------------------------------------------------------------------------------
    7 Ge    x       4.5617      0.3000     -0.2711
            y      -0.1280      3.9334     -0.0846
            z      -0.1880      0.0230      3.7528
-------------------------------------------------------------------------------
    8 Ge    x       3.9813      0.1718     -0.1838
            y      -0.0227      3.9325     -0.0345
            z       0.7009      0.1759      4.4886
-------------------------------------------------------------------------------
    9 Ge    x       3.9688      0.1560      0.3048
            y      -0.1399      3.9489     -0.0213
            z       0.0207     -0.0374      4.6715
-------------------------------------------------------------------------------
   10 Si    x       3.5543      0.0187      0.2939
            y       0.3917      3.8926      0.2142
            z       0.1655      0.2281      3.4478
-------------------------------------------------------------------------------
   11 Si    x       3.6012     -0.1969      0.3657
            y      -0.2489      3.8829     -0.1586
            z       0.1487     -0.2131      3.4143
-------------------------------------------------------------------------------
   12 Si    x       3.7850     -0.3013     -0.1252
            y      -0.2712      3.9005     -0.0345
            z       0.1445      0.0408      3.1146
-------------------------------------------------------------------------------
   13 O1    x      -1.6436     -0.0407      0.4269
            y      -0.1163     -1.4253     -0.0333
            z       0.3900     -0.0477     -2.5530
-------------------------------------------------------------------------------
   14 O3    x      -1.4566      0.1118      0.2392
            y       0.1262     -1.3748      0.0040
            z       0.2863      0.0100     -2.4538
-------------------------------------------------------------------------------
   15 O3    x      -1.5106     -0.0154      0.3939
            y      -0.0729     -1.3613     -0.1023
            z       0.3809     -0.0584     -2.4224
-------------------------------------------------------------------------------
   16 O3    x      -1.5301      0.1138      0.3752
            y       0.1206     -1.3499     -0.0177
            z       0.3515     -0.0358     -2.4437
-------------------------------------------------------------------------------
   17 O3    x      -1.2413     -0.1153     -0.0828
            y      -0.1990     -2.9922     -0.1171
            z      -0.0421     -0.1022     -1.3171
-------------------------------------------------------------------------------
   18 O3    x      -1.2557     -0.1982     -0.0332
            y      -0.2931     -3.0256      0.0647
            z       0.0121      0.0657     -1.3156
-------------------------------------------------------------------------------
   19 O3    x      -2.7833      0.1586     -0.4959
            y       0.0777     -1.4435      0.0257
            z      -0.5203      0.0162     -1.2763
-------------------------------------------------------------------------------
   20 O1    x      -2.9553      0.1785     -0.4620
            y       0.0995     -1.5641      0.0742
            z      -0.4427      0.1212     -1.3287
-------------------------------------------------------------------------------
   21 O3    x      -2.6975      0.3148     -0.4564
            y       0.2646     -1.5016      0.0531
            z      -0.4652      0.0343     -1.2887
-------------------------------------------------------------------------------
   22 O3    x      -2.7755      0.1364     -0.4836
            y       0.0721     -1.4374      0.0441
            z      -0.4862      0.0964     -1.2807
-------------------------------------------------------------------------------
   23 O1    x      -1.7409     -0.7779     -0.3829
            y      -0.7675     -2.6032     -0.5681
            z      -0.4515     -0.6035     -1.8433
-------------------------------------------------------------------------------
   24 O1    x      -1.7927      0.7311     -0.5719
            y       0.7848     -2.4540      0.8188
            z      -0.5318      0.8342     -2.0311
-------------------------------------------------------------------------------
   25 O3    x      -1.6016     -0.6539     -0.5711
            y      -0.6092     -2.3024     -0.7612
            z      -0.5087     -0.7880     -1.9277
-------------------------------------------------------------------------------
   26 O3    x      -1.7517      0.7065     -0.4286
            y       0.7651     -2.2207      0.6576
            z      -0.5080      0.6716     -1.8032
-------------------------------------------------------------------------------
   27 O1    x      -1.4523     -0.2484      0.0994
            y      -0.3280     -3.1463     -0.0285
            z       0.0542      0.0155     -1.3056
-------------------------------------------------------------------------------
   28 O3    x      -1.3381     -0.1374      0.0921
            y      -0.2402     -2.9747      0.0703
            z       0.0391      0.0617     -1.2253
-------------------------------------------------------------------------------
   29 O1    x      -2.2796     -0.9347      0.3435
            y      -0.8844     -2.5411      0.2952
            z       0.2876      0.2594     -1.3136
-------------------------------------------------------------------------------
   30 O3    x      -2.1790      0.9424      0.0961
            y       0.9883     -2.2533     -0.0996
            z       0.1575     -0.1367     -1.2668
-------------------------------------------------------------------------------
   31 O1    x      -2.2366     -0.9823      0.1196
            y      -0.9312     -2.5963     -0.0033
            z       0.1862      0.0485     -1.3186
-------------------------------------------------------------------------------
   32 O1    x      -2.5138      1.0361      0.3176
            y       1.0632     -2.3449     -0.2792
            z       0.2299     -0.2648     -1.3489
-------------------------------------------------------------------------------
   33 O1    x      -1.8790     -0.1876     -0.6234
            y      -0.0676     -1.3694     -0.1568
            z      -0.3963     -0.1790     -2.5870
-------------------------------------------------------------------------------
   34 O1    x      -2.7900     -0.2156      0.9038
            y      -0.0765     -1.3377      0.0677
            z       0.8763      0.0914     -2.0711
-------------------------------------------------------------------------------
   35 O1    x      -2.6634     -0.3089      0.7997
            y      -0.1902     -1.3160      0.1333
            z       0.8055      0.1406     -2.2011
-------------------------------------------------------------------------------
   36 O1    x      -1.5577     -0.1084     -0.4718
            y      -0.0284     -1.2882     -0.0840
            z      -0.6445     -0.1761     -3.7396
-------------------------------------------------------------------------------




  Elastic Constant Matrix: (Units=GPa)

-------------------------------------------------------------------------------
  Indices      1         2         3         4         5         6    
-------------------------------------------------------------------------------
       1     27.2449   11.3320    3.9822    0.5265    0.1074    8.0297
       2     11.3320   38.9686    9.4226    1.0837    3.9579   10.1651
       3      3.9822    9.4226   24.9390    1.9107   11.1163    1.6406
       4      0.5265    1.0837    1.9107   10.2712    0.5200    4.1832
       5      0.1074    3.9579   11.1163    0.5200   11.6153    0.2576
       6      8.0297   10.1651    1.6406    4.1832    0.2576   20.6441
-------------------------------------------------------------------------------


  Elastic Compliance Matrix: (Units=1/GPa)

-------------------------------------------------------------------------------
  Indices      1         2         3         4         5         6    
-------------------------------------------------------------------------------
       1    0.045517 -0.008872 -0.008015  0.005226  0.010347 -0.013887
       2   -0.008872  0.034279 -0.010213  0.004310 -0.001718 -0.013469
       3   -0.008015 -0.010213  0.076745 -0.011397 -0.069499  0.005224
       4    0.005226  0.004310 -0.011397  0.108830  0.005080 -0.025366
       5    0.010347 -0.001718 -0.069499  0.005080  0.152883 -0.000593
       6   -0.013887 -0.013469  0.005224 -0.025366 -0.000593  0.065205
-------------------------------------------------------------------------------

  Mechanical properties :

-------------------------------------------------------------------------------
  Convention :                    Reuss         Voigt         Hill
-------------------------------------------------------------------------------
  Bulk  Modulus (GPa)     =       9.77134      15.62515      12.69824
  Shear Modulus (GPa)     =       8.74472      12.93383      10.83928
-------------------------------------------------------------------------------
  Velocity S-wave (km/s)  =       1.82731       2.22230       2.03441
  Velocity P-wave (km/s)  =       2.86061       3.54274       3.21979
-------------------------------------------------------------------------------
  Compressibility (1/GPa) =    0.10234011
-------------------------------------------------------------------------------
  Stress axis :                     x             y             z
-------------------------------------------------------------------------------
  Youngs Moduli (GPa)     =      21.96992      29.17220      13.03021
-------------------------------------------------------------------------------
  Poissons Ratio (x)      =                     0.25882       0.10444
  Poissons Ratio (y)      =       0.19492                     0.13308
  Poissons Ratio (z)      =       0.17609       0.29794
-------------------------------------------------------------------------------


  Piezoelectric Strain Matrix: (Units=C/m**2)

-------------------------------------------------------------------------------
  Indices      1         2         3         4         5         6    
-------------------------------------------------------------------------------
       x     0.30302  -0.01620  -0.20279   0.15543  -0.13894  -0.23532
       y    -0.40836  -0.21048  -0.60164  -0.59058  -0.39850   0.13863
       z     0.58217   0.47616   0.53342  -0.29902  -0.63129  -0.21922
-------------------------------------------------------------------------------


  Piezoelectric Stress Matrix: (Units=10**-11 C/N)

-------------------------------------------------------------------------------
  Indices      1         2         3         4         5         6    
-------------------------------------------------------------------------------
       x     1.82041   0.29055  -1.11711   2.60037  -0.30555  -2.42534
       y    -2.10325  -0.11753  -0.55996  -6.59989  -2.60561   2.96188
       z     1.29483   0.84578   7.75450  -3.11739 -12.97696  -1.80460
-------------------------------------------------------------------------------


  Static dielectric constant tensor : 

-------------------------------------------------------------------------------
              x         y         z
-------------------------------------------------------------------------------
       x     5.10427   0.10520   0.14343
       y     0.10520   5.95319  -0.10378
       z     0.14343  -0.10378   4.30215
--------------------------------------------------------------------------------

  High frequency dielectric constant tensor : 

-------------------------------------------------------------------------------
              x         y         z
-------------------------------------------------------------------------------
       x     1.54994   0.00178   0.01008
       y     0.00178   1.56051  -0.00024
       z     0.01008  -0.00024   1.51118
-------------------------------------------------------------------------------

  Static refractive indices : 

-------------------------------------------------------------------------------
    1 =    2.06607      2 =    2.26284      3 =    2.44346
-------------------------------------------------------------------------------

  High frequency refractive indices : 

-------------------------------------------------------------------------------
    1 =    1.22829      2 =    1.24582      3 =    1.24934
-------------------------------------------------------------------------------


  Time to end of optimisation =       2.2660 seconds


  Peak dynamic memory used =       2.76 MB 


  Timing analysis for GULP :

--------------------------------------------------------------------------------
  Task / Subroutine                                          Time (Seconds)
--------------------------------------------------------------------------------
  Calculation of reciprocal space energy and derivatives          0.1462
  Calculation of real space energy and derivatives                1.9306
  Calculation of three-body energy and derivatives                0.0163
  Calculation and manipulation of Hessian matrix                  0.2209
  Calculation of matrix inversion                                 0.0044
--------------------------------------------------------------------------------
  Total CPU time                                                  2.2660
--------------------------------------------------------------------------------


  Dump file written as c00049.vasp.grs
  CIF file written as c00049.vasp.cif


  Job Finished at 11:26.26 22nd October    2025                               

