********************************************************************************
*                       GENERAL UTILITY LATTICE PROGRAM                        *
*                                 Julian Gale                                  *
*                       Curtin Institute for Computation                       *
*                    School of Molecular and Life Sciences                     *
*                    Curtin University, Western Australia                      *
********************************************************************************
* Version = 6.1.2 * Last modified =   3rd November 2022                        *
********************************************************************************
*  optimise     - perform optimisation run                                     *
*  conp         - constant pressure calculation                                *
*  property     - calculate properties for final geometry                      *
********************************************************************************

  Job Started  at 11:24.43 22nd October    2025                               

  Number of CPUs =     1


  Total number of configurations input =      1

********************************************************************************
*  Input for Configuration =   1 : c00021.vasp                                 *
********************************************************************************

  Formula = Ge9Si3O24                                                   

  Number of irreducible atoms/shells =      60


  Total number atoms/shells =      60

  Dimensionality = 3               :  Bulk   



  Cartesian lattice vectors (Angstroms) :

        9.086940    0.000000    0.000000
        0.000000    7.554810    0.000000
       -3.295144    0.000000    9.944380

  Cell parameters (Angstroms/Degrees):

  a =       9.0869    alpha =  90.0000
  b =       7.5548    beta  = 108.3330
  c =      10.4761    gamma =  90.0000

  Initial cell volume =         682.682735 Angs**3

  Temperature of configuration =   0.00     K 

  Pressure of configuration =         0.000 GPa 

  Fractional coordinates of asymmetric unit :

--------------------------------------------------------------------------------
   No.  Atomic       x           y          z         Charge      Occupancy
        Label      (Frac)      (Frac)     (Frac)        (e)         (Frac)  
--------------------------------------------------------------------------------
      1 Ge    c    0.313820    0.296860    0.309830     4.00000    1.000000    
      2 Ge    c    0.686180 *  0.296860 *  0.690170 *   4.00000    1.000000    
      3 Ge    c    0.686180 *  0.703140 *  0.690170 *   4.00000    1.000000    
      4 Ge    c    0.331050 *  0.296920 *  0.607380 *   4.00000    1.000000    
      5 Ge    c    0.668950 *  0.296920 *  0.392620 *   4.00000    1.000000    
      6 Ge    c    0.668950 *  0.703080 *  0.392620 *   4.00000    1.000000    
      7 Ge    c    0.331050 *  0.703080 *  0.607380 *   4.00000    1.000000    
      8 Ge    c    0.120320 *  0.000000 *  0.649840 *   4.00000    1.000000    
      9 Ge    c    0.093070 *  0.000000 *  0.158230 *   4.00000    1.000000    
     10 Si    c    0.313820 *  0.703140 *  0.309830 *   4.00000    1.000000    
     11 Si    c    0.879680 *  0.000000 *  0.350160 *   4.00000    1.000000    
     12 Si    c    0.906930 *  0.000000 *  0.841770 *   4.00000    1.000000    
     13 O1    c    0.268740 *  0.279030 *  0.446100 *   1.73396    1.000000    
     14 O1    c    0.731260 *  0.279030 *  0.553900 *   1.73396    1.000000    
     15 O1    c    0.731260 *  0.720970 *  0.553900 *   1.73396    1.000000    
     16 O3    c    0.268740 *  0.720970 *  0.446100 *   1.33043    1.000000    
     17 O3    c    0.295480 *  0.500000 *  0.260860 *   1.33043    1.000000    
     18 O1    c    0.704520 *  0.500000 *  0.739140 *   1.73396    1.000000    
     19 O1    c    0.490600 *  0.234690 *  0.337530 *   1.73396    1.000000    
     20 O1    c    0.509400 *  0.234690 *  0.662470 *   1.73396    1.000000    
     21 O1    c    0.509400 *  0.765310 *  0.662470 *   1.73396    1.000000    
     22 O3    c    0.490600 *  0.765310 *  0.337530 *   1.33043    1.000000    
     23 O1    c    0.200440 *  0.174000 *  0.194980 *   1.73396    1.000000    
     24 O3    c    0.799560 *  0.174000 *  0.805020 *   1.33043    1.000000    
     25 O3    c    0.799560 *  0.826000 *  0.805020 *   1.33043    1.000000    
     26 O3    c    0.200440 *  0.826000 *  0.194980 *   1.33043    1.000000    
     27 O1    c    0.317860 *  0.500000 *  0.649090 *   1.73396    1.000000    
     28 O1    c    0.682140 *  0.500000 *  0.350910 *   1.73396    1.000000    
     29 O1    c    0.227920 *  0.173870 *  0.671620 *   1.73396    1.000000    
     30 O3    c    0.772080 *  0.173870 *  0.328380 *   1.33043    1.000000    
     31 O3    c    0.772080 *  0.826130 *  0.328380 *   1.33043    1.000000    
     32 O1    c    0.227920 *  0.826130 *  0.671620 *   1.73396    1.000000    
     33 O3    c    0.000000 *  0.000000 *  0.500000 *   1.33043    1.000000    
     34 O3    c    0.971960 *  0.000000 *  0.241930 *   1.33043    1.000000    
     35 O3    c    0.028040 *  0.000000 *  0.758070 *   1.33043    1.000000    
     36 O3    c    0.000000 *  0.000000 *  0.000000 *   1.33043    1.000000    
     37 O1    s    0.268740 *  0.279030 *  0.446100 *  -3.73396    1.000000    
     38 O1    s    0.731260 *  0.279030 *  0.553900 *  -3.73396    1.000000    
     39 O1    s    0.731260 *  0.720970 *  0.553900 *  -3.73396    1.000000    
     40 O3    s    0.268740 *  0.720970 *  0.446100 *  -3.33043    1.000000    
     41 O3    s    0.295480 *  0.500000 *  0.260860 *  -3.33043    1.000000    
     42 O1    s    0.704520 *  0.500000 *  0.739140 *  -3.73396    1.000000    
     43 O1    s    0.490600 *  0.234690 *  0.337530 *  -3.73396    1.000000    
     44 O1    s    0.509400 *  0.234690 *  0.662470 *  -3.73396    1.000000    
     45 O1    s    0.509400 *  0.765310 *  0.662470 *  -3.73396    1.000000    
     46 O3    s    0.490600 *  0.765310 *  0.337530 *  -3.33043    1.000000    
     47 O1    s    0.200440 *  0.174000 *  0.194980 *  -3.73396    1.000000    
     48 O3    s    0.799560 *  0.174000 *  0.805020 *  -3.33043    1.000000    
     49 O3    s    0.799560 *  0.826000 *  0.805020 *  -3.33043    1.000000    
     50 O3    s    0.200440 *  0.826000 *  0.194980 *  -3.33043    1.000000    
     51 O1    s    0.317860 *  0.500000 *  0.649090 *  -3.73396    1.000000    
     52 O1    s    0.682140 *  0.500000 *  0.350910 *  -3.73396    1.000000    
     53 O1    s    0.227920 *  0.173870 *  0.671620 *  -3.73396    1.000000    
     54 O3    s    0.772080 *  0.173870 *  0.328380 *  -3.33043    1.000000    
     55 O3    s    0.772080 *  0.826130 *  0.328380 *  -3.33043    1.000000    
     56 O1    s    0.227920 *  0.826130 *  0.671620 *  -3.73396    1.000000    
     57 O3    s    0.000000 *  0.000000 *  0.500000 *  -3.33043    1.000000    
     58 O3    s    0.971960 *  0.000000 *  0.241930 *  -3.33043    1.000000    
     59 O3    s    0.028040 *  0.000000 *  0.758070 *  -3.33043    1.000000    
     60 O3    s    0.000000 *  0.000000 *  0.000000 *  -3.33043    1.000000    
--------------------------------------------------------------------------------



********************************************************************************
*  General input information                                                   *
********************************************************************************

  Species output for all configurations : 

--------------------------------------------------------------------------------
  Species    Type    Atomic    Atomic    Charge       Radii (Angs)     Library
                     Number     Mass       (e)     Cova   Ionic  VDW   Symbol
--------------------------------------------------------------------------------
    Ge       Core       32      72.61   4.000000   1.170  0.000  1.750 Ge       
    Si       Core       14      28.09   4.000000   1.200  0.000  2.100 Si       
    O1       Core        8      16.00   1.733957   0.730  0.000  1.360 O1       
    O2       Core        8      16.00   0.870733   0.730  0.000  0.000 O2       
    O3       Core        8      16.00   1.330431   0.730  0.000  1.360 O3       
    O1       Shell       8       0.00  -3.733957   0.730  0.000  0.000 O1       
    O2       Shell       8       0.00  -2.870733   0.730  0.000  0.000 O2       
    O3       Shell       8       0.00  -3.330431   0.730  0.000  0.000 O3       
--------------------------------------------------------------------------------


  Lattice summation method               =    Ewald          (3-D)
                                         =    Parry          (2-D)
                                         =    Saunders et al (1-D)
  Accuracy factor for lattice sums       =   12.000


  Analytic derivatives to be used

  Time limit = Infinity

  Maximum range for interatomic potentials =    100000.000000 Angstroms

  General interatomic potentials :

--------------------------------------------------------------------------------
Atom  Types   Potential      Parameter       Value         Units   Cutoffs(Ang)
  1     2                                                            Min /  Max 
--------------------------------------------------------------------------------
Si   c O1   s Buckingham    Buckingham A     1315.2478    eV        0.000 16.000
                            Buckingham rho  0.31775900    Ang       
                            Buckingham C     10.141118    eV*Ang^6  
--------------------------------------------------------------------------------
Si   c O2   s Buckingham    Buckingham A     1315.2478    eV        0.000 16.000
                            Buckingham rho  0.31775900    Ang       
                            Buckingham C     10.141118    eV*Ang^6  
--------------------------------------------------------------------------------
Si   c O3   s Buckingham    Buckingham A     1315.2478    eV        0.000 16.000
                            Buckingham rho  0.31775900    Ang       
                            Buckingham C     10.141118    eV*Ang^6  
--------------------------------------------------------------------------------
Ge   c O1   s Buckingham    Buckingham A     1497.3996    eV        0.000 16.000
                            Buckingham rho  0.32564600    Ang       
                            Buckingham C     16.808599    eV*Ang^6  
--------------------------------------------------------------------------------
Ge   c O2   s Buckingham    Buckingham A     1497.3996    eV        0.000 16.000
                            Buckingham rho  0.32564600    Ang       
                            Buckingham C     16.808599    eV*Ang^6  
--------------------------------------------------------------------------------
Ge   c O3   s Buckingham    Buckingham A     1497.3996    eV        0.000 16.000
                            Buckingham rho  0.32564600    Ang       
                            Buckingham C     16.808599    eV*Ang^6  
--------------------------------------------------------------------------------
O1   s O1   s Buckingham    Buckingham A     22764.000    eV        0.000 16.000
                            Buckingham rho  0.14900000    Ang       
                            Buckingham C     10.937044    eV*Ang^6  
--------------------------------------------------------------------------------
O1   s O2   s Buckingham    Buckingham A     22764.000    eV        0.000 16.000
                            Buckingham rho  0.14900000    Ang       
                            Buckingham C     10.937044    eV*Ang^6  
--------------------------------------------------------------------------------
O1   s O3   s Buckingham    Buckingham A     22764.000    eV        0.000 16.000
                            Buckingham rho  0.14900000    Ang       
                            Buckingham C     10.937044    eV*Ang^6  
--------------------------------------------------------------------------------
O2   s O2   s Buckingham    Buckingham A     22764.000    eV        0.000 16.000
                            Buckingham rho  0.14900000    Ang       
                            Buckingham C     10.937044    eV*Ang^6  
--------------------------------------------------------------------------------
O2   s O3   s Buckingham    Buckingham A     22764.000    eV        0.000 16.000
                            Buckingham rho  0.14900000    Ang       
                            Buckingham C     10.937044    eV*Ang^6  
--------------------------------------------------------------------------------
O3   s O3   s Buckingham    Buckingham A     22764.000    eV        0.000 16.000
                            Buckingham rho  0.14900000    Ang       
                            Buckingham C     10.937044    eV*Ang^6  
--------------------------------------------------------------------------------
O1   c O1   s Spring (c-s)  Spring k 2       180.31577    eV*Ang^-2 0.000  0.800
                            Spring k 4       0.0000000    eV*Ang^-4 
--------------------------------------------------------------------------------
O2   c O2   s Spring (c-s)  Spring k 2       75.969800    eV*Ang^-2 0.000  0.800
                            Spring k 4       0.0000000    eV*Ang^-4 
--------------------------------------------------------------------------------
O3   c O3   s Spring (c-s)  Spring k 2       128.14270    eV*Ang^-2 0.000  0.800
                            Spring k 4       0.0000000    eV*Ang^-4 
--------------------------------------------------------------------------------

  General Three-body potentials :

--------------------------------------------------------------------------------
  Atoms       Potential      Parameter       Value         Units   Cutoffs(Ang)
  1 / 2 / 3                                                          Min /  Max 
--------------------------------------------------------------------------------
Si    core    Harmonic      Three-body cnst  1.2614000    eV*rad^-2 0.000  1.900
O1    shel                  Three-body angl  109.47000    degrees   0.000  1.900
O1    shel                  Three-body k4    0.0000000    eV*rad^-4 0.000  3.500
                            Three-body k3    0.0000000    eV*rad^-3 
--------------------------------------------------------------------------------
Si    core    Harmonic      Three-body cnst  1.2614000    eV*rad^-2 0.000  1.900
O1    shel                  Three-body angl  109.47000    degrees   0.000  1.900
õ(1   shel                  Three-body k4    0.0000000    eV*rad^-4 0.000  3.500
                            Three-body k3    0.0000000    eV*rad^-3 
--------------------------------------------------------------------------------
Si    core    Harmonic      Three-body cnst  1.2614000    eV*rad^-2 0.000  1.900
õ(1   shel                  Three-body angl  109.47000    degrees   0.000  1.900
õ(1   shel                  Three-body k4    0.0000000    eV*rad^-4 0.000  3.500
                            Three-body k3    0.0000000    eV*rad^-3 
--------------------------------------------------------------------------------
Si    core    Harmonic      Three-body cnst  1.2614000    eV*rad^-2 0.000  1.900
O1    shel                  Three-body angl  109.47000    degrees   0.000  1.900
O2    shel                  Three-body k4    0.0000000    eV*rad^-4 0.000  3.500
                            Three-body k3    0.0000000    eV*rad^-3 
--------------------------------------------------------------------------------
Si    core    Harmonic      Three-body cnst  1.2614000    eV*rad^-2 0.000  1.900
O1    shel                  Three-body angl  109.47000    degrees   0.000  1.900
õ(2   shel                  Three-body k4    0.0000000    eV*rad^-4 0.000  3.500
                            Three-body k3    0.0000000    eV*rad^-3 
--------------------------------------------------------------------------------
Si    core    Harmonic      Three-body cnst  1.2614000    eV*rad^-2 0.000  1.900
O2    shel                  Three-body angl  109.47000    degrees   0.000  1.900
õ(1   shel                  Three-body k4    0.0000000    eV*rad^-4 0.000  3.500
                            Three-body k3    0.0000000    eV*rad^-3 
--------------------------------------------------------------------------------
Si    core    Harmonic      Three-body cnst  1.2614000    eV*rad^-2 0.000  1.900
õ(1   shel                  Three-body angl  109.47000    degrees   0.000  1.900
õ(2   shel                  Three-body k4    0.0000000    eV*rad^-4 0.000  3.500
                            Three-body k3    0.0000000    eV*rad^-3 
--------------------------------------------------------------------------------
Si    core    Harmonic      Three-body cnst  1.2614000    eV*rad^-2 0.000  1.900
O2    shel                  Three-body angl  109.47000    degrees   0.000  1.900
O2    shel                  Three-body k4    0.0000000    eV*rad^-4 0.000  3.500
                            Three-body k3    0.0000000    eV*rad^-3 
--------------------------------------------------------------------------------
Si    core    Harmonic      Three-body cnst  1.2614000    eV*rad^-2 0.000  1.900
O2    shel                  Three-body angl  109.47000    degrees   0.000  1.900
õ(2   shel                  Three-body k4    0.0000000    eV*rad^-4 0.000  3.500
                            Three-body k3    0.0000000    eV*rad^-3 
--------------------------------------------------------------------------------
Si    core    Harmonic      Three-body cnst  1.2614000    eV*rad^-2 0.000  1.900
õ(2   shel                  Three-body angl  109.47000    degrees   0.000  1.900
õ(2   shel                  Three-body k4    0.0000000    eV*rad^-4 0.000  3.500
                            Three-body k3    0.0000000    eV*rad^-3 
--------------------------------------------------------------------------------

********************************************************************************
*  Output for configuration   1 : c00021.vasp                                  *
********************************************************************************


  Components of energy : 

--------------------------------------------------------------------------------
  Interatomic potentials     =         440.37178605 eV    
  Three-body potentials      =           0.00000000 eV    
  Monopole - monopole (real) =       -1236.99964305 eV    
  Monopole - monopole (recip)=        -659.26603192 eV    
  Monopole - monopole (total)=       -1896.26567496 eV    
--------------------------------------------------------------------------------
  Total lattice energy       =       -1455.89388892 eV    
--------------------------------------------------------------------------------
  Total lattice energy       =         -140471.5049 kJ/(mole unit cells)
--------------------------------------------------------------------------------


  Number of variables =      183

  Maximum number of calculations  =          1000
  Maximum Hessian update interval =            10
  Maximum step size               =   0.100000000
  Maximum parameter tolerance     =   0.000010000
  Maximum function  tolerance     =   0.000010000
  Maximum gradient  tolerance     =   0.001000000
  Maximum gradient  component     =   0.010000000

  Symmetry not applied to optimisation

  Cell parameters to be optimised using strains

  Newton-Raphson optimiser to be used

  BFGS hessian update to be used

  Lower half triangular hessian to be used

  Minimiser to switch to RFO
  When gradient norm is less than     0.050000

  Dumpfile to be written after every cycle

  Start of bulk optimisation :

  Cycle:      0 Energy:     -1455.893889  Gnorm:      6.618405  CPU:    0.027
  ** Hessian calculated **
  Cycle:      1 Energy:     -1475.863077  Gnorm:      1.850807  CPU:    0.059
  ** Hessian calculated **
  Cycle:      2 Energy:     -1477.884001  Gnorm:      1.417420  CPU:    0.115
  ** Hessian calculated **
  Cycle:      3 Energy:     -1479.364402  Gnorm:      0.714630  CPU:    0.169
  Cycle:      4 Energy:     -1479.824520  Gnorm:      0.386566  CPU:    0.201
  Cycle:      5 Energy:     -1480.104742  Gnorm:      0.302667  CPU:    0.240
  Cycle:      6 Energy:     -1480.427572  Gnorm:      0.250490  CPU:    0.279
  Cycle:      7 Energy:     -1480.615175  Gnorm:      0.194735  CPU:    0.312
  Cycle:      8 Energy:     -1480.705012  Gnorm:      0.153686  CPU:    0.345
  Cycle:      9 Energy:     -1480.742407  Gnorm:      0.094636  CPU:    0.378
  Cycle:     10 Energy:     -1480.758852  Gnorm:      0.078693  CPU:    0.411
  Cycle:     11 Energy:     -1480.772498  Gnorm:      0.067393  CPU:    0.444
  Cycle:     12 Energy:     -1480.786671  Gnorm:      0.068221  CPU:    0.483
  ** Hessian calculated **
  Cycle:     13 Energy:     -1480.793932  Gnorm:      0.067337  CPU:    0.544
  Cycle:     14 Energy:     -1480.806121  Gnorm:      0.065759  CPU:    0.590
  Cycle:     15 Energy:     -1480.824771  Gnorm:      0.063061  CPU:    0.635
  Cycle:     16 Energy:     -1480.847369  Gnorm:      0.059299  CPU:    0.674
  Cycle:     17 Energy:     -1480.882259  Gnorm:      0.052448  CPU:    0.719
  Cycle:     18 Energy:     -1480.917337  Gnorm:      0.044067  CPU:    0.759
  ** Hessian has wrong structure
  ** Imaginary eigenvectors =   3
  Cycle:     19 Energy:     -1480.919461  Gnorm:      0.127077  CPU:    0.822
  ** Hessian has wrong structure
  ** Imaginary eigenvectors =   2
  ** Hessian has wrong structure
  ** Imaginary eigenvectors =   2
  Cycle:     20 Energy:     -1480.992998  Gnorm:      0.139484  CPU:    0.964
  ** Hessian has wrong structure
  ** Imaginary eigenvectors =   1
  ** Hessian has required structure
  Cycle:     21 Energy:     -1481.163983  Gnorm:      0.098850  CPU:    1.073
  ** Hessian has required structure
  Cycle:     22 Energy:     -1481.252525  Gnorm:      0.060012  CPU:    1.118
  ** Hessian has required structure
  Cycle:     23 Energy:     -1481.284768  Gnorm:      0.046184  CPU:    1.157
  ** Hessian has required structure
  Cycle:     24 Energy:     -1481.312061  Gnorm:      0.042102  CPU:    1.203
  ** Hessian has required structure
  Cycle:     25 Energy:     -1481.324134  Gnorm:      0.027330  CPU:    1.241
  ** Hessian has required structure
  Cycle:     26 Energy:     -1481.331637  Gnorm:      0.037631  CPU:    1.287
  ** Hessian has required structure
  Cycle:     27 Energy:     -1481.334843  Gnorm:      0.030476  CPU:    1.326
  ** Hessian has required structure
  Cycle:     28 Energy:     -1481.337806  Gnorm:      0.021007  CPU:    1.365
  ** Hessian has required structure
  Cycle:     29 Energy:     -1481.339344  Gnorm:      0.013047  CPU:    1.404
  ** Hessian has required structure
  Cycle:     30 Energy:     -1481.340647  Gnorm:      0.010000  CPU:    1.449
  ** Hessian has required structure
  Cycle:     31 Energy:     -1481.342880  Gnorm:      0.005991  CPU:    1.516
  ** Hessian has required structure
  Cycle:     32 Energy:     -1481.344116  Gnorm:      0.005261  CPU:    1.561
  ** Hessian has required structure
  Cycle:     33 Energy:     -1481.345880  Gnorm:      0.008335  CPU:    1.612
  ** Hessian has required structure
  Cycle:     34 Energy:     -1481.348009  Gnorm:      0.018789  CPU:    1.657
  ** Hessian has required structure
  Cycle:     35 Energy:     -1481.349774  Gnorm:      0.034288  CPU:    1.697
  ** Hessian has required structure
  Cycle:     36 Energy:     -1481.353262  Gnorm:      0.031876  CPU:    1.742
  ** Hessian has required structure
  Cycle:     37 Energy:     -1481.358888  Gnorm:      0.030736  CPU:    1.793
  ** Hessian has required structure
  Cycle:     38 Energy:     -1481.367791  Gnorm:      0.025718  CPU:    1.839
  ** Hessian has required structure
  Cycle:     39 Energy:     -1481.376528  Gnorm:      0.034134  CPU:    1.884
  ** Hessian has required structure
  Cycle:     40 Energy:     -1481.394879  Gnorm:      0.026335  CPU:    1.930
  ** Hessian has required structure
  Cycle:     41 Energy:     -1481.406034  Gnorm:      0.018353  CPU:    2.014
  ** Hessian has required structure
  Cycle:     42 Energy:     -1481.411407  Gnorm:      0.014703  CPU:    2.079
  ** Hessian has required structure
  Cycle:     43 Energy:     -1481.414879  Gnorm:      0.008641  CPU:    2.146
  ** Hessian has required structure
  Cycle:     44 Energy:     -1481.416677  Gnorm:      0.008687  CPU:    2.213
  ** Hessian has required structure
  Cycle:     45 Energy:     -1481.417615  Gnorm:      0.003088  CPU:    2.270
  ** Hessian has required structure
  Cycle:     46 Energy:     -1481.418053  Gnorm:      0.003616  CPU:    2.327
  ** Hessian has required structure
  Cycle:     47 Energy:     -1481.418270  Gnorm:      0.001958  CPU:    2.394
  ** Hessian has required structure
  Cycle:     48 Energy:     -1481.418348  Gnorm:      0.001444  CPU:    2.461
  ** Hessian has required structure
  Cycle:     49 Energy:     -1481.418376  Gnorm:      0.000703  CPU:    2.518
  ** Hessian has required structure
  Cycle:     50 Energy:     -1481.418384  Gnorm:      0.000588  CPU:    2.566
  ** Hessian has required structure
  Cycle:     51 Energy:     -1481.418388  Gnorm:      0.000414  CPU:    2.638
  ** Hessian has required structure
  Cycle:     52 Energy:     -1481.418390  Gnorm:      0.000292  CPU:    2.685
  ** Hessian has required structure
  Cycle:     53 Energy:     -1481.418390  Gnorm:      0.000261  CPU:    2.732
  ** Hessian has required structure
  Cycle:     54 Energy:     -1481.418392  Gnorm:      0.000194  CPU:    2.789
  ** Hessian has required structure


  **** Optimisation achieved ****


  Final energy =   -1481.41839264 eV      
  Final Gnorm  =       0.00014117

  Components of energy : 

--------------------------------------------------------------------------------
  Interatomic potentials     =         393.41774516 eV    
  Three-body potentials      =           0.00000000 eV    
  Monopole - monopole (real) =        -611.76227565 eV    
  Monopole - monopole (recip)=       -1263.07386215 eV    
  Monopole - monopole (total)=       -1874.83613780 eV    
--------------------------------------------------------------------------------
  Total lattice energy       =       -1481.41839264 eV    
--------------------------------------------------------------------------------
  Total lattice energy       =         -142934.2293 kJ/(mole unit cells)
--------------------------------------------------------------------------------

  Final fractional coordinates of atoms :

--------------------------------------------------------------------------------
   No.  Atomic        x           y          z          Radius
        Label       (Frac)      (Frac)     (Frac)       (Angs) 
--------------------------------------------------------------------------------
     1  Ge    c     0.313820    0.296860    0.309830    0.000000
     2  Ge    c     0.705843    0.295970    0.721277    0.000000
     3  Ge    c     0.656298    0.709508    0.727704    0.000000
     4  Ge    c     0.342524    0.227848    0.638504    0.000000
     5  Ge    c     0.682517    0.361030    0.392317    0.000000
     6  Ge    c     0.630746    0.770422    0.387161    0.000000
     7  Ge    c     0.313399    0.626672    0.646904    0.000000
     8  Ge    c     0.092442    0.940416    0.637306    0.000000
     9  Ge    c     0.084949    0.001209    0.170448    0.000000
    10  Si    c     0.294797    0.683812    0.322837    0.000000
    11  Si    c     0.860071    0.065789    0.328858    0.000000
    12  Si    c     0.907093    0.969212    0.857568    0.000000
    13  O1    c     0.265430    0.231037    0.458049    0.000000
    14  O1    c     0.757513    0.332854    0.571867    0.000000
    15  O1    c     0.680073    0.768454    0.566094    0.000000
    16  O3    c     0.343664    0.600083    0.485923    0.000000
    17  O3    c     0.267249    0.513146    0.241171    0.000000
    18  O1    c     0.691605    0.490922    0.780262    0.000000
    19  O1    c     0.504921    0.271939    0.342821    0.000000
    20  O1    c     0.533694    0.190905    0.682702    0.000000
    21  O1    c     0.472904    0.738901    0.727225    0.000000
    22  O3    c     0.436965    0.797713    0.305760    0.000000
    23  O1    c     0.210819    0.166884    0.185926    0.000000
    24  O3    c     0.843503    0.164141    0.841867    0.000000
    25  O3    c     0.772302    0.832418    0.850819    0.000000
    26  O3    c     0.154376    0.813358    0.282665    0.000000
    27  O1    c     0.310491    0.412063    0.707614    0.000000
    28  O1    c     0.678414    0.578845    0.340029    0.000000
    29  O1    c     0.248213    0.062869    0.704456    0.000000
    30  O3    c     0.805341    0.260898    0.326322    0.000000
    31  O3    c     0.717010    0.942647    0.322566    0.000000
    32  O1    c     0.153208    0.729502    0.641694    0.000000
    33  O3    c     0.003529    0.011004    0.463661    0.000000
    34  O3    c     0.917213    0.056739    0.195337    0.000000
    35  O3    c     0.964303    0.936545    0.727056    0.000000
    36  O3    c     0.042100    0.939725    0.001725    0.000000
    37  O1    s     0.274523    0.235696    0.459828    0.000000
    38  O1    s     0.747927    0.332178    0.569653    0.000000
    39  O1    s     0.674483    0.764181    0.564444    0.000000
    40  O3    s     0.337662    0.608746    0.482694    0.000000
    41  O3    s     0.273253    0.513789    0.253926    0.000000
    42  O1    s     0.690135    0.491684    0.771817    0.000000
    43  O1    s     0.503798    0.280580    0.344058    0.000000
    44  O1    s     0.531867    0.201233    0.682176    0.000000
    45  O1    s     0.474217    0.728487    0.721272    0.000000
    46  O3    s     0.438401    0.785152    0.313478    0.000000
    47  O1    s     0.208580    0.163513    0.194000    0.000000
    48  O3    s     0.838657    0.156178    0.833883    0.000000
    49  O3    s     0.775870    0.835572    0.841557    0.000000
    50  O3    s     0.163443    0.814377    0.278403    0.000000
    51  O1    s     0.313059    0.415001    0.698115    0.000000
    52  O1    s     0.675169    0.576588    0.347566    0.000000
    53  O1    s     0.243124    0.065526    0.694399    0.000000
    54  O3    s     0.800871    0.249944    0.331799    0.000000
    55  O3    s     0.723801    0.940196    0.328698    0.000000
    56  O1    s     0.161762    0.736267    0.641815    0.000000
    57  O3    s     0.996832    0.010550    0.464730    0.000000
    58  O3    s     0.924953    0.053181    0.206357    0.000000
    59  O3    s     0.969810    0.940023    0.731925    0.000000
    60  O3    s     0.031937    0.947453    0.000337    0.000000
--------------------------------------------------------------------------------

  Final Cartesian lattice vectors (Angstroms) :

        9.292174   -0.121408    0.094217
       -0.113959    7.732973    0.395956
       -3.247572    0.554603    9.514433


  Final cell parameters and derivatives :

--------------------------------------------------------------------------------
       a            9.293445 Angstrom     dE/de1(xx)     0.003597 eV/strain
       b            7.743942 Angstrom     dE/de2(yy)     0.003407 eV/strain
       c           10.068701 Angstrom     dE/de3(zz)     0.004716 eV/strain
       alpha       83.796114 Degrees      dE/de4(yz)    -0.000168 eV/strain
       beta       108.278542 Degrees      dE/de5(xz)     0.000344 eV/strain
       gamma       91.560980 Degrees      dE/de6(xy)    -0.001383 eV/strain
--------------------------------------------------------------------------------

  Primitive cell volume =           684.014397 Angs**3

  Density of cell =      2.723270 g/cm**3

  Non-primitive cell volume =           684.014397 Angs**3


  Final internal derivatives :

--------------------------------------------------------------------------------
   No.  Atomic          a             b             c           Radius
        Label          (eV)          (eV)          (eV)        (eV/Angs)
--------------------------------------------------------------------------------
      1 Ge    c       0.000000      0.000000      0.000000      0.000000
      2 Ge    c       0.000424     -0.000266      0.001432      0.000000
      3 Ge    c       0.000363      0.000837     -0.000210      0.000000
      4 Ge    c      -0.000703     -0.000659      0.000319      0.000000
      5 Ge    c      -0.000854     -0.000935      0.000169      0.000000
      6 Ge    c      -0.000013      0.000448     -0.000522      0.000000
      7 Ge    c      -0.000066      0.001097     -0.001288      0.000000
      8 Ge    c       0.006651     -0.000029     -0.001689      0.000000
      9 Ge    c      -0.002253      0.001611      0.005893      0.000000
     10 Si    c       0.002890     -0.001822      0.003628      0.000000
     11 Si    c      -0.000253     -0.000280     -0.002756      0.000000
     12 Si    c      -0.005165      0.000779     -0.000056      0.000000
     13 O1    c      -0.000806     -0.000119      0.001168      0.000000
     14 O1    c       0.000807      0.000773      0.001662      0.000000
     15 O1    c      -0.000371     -0.000258      0.000247      0.000000
     16 O3    c       0.000333      0.001289     -0.001713      0.000000
     17 O3    c       0.000169     -0.003076     -0.002216      0.000000
     18 O1    c       0.000006     -0.001014      0.000894      0.000000
     19 O1    c       0.001112     -0.000803      0.000101      0.000000
     20 O1    c      -0.000974     -0.000879     -0.000335      0.000000
     21 O1    c      -0.002150     -0.001936     -0.000350      0.000000
     22 O3    c       0.001435     -0.000158      0.000375      0.000000
     23 O1    c       0.002723      0.002564     -0.000257      0.000000
     24 O3    c      -0.000042     -0.000050     -0.000411      0.000000
     25 O3    c       0.000417     -0.000167     -0.000664      0.000000
     26 O3    c      -0.006913      0.003281      0.000779      0.000000
     27 O1    c      -0.000257     -0.000813      0.000282      0.000000
     28 O1    c      -0.000074      0.005398     -0.001755      0.000000
     29 O1    c      -0.001485     -0.000390     -0.000329      0.000000
     30 O3    c       0.002540      0.000412     -0.001673      0.000000
     31 O3    c      -0.000628     -0.001120      0.001197      0.000000
     32 O1    c       0.003766     -0.004633     -0.002197      0.000000
     33 O3    c       0.002627     -0.001352     -0.003134      0.000000
     34 O3    c       0.001256     -0.000039      0.000068      0.000000
     35 O3    c      -0.008889      0.000989      0.000971      0.000000
     36 O3    c       0.005540     -0.002584     -0.004529      0.000000
     37 O1    s       0.000922      0.000118     -0.000417      0.000000
     38 O1    s       0.000825     -0.000808      0.000056      0.000000
     39 O1    s       0.000935      0.000789     -0.000709      0.000000
     40 O3    s       0.000235      0.000280      0.002693      0.000000
     41 O3    s       0.000407      0.000877      0.000484      0.000000
     42 O1    s      -0.000205      0.000462     -0.000106      0.000000
     43 O1    s      -0.001528     -0.000467     -0.000429      0.000000
     44 O1    s      -0.000127      0.000470      0.000362      0.000000
     45 O1    s      -0.000571      0.000747      0.000388      0.000000
     46 O3    s       0.000392      0.000111     -0.000243      0.000000
     47 O1    s      -0.000335     -0.000597      0.000776      0.000000
     48 O3    s      -0.000466      0.000552      0.000053      0.000000
     49 O3    s      -0.001408     -0.000047      0.000819      0.000000
     50 O3    s       0.001519     -0.002021      0.001838      0.000000
     51 O1    s       0.000514      0.001229     -0.000990      0.000000
     52 O1    s      -0.000555     -0.001961      0.000125      0.000000
     53 O1    s       0.002441      0.000582     -0.000411      0.000000
     54 O3    s      -0.000957     -0.000425      0.000576      0.000000
     55 O3    s      -0.000869      0.000481     -0.000145      0.000000
     56 O1    s       0.001529      0.001518     -0.000573      0.000000
     57 O3    s      -0.000603      0.001175      0.000131      0.000000
     58 O3    s      -0.001358     -0.000365     -0.000077      0.000000
     59 O3    s       0.002816     -0.000158     -0.000993      0.000000
     60 O3    s      -0.003648      0.001274      0.004111      0.000000
--------------------------------------------------------------------------------
  Maximum abs         0.008889      0.005398      0.005893      0.000000
--------------------------------------------------------------------------------


  Born effective charge tensors : 

-------------------------------------------------------------------------------
  Atom             x           y             z
-------------------------------------------------------------------------------
    1 Ge    x       3.9512      0.2661      0.3081
            y       0.2466      4.1988      0.2400
            z       0.1048      0.2953      3.6403
-------------------------------------------------------------------------------
    2 Ge    x       3.8463     -0.0314      0.2266
            y      -0.3999      4.2211     -0.1144
            z       0.1044     -0.1416      3.6554
-------------------------------------------------------------------------------
    3 Ge    x       3.9585      0.2265      0.2186
            y       0.2633      4.1879      0.1391
            z       0.1676      0.1292      3.6613
-------------------------------------------------------------------------------
    4 Ge    x       4.1449      0.3244     -0.1020
            y       0.2280      4.1879      0.1301
            z       0.1774      0.0222      3.4627
-------------------------------------------------------------------------------
    5 Ge    x       4.0282     -0.0789     -0.0725
            y      -0.3949      4.2325      0.0325
            z       0.0730      0.1154      3.4570
-------------------------------------------------------------------------------
    6 Ge    x       3.9646      0.3231     -0.0325
            y       0.1862      4.1686      0.1539
            z       0.0339      0.0551      3.5262
-------------------------------------------------------------------------------
    7 Ge    x       4.1926     -0.1044      0.1562
            y      -0.3935      4.2021     -0.0867
            z      -0.1259      0.2432      3.2470
-------------------------------------------------------------------------------
    8 Ge    x       4.4087     -0.2432      0.1431
            y       0.1096      3.9021      0.1735
            z      -0.3806     -0.0547      3.5964
-------------------------------------------------------------------------------
    9 Ge    x       3.8953     -0.1018      0.4083
            y       0.2205      3.8959     -0.1373
            z      -0.0588      0.4160      4.3617
-------------------------------------------------------------------------------
   10 Si    x       3.5914     -0.0423      0.0837
            y      -0.3834      3.9918      0.0429
            z       0.4291     -0.2649      3.1666
-------------------------------------------------------------------------------
   11 Si    x       4.2750     -0.2939     -0.2206
            y       0.0654      3.6659      0.0857
            z      -0.1840      0.0137      3.4894
-------------------------------------------------------------------------------
   12 Si    x       3.6445     -0.2105     -0.1947
            y       0.1661      3.6306      0.1719
            z       0.5482      0.0498      4.3088
-------------------------------------------------------------------------------
   13 O1    x      -1.5788     -0.1989      0.3169
            y      -0.1962     -1.5015      0.0925
            z       0.2911      0.1079     -2.5811
-------------------------------------------------------------------------------
   14 O1    x      -1.5658      0.0016      0.3655
            y       0.0773     -1.4386      0.1508
            z       0.3564      0.1594     -2.6761
-------------------------------------------------------------------------------
   15 O1    x      -1.5159     -0.1553      0.3456
            y      -0.1422     -1.4458      0.0498
            z       0.3422      0.0793     -2.7843
-------------------------------------------------------------------------------
   16 O3    x      -1.4221      0.0221      0.2692
            y       0.0979     -1.5109      0.1875
            z       0.2652      0.1861     -2.4323
-------------------------------------------------------------------------------
   17 O3    x      -1.2205      0.0805     -0.0509
            y       0.1430     -2.8663     -0.2606
            z      -0.0655     -0.2547     -1.4375
-------------------------------------------------------------------------------
   18 O1    x      -1.3478      0.2312     -0.0479
            y       0.3290     -3.2948     -0.1174
            z      -0.0322     -0.1033     -1.4051
-------------------------------------------------------------------------------
   19 O1    x      -3.0737     -0.2137     -0.4686
            y      -0.1007     -1.5358     -0.0890
            z      -0.4520     -0.1253     -1.3310
-------------------------------------------------------------------------------
   20 O1    x      -2.9704     -0.2375     -0.4899
            y      -0.1322     -1.5786     -0.0407
            z      -0.5438     -0.0393     -1.3609
-------------------------------------------------------------------------------
   21 O1    x      -2.8420     -0.2643     -0.4270
            y      -0.1763     -1.5769     -0.1733
            z      -0.4417     -0.2508     -1.4604
-------------------------------------------------------------------------------
   22 O3    x      -2.7058     -0.4167     -0.3225
            y      -0.3123     -1.5378      0.0135
            z      -0.3336      0.0469     -1.2781
-------------------------------------------------------------------------------
   23 O1    x      -1.8597     -0.7793     -0.4969
            y      -0.8106     -2.4422     -0.6557
            z      -0.4621     -0.7763     -1.9118
-------------------------------------------------------------------------------
   24 O3    x      -1.6139      0.7121     -0.3206
            y       0.6752     -2.4614      0.4596
            z      -0.4098      0.5011     -1.6795
-------------------------------------------------------------------------------
   25 O3    x      -1.9578     -0.7406     -0.3746
            y      -0.8282     -2.0807     -0.5135
            z      -0.4758     -0.5058     -1.7268
-------------------------------------------------------------------------------
   26 O3    x      -1.8782      0.8250     -0.4210
            y       0.7466     -2.2951      0.5649
            z      -0.3978      0.5869     -1.5932
-------------------------------------------------------------------------------
   27 O1    x      -1.4291      0.0886      0.1268
            y       0.1655     -3.0877     -0.0805
            z       0.1372     -0.0511     -1.3914
-------------------------------------------------------------------------------
   28 O1    x      -1.4758      0.2201      0.1001
            y       0.3064     -3.2664     -0.0719
            z       0.0764     -0.0638     -1.2824
-------------------------------------------------------------------------------
   29 O1    x      -2.4234     -0.9683     -0.0726
            y      -0.9876     -2.2675     -0.0431
            z       0.0074      0.0250     -1.3997
-------------------------------------------------------------------------------
   30 O3    x      -2.0326      0.8457      0.2986
            y       0.8168     -2.4821     -0.2678
            z       0.2560     -0.2260     -1.2547
-------------------------------------------------------------------------------
   31 O3    x      -2.4046     -0.9704      0.1659
            y      -0.9843     -2.1994      0.1251
            z       0.1294      0.1255     -1.2334
-------------------------------------------------------------------------------
   32 O1    x      -2.3998      1.0107     -0.0192
            y       0.9577     -2.5226     -0.0211
            z       0.1296     -0.0658     -1.2180
-------------------------------------------------------------------------------
   33 O3    x      -1.8027      0.2294     -0.6350
            y       0.0996     -1.3211      0.2766
            z      -0.4528      0.3657     -2.4899
-------------------------------------------------------------------------------
   34 O3    x      -2.5262      0.3536      0.7397
            y       0.2330     -1.2589     -0.1160
            z       0.8402     -0.2020     -2.0592
-------------------------------------------------------------------------------
   35 O3    x      -2.4309      0.2080      0.9613
            y       0.0931     -1.2569     -0.1904
            z       0.9033     -0.1750     -2.1671
-------------------------------------------------------------------------------
   36 O3    x      -1.4237      0.0830     -0.4649
            y       0.0155     -1.2560     -0.1103
            z      -0.5569     -0.2233     -3.4191
-------------------------------------------------------------------------------




  Elastic Constant Matrix: (Units=GPa)

-------------------------------------------------------------------------------
  Indices      1         2         3         4         5         6    
-------------------------------------------------------------------------------
       1     40.0482   18.3665   11.8540    1.0951    4.2456  -10.3482
       2     18.3665   38.7806   13.1251    5.2031    6.3421   -6.8770
       3     11.8540   13.1251   26.2385    7.7380    7.9862    2.5149
       4      1.0951    5.2031    7.7380    9.1634    4.6948    3.2302
       5      4.2456    6.3421    7.9862    4.6948    9.3188    3.7134
       6    -10.3482   -6.8770    2.5149    3.2302    3.7134   21.5277
-------------------------------------------------------------------------------


  Elastic Compliance Matrix: (Units=1/GPa)

-------------------------------------------------------------------------------
  Indices      1         2         3         4         5         6    
-------------------------------------------------------------------------------
       1    0.039530 -0.010554 -0.014582  0.013680 -0.012146  0.017376
       2   -0.010554  0.039858 -0.008752 -0.011176 -0.014298  0.012825
       3   -0.014582 -0.008752  0.067620 -0.034954 -0.024457 -0.008241
       4    0.013680 -0.011176 -0.034954  0.173590 -0.052157 -0.009961
       5   -0.012146 -0.014298 -0.024457 -0.052157  0.182226 -0.031156
       6    0.017376  0.012825 -0.008241 -0.009961 -0.031156  0.066733
-------------------------------------------------------------------------------

  Mechanical properties :

-------------------------------------------------------------------------------
  Convention :                    Reuss         Voigt         Hill
-------------------------------------------------------------------------------
  Bulk  Modulus (GPa)     =      12.62110      21.30650      16.96380
  Shear Modulus (GPa)     =       7.53304      12.11677       9.82490
-------------------------------------------------------------------------------
  Velocity S-wave (km/s)  =       1.66318       2.10935       1.89941
  Velocity P-wave (km/s)  =       2.88492       3.70895       3.32258
-------------------------------------------------------------------------------
  Compressibility (1/GPa) =    0.07923243
-------------------------------------------------------------------------------
  Stress axis :                     x             y             z
-------------------------------------------------------------------------------
  Youngs Moduli (GPa)     =      25.29744      25.08885      14.78858
-------------------------------------------------------------------------------
  Poissons Ratio (x)      =                     0.26478       0.21565
  Poissons Ratio (y)      =       0.26698                     0.12942
  Poissons Ratio (z)      =       0.36890       0.21957
-------------------------------------------------------------------------------


  Piezoelectric Strain Matrix: (Units=C/m**2)

-------------------------------------------------------------------------------
  Indices      1         2         3         4         5         6    
-------------------------------------------------------------------------------
       x    -1.83317  -0.97667  -0.01842  -0.05440   0.12588   0.58697
       y    -0.21423   0.17760   0.28143   0.25298   0.04858   0.05694
       z    -1.03588  -0.93946  -1.10793  -1.09134   1.01969   0.17009
-------------------------------------------------------------------------------


  Piezoelectric Stress Matrix: (Units=10**-11 C/N)

-------------------------------------------------------------------------------
  Indices      1         2         3         4         5         6    
-------------------------------------------------------------------------------
       x    -5.39624  -1.30841   2.80196  -3.53754   4.41689  -0.84371
       y    -1.05865   0.40849   1.00998   2.60614  -1.29355  -0.39980
       z    -3.92368  -1.70182  -3.97846 -20.92696  29.05465  -3.04653
-------------------------------------------------------------------------------


  Static dielectric constant tensor : 

-------------------------------------------------------------------------------
              x         y         z
-------------------------------------------------------------------------------
       x     5.42815   0.05038   0.35728
       y     0.05038   5.86598   0.35101
       z     0.35728   0.35101   4.15208
--------------------------------------------------------------------------------

  High frequency dielectric constant tensor : 

-------------------------------------------------------------------------------
              x         y         z
-------------------------------------------------------------------------------
       x     1.57727  -0.00259   0.00831
       y    -0.00259   1.58136   0.00695
       z     0.00831   0.00695   1.53834
-------------------------------------------------------------------------------

  Static refractive indices : 

-------------------------------------------------------------------------------
    1 =    2.00029      2 =    2.34103      3 =    2.44226
-------------------------------------------------------------------------------

  High frequency refractive indices : 

-------------------------------------------------------------------------------
    1 =    1.23914      2 =    1.25644      3 =    1.25812
-------------------------------------------------------------------------------


  Time to end of optimisation =       2.8861 seconds


  Peak dynamic memory used =       2.76 MB 


  Timing analysis for GULP :

--------------------------------------------------------------------------------
  Task / Subroutine                                          Time (Seconds)
--------------------------------------------------------------------------------
  Calculation of reciprocal space energy and derivatives          0.1702
  Calculation of real space energy and derivatives                2.4378
  Calculation of three-body energy and derivatives                0.0199
  Calculation and manipulation of Hessian matrix                  0.3490
  Calculation of matrix inversion                                 0.0028
--------------------------------------------------------------------------------
  Total CPU time                                                  2.8861
--------------------------------------------------------------------------------


  Dump file written as c00021.vasp.grs
  CIF file written as c00021.vasp.cif


  Job Finished at 11:24.46 22nd October    2025                               

