|===============================================================================
|
|  DFTB+ release 24.1
|
|  Copyright (C) 2006 - 2024  DFTB+ developers group
|
|===============================================================================
|
|  When publishing results obtained with DFTB+, please cite the following
|  reference:
|
|  * DFTB+, a software package for efficient approximate density functional
|    theory based atomistic simulations, J. Chem. Phys. 152, 124101 (2020).
|    [doi: 10.1063/1.5143190]
|
|  You should also cite additional publications crediting the parametrization
|  data you use. Please consult the documentation of the SK-files for the
|  references.
|
|===============================================================================

Reading input file 'dftb_in.hsd'
Parser version: 14

--------------------------------------------------------------------------------
Reading SK-files:
./SKFiles/Ge-Ge.skf
./SKFiles/Ge-Si.skf
./SKFiles/Ge-O.skf
./SKFiles/Si-Si.skf
./SKFiles/Si-O.skf
./SKFiles/O-O.skf
Done.


Processed input in HSD format written to 'dftb_pin.hsd'

Starting initialization...
--------------------------------------------------------------------------------
WARNING!
-> Dipole printed for extended system : value printed is not well defined
MPI processes:               1
OpenMP threads:              8
BLACS orbital grid size:     1 x 1
BLACS atom grid size:        1 x 1
Chosen random seed:          116041691
Current stacksize:           unlimited
Mode:                        Static calculation
Self consistent charges:     Yes
SCC-tolerance:                 0.100000E-07
Max. scc iterations:                    500
Shell resolved Hubbard:      No
Spin polarisation:           No
Nr. of up electrons:           192.000000
Nr. of down electrons:         192.000000
Periodic boundaries:         Yes
Electronic solver:           Relatively robust
Mixer:                       Broyden mixer
Mixing parameter:                  0.200000
Maximal SCC-cycles:                     500
Nr. of chrg. vec. in memory:            500
Electronic temperature:              0.100000E-07 H      0.272114E-06 eV
Initial charges:             Set automatically (system chrg:   0.000E+00)
Included shells:            Ge:  s, p, d
                            Si:  s, p, d
                             O:  s, p
K-points and weights:           1:  0.500000  0.500000  0.500000     1.000000

K-points in absolute space:     1:  0.025319  0.017606  0.037774

Extra options:
                             Mulliken analysis
Force type                   original

--------------------------------------------------------------------------------

***  Geometry step: 0

 iSCC Total electronic   Diff electronic      SCC error    
    1    0.00000000E+00    0.00000000E+00    0.14597499E+01
    2   -0.19467678E+03   -0.19467678E+03    0.99399598E+00
    3   -0.19504423E+03   -0.36745733E+00    0.39322559E-01
    4   -0.19536160E+03   -0.31736587E+00    0.27237615E-01
    5   -0.19536358E+03   -0.19838749E-02    0.42388648E-02
    6   -0.19536372E+03   -0.13924417E-03    0.16714937E-02
    7   -0.19536373E+03   -0.34607885E-05    0.38261353E-03
    8   -0.19536373E+03   -0.11804707E-05    0.50951112E-04
    9   -0.19536373E+03   -0.55101708E-07    0.23123402E-04
   10   -0.19536373E+03   -0.18221158E-09    0.10430500E-05
   11   -0.19536373E+03   -0.79467100E-10    0.31901270E-06
   12   -0.19536373E+03   -0.17337243E-11    0.18375139E-06
   13   -0.19536373E+03    0.56843419E-13    0.16511252E-07
   14   -0.19536373E+03   -0.28421709E-13    0.20699855E-08

Total Energy:                     -191.9492894072 H        -5223.2059 eV
Extrapolated to 0K:               -191.9492894072 H        -5223.2059 eV
Total Mermin free energy:         -191.9492894072 H        -5223.2059 eV
Force related energy:             -191.9492894072 H        -5223.2059 eV

Volume:                              0.913789E+04 au^3   0.135410E+04 A^3
Pressure:                            0.626407E-03 au     0.184295E+11 Pa
>> Charges saved for restart in charges.bin

total energy  -1.9194929E+02 H       energy change -1.9194929E+02 H
gradient norm  7.4811140E-01 H/a0    max. gradient  4.4313794E-01 H/a0
step length    0.0000000E+00 a0      max. step      0.0000000E+00 a0

--------------------------------------------------------------------------------

***  Geometry step: 1

 iSCC Total electronic   Diff electronic      SCC error    
    1   -0.19536373E+03    0.00000000E+00    0.95005710E-01
    2   -0.19500219E+03    0.36153490E+00    0.47966637E-01
    3   -0.19500858E+03   -0.63878971E-02    0.16006290E-01
    4   -0.19500995E+03   -0.13697035E-02    0.94878378E-03
    5   -0.19500996E+03   -0.13194170E-04    0.29513451E-03
    6   -0.19500996E+03   -0.52226829E-06    0.12324280E-03
    7   -0.19500996E+03   -0.35614249E-07    0.15055646E-04
    8   -0.19500996E+03   -0.34974335E-08    0.22211134E-05
    9   -0.19500996E+03   -0.16885338E-09    0.67781221E-06
   10   -0.19500996E+03   -0.27284841E-11    0.23379052E-06
   11   -0.19500996E+03   -0.85265128E-13    0.29002914E-07
   12   -0.19500996E+03   -0.56843419E-13    0.64580647E-08

Total Energy:                     -192.0405542668 H        -5225.6894 eV
Extrapolated to 0K:               -192.0405542668 H        -5225.6894 eV
Total Mermin free energy:         -192.0405542668 H        -5225.6894 eV
Force related energy:             -192.0405542668 H        -5225.6894 eV

Volume:                              0.946949E+04 au^3   0.140323E+04 A^3
Pressure:                            0.409703E-03 au     0.120539E+11 Pa
>> Charges saved for restart in charges.bin

total energy  -1.9204055E+02 H       energy change -9.1264860E-02 H
gradient norm  5.8531599E-01 H/a0    max. gradient  1.8416801E-01 H/a0
step length    5.3443514E-01 a0      max. step      3.1656847E-01 a0

--------------------------------------------------------------------------------

***  Geometry step: 2

 iSCC Total electronic   Diff electronic      SCC error    
    1   -0.19500996E+03    0.00000000E+00    0.42596836E-01
    2   -0.19495465E+03    0.55311882E-01    0.16748229E-01
    3   -0.19495680E+03   -0.21468831E-02    0.34497106E-02
    4   -0.19495729E+03   -0.49099609E-03    0.76498915E-03
    5   -0.19495729E+03   -0.38192129E-05    0.14979603E-03
    6   -0.19495729E+03   -0.21169899E-06    0.39408336E-04
    7   -0.19495729E+03   -0.18342803E-07    0.99894934E-05
    8   -0.19495729E+03   -0.14332500E-08    0.12474395E-05
    9   -0.19495729E+03   -0.21714186E-10    0.17044500E-06
   10   -0.19495729E+03   -0.15063506E-11    0.79235194E-07
   11   -0.19495729E+03    0.28421709E-13    0.21003881E-07
   12   -0.19495729E+03   -0.56843419E-13    0.16050876E-08

Total Energy:                     -192.1598213544 H        -5228.9348 eV
Extrapolated to 0K:               -192.1598213544 H        -5228.9348 eV
Total Mermin free energy:         -192.1598213544 H        -5228.9348 eV
Force related energy:             -192.1598213544 H        -5228.9348 eV

Volume:                              0.945908E+04 au^3   0.140169E+04 A^3
Pressure:                            0.351486E-03 au     0.103411E+11 Pa
>> Charges saved for restart in charges.bin

total energy  -1.9215982E+02 H       energy change -1.1926709E-01 H
gradient norm  2.7842782E-01 H/a0    max. gradient  5.3703152E-02 H/a0
step length    3.2745063E-01 a0      max. step      7.0860039E-02 a0

--------------------------------------------------------------------------------

***  Geometry step: 3

 iSCC Total electronic   Diff electronic      SCC error    
    1   -0.19495729E+03    0.00000000E+00    0.37488060E-01
    2   -0.19481947E+03    0.13782015E+00    0.17543058E-01
    3   -0.19482093E+03   -0.14589275E-02    0.47992706E-02
    4   -0.19482127E+03   -0.33607357E-03    0.82944583E-03
    5   -0.19482127E+03   -0.36407869E-05    0.13812271E-03
    6   -0.19482127E+03   -0.27400927E-06    0.30144103E-04
    7   -0.19482127E+03   -0.79593576E-08    0.73527724E-05
    8   -0.19482127E+03   -0.74362561E-09    0.11337669E-05
    9   -0.19482127E+03   -0.11084467E-10    0.12304823E-06
   10   -0.19482127E+03   -0.85265128E-12    0.56623789E-07
   11   -0.19482127E+03    0.56843419E-13    0.16668396E-07
   12   -0.19482127E+03    0.28421709E-13    0.17630502E-08

Total Energy:                     -192.2301091249 H        -5230.8474 eV
Extrapolated to 0K:               -192.2301091249 H        -5230.8474 eV
Total Mermin free energy:         -192.2301091249 H        -5230.8474 eV
Force related energy:             -192.2301091249 H        -5230.8474 eV

Volume:                              0.949147E+04 au^3   0.140649E+04 A^3
Pressure:                            0.276845E-03 au     0.814505E+10 Pa
>> Charges saved for restart in charges.bin

total energy  -1.9223011E+02 H       energy change -7.0287770E-02 H
gradient norm  2.0086912E-01 H/a0    max. gradient  1.0520676E-01 H/a0
step length    4.3457825E-01 a0      max. step      8.5638507E-02 a0

--------------------------------------------------------------------------------

***  Geometry step: 4

 iSCC Total electronic   Diff electronic      SCC error    
    1   -0.19482127E+03    0.00000000E+00    0.22461841E-01
    2   -0.19459865E+03    0.22262386E+00    0.12905677E-01
    3   -0.19459911E+03   -0.45849397E-03    0.34455741E-02
    4   -0.19459923E+03   -0.12749818E-03    0.37665699E-03
    5   -0.19459924E+03   -0.30162111E-05    0.88462804E-04
    6   -0.19459924E+03   -0.17521100E-06    0.38306101E-04
    7   -0.19459924E+03   -0.31097898E-08    0.61209729E-05
    8   -0.19459924E+03   -0.35490189E-09    0.69783963E-06
    9   -0.19459924E+03   -0.10516032E-10    0.27589285E-06
   10   -0.19459924E+03   -0.48316906E-12    0.55291419E-07
   11   -0.19459924E+03   -0.28421709E-13    0.11540180E-07
   12   -0.19459924E+03    0.56843419E-13    0.19263480E-08

Total Energy:                     -192.2664171822 H        -5231.8354 eV
Extrapolated to 0K:               -192.2664171822 H        -5231.8354 eV
Total Mermin free energy:         -192.2664171822 H        -5231.8354 eV
Force related energy:             -192.2664171822 H        -5231.8354 eV

Volume:                              0.961426E+04 au^3   0.142469E+04 A^3
Pressure:                            0.172767E-03 au     0.508298E+10 Pa
>> Charges saved for restart in charges.bin

total energy  -1.9226642E+02 H       energy change -3.6308057E-02 H
gradient norm  1.6252727E-01 H/a0    max. gradient  6.8242800E-02 H/a0
step length    3.9195534E-01 a0      max. step      1.0518012E-01 a0

--------------------------------------------------------------------------------

***  Geometry step: 5

 iSCC Total electronic   Diff electronic      SCC error    
    1   -0.19459924E+03    0.00000000E+00    0.35468826E-01
    2   -0.19439606E+03    0.20317746E+00    0.15023087E-01
    3   -0.19439679E+03   -0.72591051E-03    0.30713245E-02
    4   -0.19439694E+03   -0.15914953E-03    0.46192677E-03
    5   -0.19439695E+03   -0.30737477E-05    0.13218958E-03
    6   -0.19439695E+03   -0.17078682E-06    0.69795222E-04
    7   -0.19439695E+03   -0.29234286E-08    0.65704172E-05
    8   -0.19439695E+03   -0.35399239E-09    0.13789730E-05
    9   -0.19439695E+03   -0.26062708E-10    0.42082597E-06
   10   -0.19439695E+03   -0.59685590E-12    0.55968652E-07
   11   -0.19439695E+03    0.00000000E+00    0.91434780E-08

Total Energy:                     -192.2852796005 H        -5232.3487 eV
Extrapolated to 0K:               -192.2852796005 H        -5232.3487 eV
Total Mermin free energy:         -192.2852796005 H        -5232.3487 eV
Force related energy:             -192.2852796005 H        -5232.3487 eV

Volume:                              0.971608E+04 au^3   0.143978E+04 A^3
Pressure:                            0.848075E-04 au     0.249512E+10 Pa
>> Charges saved for restart in charges.bin

total energy  -1.9228528E+02 H       energy change -1.8862418E-02 H
gradient norm  1.7270788E-01 H/a0    max. gradient  1.0356288E-01 H/a0
step length    4.2162467E-01 a0      max. step      1.1772015E-01 a0

--------------------------------------------------------------------------------

***  Geometry step: 6

 iSCC Total electronic   Diff electronic      SCC error    
    1   -0.19439695E+03    0.00000000E+00    0.28210628E-01
    2   -0.19433216E+03    0.64785865E-01    0.12523745E-01
    3   -0.19433255E+03   -0.38878487E-03    0.15500316E-02
    4   -0.19433264E+03   -0.91232088E-04    0.33948191E-03
    5   -0.19433264E+03   -0.52845473E-06    0.52003821E-04
    6   -0.19433264E+03   -0.25425493E-07    0.12620144E-04
    7   -0.19433264E+03   -0.91642960E-09    0.21233213E-05
    8   -0.19433264E+03   -0.14918555E-09    0.54956110E-06
    9   -0.19433264E+03   -0.21600499E-11    0.61240541E-07
   10   -0.19433264E+03   -0.14210855E-12    0.11269662E-07
   11   -0.19433264E+03   -0.28421709E-13    0.52028999E-08

Total Energy:                     -192.2963626358 H        -5232.6503 eV
Extrapolated to 0K:               -192.2963626358 H        -5232.6503 eV
Total Mermin free energy:         -192.2963626358 H        -5232.6503 eV
Force related energy:             -192.2963626358 H        -5232.6503 eV

Volume:                              0.974550E+04 au^3   0.144413E+04 A^3
Pressure:                            0.527264E-04 au     0.155126E+10 Pa
>> Charges saved for restart in charges.bin

total energy  -1.9229636E+02 H       energy change -1.1083035E-02 H
gradient norm  8.4019688E-02 H/a0    max. gradient  2.3301297E-02 H/a0
step length    1.9624563E-01 a0      max. step      4.7425829E-02 a0

--------------------------------------------------------------------------------

***  Geometry step: 7

 iSCC Total electronic   Diff electronic      SCC error    
    1   -0.19433264E+03    0.00000000E+00    0.15182649E-01
    2   -0.19432457E+03    0.80692225E-02    0.68945970E-02
    3   -0.19432475E+03   -0.17927081E-03    0.16463605E-02
    4   -0.19432480E+03   -0.43880114E-04    0.19030314E-03
    5   -0.19432480E+03   -0.41283229E-06    0.43088082E-04
    6   -0.19432480E+03   -0.31084710E-07    0.17787189E-04
    7   -0.19432480E+03   -0.46134119E-09    0.39780700E-05
    8   -0.19432480E+03   -0.49396931E-10    0.42714285E-06
    9   -0.19432480E+03   -0.23305802E-11    0.13456291E-06
   10   -0.19432480E+03   -0.85265128E-13    0.15538961E-07
   11   -0.19432480E+03    0.00000000E+00    0.22157778E-08

Total Energy:                     -192.3034574230 H        -5232.8433 eV
Extrapolated to 0K:               -192.3034574230 H        -5232.8433 eV
Total Mermin free energy:         -192.3034574230 H        -5232.8433 eV
Force related energy:             -192.3034574230 H        -5232.8433 eV

Volume:                              0.974691E+04 au^3   0.144434E+04 A^3
Pressure:                            0.465955E-04 au     0.137089E+10 Pa
>> Charges saved for restart in charges.bin

total energy  -1.9230346E+02 H       energy change -7.0947872E-03 H
gradient norm  7.2451111E-02 H/a0    max. gradient  3.1435783E-02 H/a0
step length    1.4688901E-01 a0      max. step      3.3139477E-02 a0

--------------------------------------------------------------------------------

***  Geometry step: 8

 iSCC Total electronic   Diff electronic      SCC error    
    1   -0.19432480E+03    0.00000000E+00    0.11522368E-01
    2   -0.19432283E+03    0.19625887E-02    0.69422026E-02
    3   -0.19432298E+03   -0.14211161E-03    0.19161516E-02
    4   -0.19432301E+03   -0.36244192E-04    0.19230471E-03
    5   -0.19432301E+03   -0.82511721E-06    0.38157286E-04
    6   -0.19432301E+03   -0.51629229E-07    0.14540663E-04
    7   -0.19432301E+03   -0.16849242E-08    0.49087256E-05
    8   -0.19432301E+03   -0.11772272E-09    0.41359506E-06
    9   -0.19432301E+03   -0.35811354E-11    0.94127512E-07
   10   -0.19432301E+03   -0.28421709E-12    0.21611371E-07
   11   -0.19432301E+03   -0.85265128E-13    0.38601464E-08

Total Energy:                     -192.3100298283 H        -5233.0222 eV
Extrapolated to 0K:               -192.3100298283 H        -5233.0222 eV
Total Mermin free energy:         -192.3100298283 H        -5233.0222 eV
Force related energy:             -192.3100298283 H        -5233.0222 eV

Volume:                              0.974441E+04 au^3   0.144397E+04 A^3
Pressure:                            0.412277E-04 au     0.121296E+10 Pa
>> Charges saved for restart in charges.bin

total energy  -1.9231003E+02 H       energy change -6.5724053E-03 H
gradient norm  6.3007412E-02 H/a0    max. gradient  3.6868072E-02 H/a0
step length    2.1460454E-01 a0      max. step      4.7993346E-02 a0

--------------------------------------------------------------------------------

***  Geometry step: 9

 iSCC Total electronic   Diff electronic      SCC error    
    1   -0.19432301E+03    0.00000000E+00    0.69874968E-02
    2   -0.19432545E+03   -0.24326621E-02    0.40950469E-02
    3   -0.19432552E+03   -0.70215959E-04    0.11683129E-02
    4   -0.19432553E+03   -0.17289105E-04    0.13650368E-03
    5   -0.19432553E+03   -0.50300889E-06    0.40296836E-04
    6   -0.19432553E+03   -0.45570232E-07    0.72277922E-05
    7   -0.19432553E+03   -0.18441142E-08    0.26563623E-05
    8   -0.19432553E+03   -0.64062533E-10    0.43023197E-06
    9   -0.19432553E+03   -0.32116532E-11    0.69834762E-07
   10   -0.19432553E+03   -0.11368684E-12    0.19256579E-07
   11   -0.19432553E+03    0.28421709E-13    0.19392798E-08

Total Energy:                     -192.3132608050 H        -5233.1101 eV
Extrapolated to 0K:               -192.3132608050 H        -5233.1101 eV
Total Mermin free energy:         -192.3132608050 H        -5233.1101 eV
Force related energy:             -192.3132608050 H        -5233.1101 eV

Volume:                              0.973780E+04 au^3   0.144299E+04 A^3
Pressure:                            0.409618E-04 au     0.120514E+10 Pa
>> Charges saved for restart in charges.bin

total energy  -1.9231326E+02 H       energy change -3.2309766E-03 H
gradient norm  4.1709639E-02 H/a0    max. gradient  8.7073085E-03 H/a0
step length    1.6223281E-01 a0      max. step      3.3791819E-02 a0

--------------------------------------------------------------------------------

***  Geometry step: 10

 iSCC Total electronic   Diff electronic      SCC error    
    1   -0.19432553E+03    0.00000000E+00    0.68848807E-02
    2   -0.19431744E+03    0.80947969E-02    0.29096203E-02
    3   -0.19431750E+03   -0.58087843E-04    0.92431239E-03
    4   -0.19431751E+03   -0.12809539E-04    0.11272787E-03
    5   -0.19431751E+03   -0.26544063E-06    0.24766145E-04
    6   -0.19431751E+03   -0.17894990E-07    0.52683746E-05
    7   -0.19431751E+03   -0.70346573E-09    0.13342376E-05
    8   -0.19431751E+03   -0.48089532E-10    0.28657168E-06
    9   -0.19431751E+03   -0.21884716E-11    0.62247310E-07
   10   -0.19431751E+03    0.28421709E-13    0.81028317E-08

Total Energy:                     -192.3155257882 H        -5233.1717 eV
Extrapolated to 0K:               -192.3155257882 H        -5233.1717 eV
Total Mermin free energy:         -192.3155257882 H        -5233.1717 eV
Force related energy:             -192.3155257882 H        -5233.1717 eV

Volume:                              0.974261E+04 au^3   0.144371E+04 A^3
Pressure:                            0.360733E-04 au     0.106131E+10 Pa
>> Charges saved for restart in charges.bin

total energy  -1.9231553E+02 H       energy change -2.2649833E-03 H
gradient norm  3.5216630E-02 H/a0    max. gradient  1.0611266E-02 H/a0
step length    1.5154428E-01 a0      max. step      2.7580470E-02 a0

--------------------------------------------------------------------------------

***  Geometry step: 11

 iSCC Total electronic   Diff electronic      SCC error    
    1   -0.19431751E+03    0.00000000E+00    0.63572879E-02
    2   -0.19430936E+03    0.81535994E-02    0.34023937E-02
    3   -0.19430940E+03   -0.41711397E-04    0.10792010E-02
    4   -0.19430941E+03   -0.91873368E-05    0.11996749E-03
    5   -0.19430941E+03   -0.18166452E-06    0.28202354E-04
    6   -0.19430941E+03   -0.15054979E-07    0.95618060E-05
    7   -0.19430941E+03   -0.47708681E-09    0.29775587E-05
    8   -0.19430941E+03   -0.22509994E-10    0.33725016E-06
    9   -0.19430941E+03   -0.13926638E-11    0.85146402E-07
   10   -0.19430941E+03   -0.85265128E-13    0.11238784E-07
   11   -0.19430941E+03    0.85265128E-13    0.14361010E-08

Total Energy:                     -192.3172265857 H        -5233.2180 eV
Extrapolated to 0K:               -192.3172265857 H        -5233.2180 eV
Total Mermin free energy:         -192.3172265857 H        -5233.2180 eV
Force related energy:             -192.3172265857 H        -5233.2180 eV

Volume:                              0.975306E+04 au^3   0.144526E+04 A^3
Pressure:                            0.307008E-04 au     0.903250E+09 Pa
>> Charges saved for restart in charges.bin

total energy  -1.9231723E+02 H       energy change -1.7007975E-03 H
gradient norm  3.5235729E-02 H/a0    max. gradient  1.6916199E-02 H/a0
step length    1.1921602E-01 a0      max. step      2.2073882E-02 a0

--------------------------------------------------------------------------------

***  Geometry step: 12

 iSCC Total electronic   Diff electronic      SCC error    
    1   -0.19430941E+03    0.00000000E+00    0.75509990E-02
    2   -0.19430313E+03    0.62804881E-02    0.42219741E-02
    3   -0.19430317E+03   -0.39548154E-04    0.11010617E-02
    4   -0.19430318E+03   -0.96967172E-05    0.12769296E-03
    5   -0.19430318E+03   -0.22254909E-06    0.34216116E-04
    6   -0.19430318E+03   -0.12943559E-07    0.14929372E-04
    7   -0.19430318E+03   -0.15106139E-09    0.26554444E-05
    8   -0.19430318E+03   -0.16513013E-10    0.27565829E-06
    9   -0.19430318E+03   -0.10800250E-11    0.86540134E-07
   10   -0.19430318E+03   -0.14210855E-12    0.76172642E-08

Total Energy:                     -192.3189398275 H        -5233.2646 eV
Extrapolated to 0K:               -192.3189398275 H        -5233.2646 eV
Total Mermin free energy:         -192.3189398275 H        -5233.2646 eV
Force related energy:             -192.3189398275 H        -5233.2646 eV

Volume:                              0.977004E+04 au^3   0.144777E+04 A^3
Pressure:                            0.265692E-04 au     0.781692E+09 Pa
>> Charges saved for restart in charges.bin

total energy  -1.9231894E+02 H       energy change -1.7132418E-03 H
gradient norm  3.4541588E-02 H/a0    max. gradient  1.5100578E-02 H/a0
step length    1.3207261E-01 a0      max. step      2.3950962E-02 a0

--------------------------------------------------------------------------------

***  Geometry step: 13

 iSCC Total electronic   Diff electronic      SCC error    
    1   -0.19430318E+03    0.00000000E+00    0.51503336E-02
    2   -0.19429552E+03    0.76595407E-02    0.31702439E-02
    3   -0.19429554E+03   -0.17306539E-04    0.73521995E-03
    4   -0.19429554E+03   -0.42098986E-05    0.99024532E-04
    5   -0.19429554E+03   -0.18324937E-06    0.36544754E-04
    6   -0.19429554E+03   -0.65606969E-08    0.12146430E-04
    7   -0.19429554E+03   -0.13596946E-09    0.15856699E-05
    8   -0.19429554E+03   -0.10942358E-10    0.22993302E-06
    9   -0.19429554E+03   -0.93791641E-12    0.51409664E-07
   10   -0.19429554E+03   -0.56843419E-13    0.56342215E-08

Total Energy:                     -192.3203846172 H        -5233.3039 eV
Extrapolated to 0K:               -192.3203846172 H        -5233.3039 eV
Total Mermin free energy:         -192.3203846172 H        -5233.3039 eV
Force related energy:             -192.3203846172 H        -5233.3039 eV

Volume:                              0.979102E+04 au^3   0.145088E+04 A^3
Pressure:                            0.220617E-04 au     0.649077E+09 Pa
>> Charges saved for restart in charges.bin

total energy  -1.9232038E+02 H       energy change -1.4447898E-03 H
gradient norm  2.9917634E-02 H/a0    max. gradient  1.1936299E-02 H/a0
step length    1.3041531E-01 a0      max. step      2.5081470E-02 a0

--------------------------------------------------------------------------------

***  Geometry step: 14

 iSCC Total electronic   Diff electronic      SCC error    
    1   -0.19429554E+03    0.00000000E+00    0.52790627E-02
    2   -0.19428975E+03    0.57936978E-02    0.26904802E-02
    3   -0.19428977E+03   -0.25960363E-04    0.75578932E-03
    4   -0.19428978E+03   -0.54415309E-05    0.13172141E-03
    5   -0.19428978E+03   -0.17943290E-06    0.26463399E-04
    6   -0.19428978E+03   -0.15203199E-07    0.94927334E-05
    7   -0.19428978E+03   -0.34168579E-09    0.21085564E-05
    8   -0.19428978E+03   -0.19696245E-10    0.29411023E-06
    9   -0.19428978E+03   -0.96633812E-12    0.50462458E-07
   10   -0.19428978E+03    0.00000000E+00    0.90903645E-08

Total Energy:                     -192.3215996803 H        -5233.3370 eV
Extrapolated to 0K:               -192.3215996803 H        -5233.3370 eV
Total Mermin free energy:         -192.3215996803 H        -5233.3370 eV
Force related energy:             -192.3215996803 H        -5233.3370 eV

Volume:                              0.981242E+04 au^3   0.145405E+04 A^3
Pressure:                            0.177310E-04 au     0.521665E+09 Pa
>> Charges saved for restart in charges.bin

total energy  -1.9232160E+02 H       energy change -1.2150631E-03 H
gradient norm  2.3543134E-02 H/a0    max. gradient  4.6883174E-03 H/a0
step length    1.3026596E-01 a0      max. step      2.6027014E-02 a0

--------------------------------------------------------------------------------

***  Geometry step: 15

 iSCC Total electronic   Diff electronic      SCC error    
    1   -0.19428978E+03    0.00000000E+00    0.46175145E-02
    2   -0.19428985E+03   -0.68157163E-04    0.21170505E-02
    3   -0.19428987E+03   -0.23929739E-04    0.59600820E-03
    4   -0.19428987E+03   -0.50999784E-05    0.97654923E-04
    5   -0.19428987E+03   -0.99160332E-07    0.13384651E-04
    6   -0.19428987E+03   -0.10488350E-07    0.35215765E-05
    7   -0.19428987E+03   -0.34498271E-09    0.11283211E-05
    8   -0.19428987E+03   -0.18701485E-10    0.32289263E-06
    9   -0.19428987E+03   -0.71054274E-12    0.35304461E-07
   10   -0.19428987E+03    0.00000000E+00    0.37109107E-08

Total Energy:                     -192.3224726103 H        -5233.3608 eV
Extrapolated to 0K:               -192.3224726103 H        -5233.3608 eV
Total Mermin free energy:         -192.3224726103 H        -5233.3608 eV
Force related energy:             -192.3224726103 H        -5233.3608 eV

Volume:                              0.982722E+04 au^3   0.145624E+04 A^3
Pressure:                            0.159098E-04 au     0.468081E+09 Pa
>> Charges saved for restart in charges.bin

total energy  -1.9232247E+02 H       energy change -8.7292997E-04 H
gradient norm  2.3124629E-02 H/a0    max. gradient  5.2154215E-03 H/a0
step length    1.0233655E-01 a0      max. step      2.0164903E-02 a0

--------------------------------------------------------------------------------

***  Geometry step: 16

 iSCC Total electronic   Diff electronic      SCC error    
    1   -0.19428987E+03    0.00000000E+00    0.36177757E-02
    2   -0.19429276E+03   -0.28827545E-02    0.18575643E-02
    3   -0.19429278E+03   -0.18681140E-04    0.53411942E-03
    4   -0.19429278E+03   -0.39479457E-05    0.84566020E-04
    5   -0.19429278E+03   -0.73315277E-07    0.14963854E-04
    6   -0.19429278E+03   -0.76759648E-08    0.45385566E-05
    7   -0.19429278E+03   -0.26096814E-09    0.13335791E-05
    8   -0.19429278E+03   -0.98054898E-11    0.31078123E-06
    9   -0.19429278E+03   -0.48316906E-12    0.48847594E-07
   10   -0.19429278E+03   -0.11368684E-12    0.93828119E-08

Total Energy:                     -192.3232336737 H        -5233.3815 eV
Extrapolated to 0K:               -192.3232336737 H        -5233.3815 eV
Total Mermin free energy:         -192.3232336737 H        -5233.3815 eV
Force related energy:             -192.3232336737 H        -5233.3815 eV

Volume:                              0.983852E+04 au^3   0.145792E+04 A^3
Pressure:                            0.153257E-04 au     0.450899E+09 Pa
>> Charges saved for restart in charges.bin

total energy  -1.9232323E+02 H       energy change -7.6106341E-04 H
gradient norm  2.3578946E-02 H/a0    max. gradient  6.9645806E-03 H/a0
step length    9.7834519E-02 a0      max. step      1.7590110E-02 a0

--------------------------------------------------------------------------------

***  Geometry step: 17

 iSCC Total electronic   Diff electronic      SCC error    
    1   -0.19429278E+03    0.00000000E+00    0.38049150E-02
    2   -0.19429504E+03   -0.22646352E-02    0.21018953E-02
    3   -0.19429506E+03   -0.10689963E-04    0.55284957E-03
    4   -0.19429506E+03   -0.22058523E-05    0.84843288E-04
    5   -0.19429506E+03   -0.54712842E-07    0.19249108E-04
    6   -0.19429506E+03   -0.48964637E-08    0.52228818E-05
    7   -0.19429506E+03   -0.10666668E-09    0.13792820E-05
    8   -0.19429506E+03   -0.29842795E-11    0.25681536E-06
    9   -0.19429506E+03   -0.45474735E-12    0.47831782E-07
   10   -0.19429506E+03    0.00000000E+00    0.69615660E-08

Total Energy:                     -192.3240123341 H        -5233.4026 eV
Extrapolated to 0K:               -192.3240123341 H        -5233.4026 eV
Total Mermin free energy:         -192.3240123341 H        -5233.4026 eV
Force related energy:             -192.3240123341 H        -5233.4026 eV

Volume:                              0.985054E+04 au^3   0.145970E+04 A^3
Pressure:                            0.150777E-04 au     0.443601E+09 Pa
>> Charges saved for restart in charges.bin

total energy  -1.9232401E+02 H       energy change -7.7866041E-04 H
gradient norm  2.1493504E-02 H/a0    max. gradient  4.7701607E-03 H/a0
step length    1.0876952E-01 a0      max. step      1.9427622E-02 a0

--------------------------------------------------------------------------------

***  Geometry step: 18

 iSCC Total electronic   Diff electronic      SCC error    
    1   -0.19429506E+03    0.00000000E+00    0.34025701E-02
    2   -0.19429283E+03    0.22265234E-02    0.20903754E-02
    3   -0.19429284E+03   -0.10227196E-04    0.67811805E-03
    4   -0.19429284E+03   -0.21029612E-05    0.76010264E-04
    5   -0.19429284E+03   -0.49322637E-07    0.12801925E-04
    6   -0.19429284E+03   -0.42875570E-08    0.44894634E-05
    7   -0.19429284E+03   -0.68013151E-10    0.15040175E-05
    8   -0.19429284E+03   -0.18474111E-11    0.17741577E-06
    9   -0.19429284E+03   -0.42632564E-12    0.55474707E-07
   10   -0.19429284E+03    0.28421709E-13    0.72194393E-08

Total Energy:                     -192.3247815945 H        -5233.4236 eV
Extrapolated to 0K:               -192.3247815945 H        -5233.4236 eV
Total Mermin free energy:         -192.3247815945 H        -5233.4236 eV
Force related energy:             -192.3247815945 H        -5233.4236 eV

Volume:                              0.986681E+04 au^3   0.146211E+04 A^3
Pressure:                            0.129677E-04 au     0.381521E+09 Pa
>> Charges saved for restart in charges.bin

total energy  -1.9232478E+02 H       energy change -7.6926039E-04 H
gradient norm  1.9801414E-02 H/a0    max. gradient  3.8321674E-03 H/a0
step length    1.2377991E-01 a0      max. step      2.2185008E-02 a0

--------------------------------------------------------------------------------

***  Geometry step: 19

 iSCC Total electronic   Diff electronic      SCC error    
    1   -0.19429284E+03    0.00000000E+00    0.37331344E-02
    2   -0.19428886E+03    0.39791824E-02    0.18708056E-02
    3   -0.19428888E+03   -0.12800747E-04    0.52901265E-03
    4   -0.19428888E+03   -0.27073912E-05    0.59089922E-04
    5   -0.19428888E+03   -0.44660368E-07    0.89289743E-05
    6   -0.19428888E+03   -0.34121967E-08    0.37489770E-05
    7   -0.19428888E+03   -0.54200200E-10    0.13586235E-05
    8   -0.19428888E+03   -0.34106051E-11    0.16161031E-06
    9   -0.19428888E+03   -0.17053026E-12    0.22174251E-07
   10   -0.19428888E+03   -0.56843419E-13    0.43968500E-08

Total Energy:                     -192.3254089583 H        -5233.4407 eV
Extrapolated to 0K:               -192.3254089583 H        -5233.4407 eV
Total Mermin free energy:         -192.3254089583 H        -5233.4407 eV
Force related energy:             -192.3254089583 H        -5233.4407 eV

Volume:                              0.988377E+04 au^3   0.146462E+04 A^3
Pressure:                            0.104916E-04 au     0.308672E+09 Pa
>> Charges saved for restart in charges.bin

total energy  -1.9232541E+02 H       energy change -6.2736383E-04 H
gradient norm  1.8557613E-02 H/a0    max. gradient  4.8876628E-03 H/a0
step length    1.1506726E-01 a0      max. step      2.0327763E-02 a0

--------------------------------------------------------------------------------

***  Geometry step: 20

 iSCC Total electronic   Diff electronic      SCC error    
    1   -0.19428888E+03    0.00000000E+00    0.39823784E-02
    2   -0.19428441E+03    0.44720557E-02    0.18600915E-02
    3   -0.19428442E+03   -0.92430436E-05    0.38796615E-03
    4   -0.19428442E+03   -0.20722725E-05    0.45722775E-04
    5   -0.19428442E+03   -0.38610608E-07    0.63380233E-05
    6   -0.19428442E+03   -0.25704594E-08    0.17795619E-05
    7   -0.19428442E+03   -0.63721473E-10    0.64724378E-06
    8   -0.19428442E+03   -0.31548097E-11    0.14966220E-06
    9   -0.19428442E+03   -0.19895197E-12    0.35520991E-07
   10   -0.19428442E+03    0.28421709E-13    0.44887156E-08

Total Energy:                     -192.3259043538 H        -5233.4541 eV
Extrapolated to 0K:               -192.3259043538 H        -5233.4541 eV
Total Mermin free energy:         -192.3259043538 H        -5233.4541 eV
Force related energy:             -192.3259043538 H        -5233.4541 eV

Volume:                              0.989982E+04 au^3   0.146700E+04 A^3
Pressure:                            0.786287E-05 au     0.231333E+09 Pa
>> Charges saved for restart in charges.bin

total energy  -1.9232590E+02 H       energy change -4.9539545E-04 H
gradient norm  1.7384521E-02 H/a0    max. gradient  5.0091779E-03 H/a0
step length    9.6463813E-02 a0      max. step      1.8333086E-02 a0

--------------------------------------------------------------------------------

***  Geometry step: 21

 iSCC Total electronic   Diff electronic      SCC error    
    1   -0.19428442E+03    0.00000000E+00    0.34254010E-02
    2   -0.19428124E+03    0.31759757E-02    0.15486666E-02
    3   -0.19428125E+03   -0.70567877E-05    0.41341315E-03
    4   -0.19428125E+03   -0.16749104E-05    0.43396948E-04
    5   -0.19428125E+03   -0.42111793E-07    0.67108069E-05
    6   -0.19428125E+03   -0.23399309E-08    0.16080454E-05
    7   -0.19428125E+03   -0.75914386E-10    0.58921820E-06
    8   -0.19428125E+03   -0.23874236E-11    0.15084311E-06
    9   -0.19428125E+03   -0.22737368E-12    0.29318123E-07
   10   -0.19428125E+03    0.00000000E+00    0.36386001E-08

Total Energy:                     -192.3263614306 H        -5233.4666 eV
Extrapolated to 0K:               -192.3263614306 H        -5233.4666 eV
Total Mermin free energy:         -192.3263614306 H        -5233.4666 eV
Force related energy:             -192.3263614306 H        -5233.4666 eV

Volume:                              0.991522E+04 au^3   0.146929E+04 A^3
Pressure:                            0.576222E-05 au     0.169530E+09 Pa
>> Charges saved for restart in charges.bin

total energy  -1.9232636E+02 H       energy change -4.5707679E-04 H
gradient norm  1.5845566E-02 H/a0    max. gradient  3.4465427E-03 H/a0
step length    9.2420247E-02 a0      max. step      1.8341305E-02 a0

--------------------------------------------------------------------------------

***  Geometry step: 22

 iSCC Total electronic   Diff electronic      SCC error    
    1   -0.19428125E+03    0.00000000E+00    0.26591481E-02
    2   -0.19428007E+03    0.11829702E-02    0.13923142E-02
    3   -0.19428008E+03   -0.71535822E-05    0.47966690E-03
    4   -0.19428008E+03   -0.16486474E-05    0.46262947E-04
    5   -0.19428008E+03   -0.39344485E-07    0.60186224E-05
    6   -0.19428008E+03   -0.21782967E-08    0.20480364E-05
    7   -0.19428008E+03   -0.71878503E-10    0.78448720E-06
    8   -0.19428008E+03   -0.20463631E-11    0.16505141E-06
    9   -0.19428008E+03   -0.22737368E-12    0.17944097E-07
   10   -0.19428008E+03   -0.28421709E-13    0.28427412E-08

Total Energy:                     -192.3267527654 H        -5233.4772 eV
Extrapolated to 0K:               -192.3267527654 H        -5233.4772 eV
Total Mermin free energy:         -192.3267527654 H        -5233.4772 eV
Force related energy:             -192.3267527654 H        -5233.4772 eV

Volume:                              0.992899E+04 au^3   0.147132E+04 A^3
Pressure:                            0.414311E-05 au     0.121895E+09 Pa
>> Charges saved for restart in charges.bin

total energy  -1.9232675E+02 H       energy change -3.9133485E-04 H
gradient norm  1.3505534E-02 H/a0    max. gradient  2.4980800E-03 H/a0
step length    8.7925432E-02 a0      max. step      1.9379827E-02 a0

--------------------------------------------------------------------------------

***  Geometry step: 23

 iSCC Total electronic   Diff electronic      SCC error    
    1   -0.19428008E+03    0.00000000E+00    0.26107256E-02
    2   -0.19428251E+03   -0.24319684E-02    0.12068855E-02
    3   -0.19428252E+03   -0.56690757E-05    0.35778503E-03
    4   -0.19428252E+03   -0.12417197E-05    0.39145867E-04
    5   -0.19428252E+03   -0.17993329E-07    0.79110936E-05
    6   -0.19428252E+03   -0.10549854E-08    0.22922924E-05
    7   -0.19428252E+03   -0.37971404E-10    0.57683557E-06
    8   -0.19428252E+03   -0.13073986E-11    0.12668087E-06
    9   -0.19428252E+03   -0.17053026E-12    0.23325276E-07
   10   -0.19428252E+03    0.11368684E-12    0.36975409E-08

Total Energy:                     -192.3270103455 H        -5233.4842 eV
Extrapolated to 0K:               -192.3270103455 H        -5233.4842 eV
Total Mermin free energy:         -192.3270103455 H        -5233.4842 eV
Force related energy:             -192.3270103455 H        -5233.4842 eV

Volume:                              0.993641E+04 au^3   0.147242E+04 A^3
Pressure:                            0.424926E-05 au     0.125018E+09 Pa
>> Charges saved for restart in charges.bin

total energy  -1.9232701E+02 H       energy change -2.5758002E-04 H
gradient norm  1.1946768E-02 H/a0    max. gradient  2.8027660E-03 H/a0
step length    6.1942086E-02 a0      max. step      1.3814210E-02 a0

--------------------------------------------------------------------------------

***  Geometry step: 24

 iSCC Total electronic   Diff electronic      SCC error    
    1   -0.19428252E+03    0.00000000E+00    0.27295631E-02
    2   -0.19428536E+03   -0.28451591E-02    0.12502826E-02
    3   -0.19428537E+03   -0.56420665E-05    0.25560064E-03
    4   -0.19428537E+03   -0.12346610E-05    0.35262651E-04
    5   -0.19428537E+03   -0.14634821E-07    0.93709971E-05
    6   -0.19428537E+03   -0.79677420E-09    0.28879208E-05
    7   -0.19428537E+03   -0.11226575E-10    0.39622662E-06
    8   -0.19428537E+03   -0.79580786E-12    0.81881018E-07
    9   -0.19428537E+03    0.00000000E+00    0.13873945E-07
   10   -0.19428537E+03    0.56843419E-13    0.19322091E-08

Total Energy:                     -192.3272090684 H        -5233.4896 eV
Extrapolated to 0K:               -192.3272090684 H        -5233.4896 eV
Total Mermin free energy:         -192.3272090684 H        -5233.4896 eV
Force related energy:             -192.3272090684 H        -5233.4896 eV

Volume:                              0.994198E+04 au^3   0.147325E+04 A^3
Pressure:                            0.468282E-05 au     0.137773E+09 Pa
>> Charges saved for restart in charges.bin

total energy  -1.9232721E+02 H       energy change -1.9872296E-04 H
gradient norm  1.0548811E-02 H/a0    max. gradient  2.8368733E-03 H/a0
step length    5.1958426E-02 a0      max. step      9.2266935E-03 a0

--------------------------------------------------------------------------------

***  Geometry step: 25

 iSCC Total electronic   Diff electronic      SCC error    
    1   -0.19428537E+03    0.00000000E+00    0.16090078E-02
    2   -0.19428684E+03   -0.14699966E-02    0.88432321E-03
    3   -0.19428684E+03   -0.26128669E-05    0.26096561E-03
    4   -0.19428684E+03   -0.60803927E-06    0.24178978E-04
    5   -0.19428684E+03   -0.12714054E-07    0.72758674E-05
    6   -0.19428684E+03   -0.43519321E-09    0.16728629E-05
    7   -0.19428684E+03   -0.50306426E-11    0.24675497E-06
    8   -0.19428684E+03   -0.25579538E-12    0.73235087E-07
    9   -0.19428684E+03    0.28421709E-13    0.91842862E-08

Total Energy:                     -192.3273612446 H        -5233.4938 eV
Extrapolated to 0K:               -192.3273612446 H        -5233.4938 eV
Total Mermin free energy:         -192.3273612446 H        -5233.4938 eV
Force related energy:             -192.3273612446 H        -5233.4938 eV

Volume:                              0.994711E+04 au^3   0.147401E+04 A^3
Pressure:                            0.495215E-05 au     0.145697E+09 Pa
>> Charges saved for restart in charges.bin

total energy  -1.9232736E+02 H       energy change -1.5217614E-04 H
gradient norm  9.7912948E-03 H/a0    max. gradient  2.1111048E-03 H/a0
step length    4.2978491E-02 a0      max. step      8.2574542E-03 a0

--------------------------------------------------------------------------------

***  Geometry step: 26

 iSCC Total electronic   Diff electronic      SCC error    
    1   -0.19428684E+03    0.00000000E+00    0.19927789E-02
    2   -0.19428628E+03    0.56082289E-03    0.12475798E-02
    3   -0.19428628E+03   -0.21420293E-05    0.30203533E-03
    4   -0.19428628E+03   -0.51527124E-06    0.22803407E-04
    5   -0.19428628E+03   -0.21156922E-07    0.43750370E-05
    6   -0.19428628E+03   -0.53441340E-09    0.13458883E-05
    7   -0.19428628E+03   -0.52580162E-11    0.38120681E-06
    8   -0.19428628E+03   -0.17053026E-12    0.10068566E-06
    9   -0.19428628E+03   -0.85265128E-13    0.25738623E-07
   10   -0.19428628E+03    0.56843419E-13    0.17735653E-08

Total Energy:                     -192.3275392403 H        -5233.4986 eV
Extrapolated to 0K:               -192.3275392403 H        -5233.4986 eV
Total Mermin free energy:         -192.3275392403 H        -5233.4986 eV
Force related energy:             -192.3275392403 H        -5233.4986 eV

Volume:                              0.995547E+04 au^3   0.147525E+04 A^3
Pressure:                            0.401643E-05 au     0.118168E+09 Pa
>> Charges saved for restart in charges.bin

total energy  -1.9232754E+02 H       energy change -1.7799570E-04 H
gradient norm  1.0548610E-02 H/a0    max. gradient  2.3301590E-03 H/a0
step length    5.6402890E-02 a0      max. step      1.1493785E-02 a0

--------------------------------------------------------------------------------

***  Geometry step: 27

 iSCC Total electronic   Diff electronic      SCC error    
    1   -0.19428628E+03    0.00000000E+00    0.23233416E-02
    2   -0.19428538E+03    0.90753020E-03    0.14453520E-02
    3   -0.19428538E+03   -0.31402520E-05    0.35268521E-03
    4   -0.19428538E+03   -0.73127694E-06    0.23912388E-04
    5   -0.19428538E+03   -0.30515395E-07    0.45334380E-05
    6   -0.19428538E+03   -0.97062980E-09    0.17945208E-05
    7   -0.19428538E+03   -0.12875034E-10    0.63077244E-06
    8   -0.19428538E+03   -0.31263880E-12    0.65223259E-07
    9   -0.19428538E+03   -0.17053026E-12    0.11375344E-07
   10   -0.19428538E+03    0.00000000E+00    0.22191871E-08

Total Energy:                     -192.3277467746 H        -5233.5043 eV
Extrapolated to 0K:               -192.3277467746 H        -5233.5043 eV
Total Mermin free energy:         -192.3277467746 H        -5233.5043 eV
Force related energy:             -192.3277467746 H        -5233.5043 eV

Volume:                              0.996671E+04 au^3   0.147691E+04 A^3
Pressure:                            0.296213E-05 au     0.871488E+08 Pa
>> Charges saved for restart in charges.bin

total energy  -1.9232775E+02 H       energy change -2.0753431E-04 H
gradient norm  1.2783597E-02 H/a0    max. gradient  4.1259875E-03 H/a0
step length    7.4639787E-02 a0      max. step      1.5864398E-02 a0

--------------------------------------------------------------------------------

***  Geometry step: 28

 iSCC Total electronic   Diff electronic      SCC error    
    1   -0.19428538E+03    0.00000000E+00    0.18338267E-02
    2   -0.19428360E+03    0.17807079E-02    0.11284334E-02
    3   -0.19428360E+03   -0.36207822E-05    0.34355584E-03
    4   -0.19428360E+03   -0.76242586E-06    0.28297571E-04
    5   -0.19428360E+03   -0.22451587E-07    0.80724822E-05
    6   -0.19428360E+03   -0.78139806E-09    0.22205738E-05
    7   -0.19428360E+03   -0.58264504E-11    0.37894503E-06
    8   -0.19428360E+03   -0.36948222E-12    0.10382700E-06
    9   -0.19428360E+03    0.00000000E+00    0.23485700E-07
   10   -0.19428360E+03   -0.11368684E-12    0.15498611E-08

Total Energy:                     -192.3279521066 H        -5233.5099 eV
Extrapolated to 0K:               -192.3279521066 H        -5233.5099 eV
Total Mermin free energy:         -192.3279521066 H        -5233.5099 eV
Force related energy:             -192.3279521066 H        -5233.5099 eV

Volume:                              0.997901E+04 au^3   0.147874E+04 A^3
Pressure:                            0.129141E-05 au     0.379944E+08 Pa
>> Charges saved for restart in charges.bin

total energy  -1.9232795E+02 H       energy change -2.0533201E-04 H
gradient norm  1.2168689E-02 H/a0    max. gradient  3.7884948E-03 H/a0
step length    7.8866229E-02 a0      max. step      1.6707911E-02 a0

--------------------------------------------------------------------------------

***  Geometry step: 29

 iSCC Total electronic   Diff electronic      SCC error    
    1   -0.19428360E+03    0.00000000E+00    0.20781892E-02
    2   -0.19428286E+03    0.74447505E-03    0.10175725E-02
    3   -0.19428286E+03   -0.42696203E-05    0.26059217E-03
    4   -0.19428286E+03   -0.84963872E-06    0.30917819E-04
    5   -0.19428286E+03   -0.13596093E-07    0.11729717E-04
    6   -0.19428286E+03   -0.10368524E-08    0.25426326E-05
    7   -0.19428286E+03   -0.18133051E-10    0.52617078E-06
    8   -0.19428286E+03   -0.56843419E-12    0.11492504E-06
    9   -0.19428286E+03   -0.11368684E-12    0.23771616E-07
   10   -0.19428286E+03    0.56843419E-13    0.21230067E-08

Total Energy:                     -192.3281599736 H        -5233.5155 eV
Extrapolated to 0K:               -192.3281599736 H        -5233.5155 eV
Total Mermin free energy:         -192.3281599736 H        -5233.5155 eV
Force related energy:             -192.3281599736 H        -5233.5155 eV

Volume:                              0.999008E+04 au^3   0.148038E+04 A^3
Pressure:                            0.358254E-07 au     0.105402E+07 Pa
>> Charges saved for restart in charges.bin

total energy  -1.9232816E+02 H       energy change -2.0786696E-04 H
gradient norm  1.0910126E-02 H/a0    max. gradient  2.2470989E-03 H/a0
step length    8.1777878E-02 a0      max. step      1.6852938E-02 a0

--------------------------------------------------------------------------------

***  Geometry step: 30

 iSCC Total electronic   Diff electronic      SCC error    
    1   -0.19428286E+03    0.00000000E+00    0.23800049E-02
    2   -0.19428344E+03   -0.58004257E-03    0.91193241E-03
    3   -0.19428345E+03   -0.45188602E-05    0.26159203E-03
    4   -0.19428345E+03   -0.87437135E-06    0.47606715E-04
    5   -0.19428345E+03   -0.98571036E-08    0.11121542E-04
    6   -0.19428345E+03   -0.91199581E-09    0.26924424E-05
    7   -0.19428345E+03   -0.18218316E-10    0.62910145E-06
    8   -0.19428345E+03   -0.54001248E-12    0.87355406E-07
    9   -0.19428345E+03    0.00000000E+00    0.20043614E-07
   10   -0.19428345E+03   -0.28421709E-13    0.22983970E-08

Total Energy:                     -192.3283710801 H        -5233.5213 eV
Extrapolated to 0K:               -192.3283710801 H        -5233.5213 eV
Total Mermin free energy:         -192.3283710801 H        -5233.5213 eV
Force related energy:             -192.3283710801 H        -5233.5213 eV

Volume:                              0.999877E+04 au^3   0.148167E+04 A^3
Pressure:                           -0.658521E-06 au    -0.193744E+08 Pa
>> Charges saved for restart in charges.bin

total energy  -1.9232837E+02 H       energy change -2.1110658E-04 H
gradient norm  1.0610614E-02 H/a0    max. gradient  3.2095082E-03 H/a0
step length    8.4688236E-02 a0      max. step      1.6564702E-02 a0

--------------------------------------------------------------------------------

***  Geometry step: 31

 iSCC Total electronic   Diff electronic      SCC error    
    1   -0.19428345E+03    0.00000000E+00    0.23512462E-02
    2   -0.19428593E+03   -0.24835741E-02    0.92593217E-03
    3   -0.19428594E+03   -0.45249885E-05    0.30836062E-03
    4   -0.19428594E+03   -0.91883140E-06    0.48180485E-04
    5   -0.19428594E+03   -0.10692702E-07    0.95496830E-05
    6   -0.19428594E+03   -0.11444570E-08    0.23452471E-05
    7   -0.19428594E+03   -0.22055247E-10    0.56822317E-06
    8   -0.19428594E+03   -0.48316906E-12    0.11255410E-06
    9   -0.19428594E+03   -0.56843419E-13    0.21101354E-07
   10   -0.19428594E+03    0.00000000E+00    0.20468400E-08

Total Energy:                     -192.3285820287 H        -5233.5270 eV
Extrapolated to 0K:               -192.3285820287 H        -5233.5270 eV
Total Mermin free energy:         -192.3285820287 H        -5233.5270 eV
Force related energy:             -192.3285820287 H        -5233.5270 eV

Volume:                              0.100046E+05 au^3   0.148253E+04 A^3
Pressure:                           -0.641974E-06 au    -0.188875E+08 Pa
>> Charges saved for restart in charges.bin

total energy  -1.9232858E+02 H       energy change -2.1094855E-04 H
gradient norm  1.1942677E-02 H/a0    max. gradient  4.6930058E-03 H/a0
step length    9.2068122E-02 a0      max. step      1.6732295E-02 a0

--------------------------------------------------------------------------------

***  Geometry step: 32

 iSCC Total electronic   Diff electronic      SCC error    
    1   -0.19428594E+03    0.00000000E+00    0.14094463E-02
    2   -0.19428908E+03   -0.31409686E-02    0.67374584E-03
    3   -0.19428908E+03   -0.29042547E-05    0.21406205E-03
    4   -0.19428908E+03   -0.58762672E-06    0.30750633E-04
    5   -0.19428908E+03   -0.72631678E-08    0.30578065E-05
    6   -0.19428908E+03   -0.82812335E-09    0.10744724E-05
    7   -0.19428908E+03   -0.10800250E-10    0.40322380E-06
    8   -0.19428908E+03   -0.14210855E-12    0.59496467E-07
    9   -0.19428908E+03    0.00000000E+00    0.88537480E-08

Total Energy:                     -192.3287791785 H        -5233.5324 eV
Extrapolated to 0K:               -192.3287791785 H        -5233.5324 eV
Total Mermin free energy:         -192.3287791785 H        -5233.5324 eV
Force related energy:             -192.3287791785 H        -5233.5324 eV

Volume:                              0.100071E+05 au^3   0.148290E+04 A^3
Pressure:                           -0.382537E-07 au    -0.112546E+07 Pa
>> Charges saved for restart in charges.bin

total energy  -1.9232878E+02 H       energy change -1.9714981E-04 H
gradient norm  1.2223467E-02 H/a0    max. gradient  4.6501001E-03 H/a0
step length    8.2786356E-02 a0      max. step      1.5034158E-02 a0

--------------------------------------------------------------------------------

***  Geometry step: 33

 iSCC Total electronic   Diff electronic      SCC error    
    1   -0.19428908E+03    0.00000000E+00    0.25237702E-02
    2   -0.19429297E+03   -0.38871625E-02    0.10262239E-02
    3   -0.19429298E+03   -0.54431839E-05    0.28402232E-03
    4   -0.19429298E+03   -0.11468728E-05    0.35397929E-04
    5   -0.19429298E+03   -0.13612464E-07    0.61479293E-05
    6   -0.19429298E+03   -0.12281021E-08    0.17491875E-05
    7   -0.19429298E+03   -0.18445689E-10    0.69277997E-06
    8   -0.19429298E+03   -0.45474735E-12    0.87772642E-07
    9   -0.19429298E+03   -0.17053026E-12    0.17142938E-07
   10   -0.19429298E+03    0.14210855E-12    0.23418281E-08

Total Energy:                     -192.3290230930 H        -5233.5390 eV
Extrapolated to 0K:               -192.3290230930 H        -5233.5390 eV
Total Mermin free energy:         -192.3290230930 H        -5233.5390 eV
Force related energy:             -192.3290230930 H        -5233.5390 eV

Volume:                              0.100081E+05 au^3   0.148305E+04 A^3
Pressure:                            0.105091E-05 au     0.309188E+08 Pa
>> Charges saved for restart in charges.bin

total energy  -1.9232902E+02 H       energy change -2.4391452E-04 H
gradient norm  1.1298862E-02 H/a0    max. gradient  3.0209731E-03 H/a0
step length    1.0861789E-01 a0      max. step      1.9718649E-02 a0

--------------------------------------------------------------------------------

***  Geometry step: 34

 iSCC Total electronic   Diff electronic      SCC error    
    1   -0.19429298E+03    0.00000000E+00    0.20429411E-02
    2   -0.19429489E+03   -0.19160858E-02    0.96865396E-03
    3   -0.19429490E+03   -0.29867218E-05    0.23967407E-03
    4   -0.19429490E+03   -0.64902062E-06    0.24056487E-04
    5   -0.19429490E+03   -0.93904475E-08    0.43474232E-05
    6   -0.19429490E+03   -0.58295768E-09    0.14753833E-05
    7   -0.19429490E+03   -0.71906925E-11    0.45488443E-06
    8   -0.19429490E+03   -0.31263880E-12    0.74473423E-07
    9   -0.19429490E+03    0.85265128E-13    0.14610726E-07
   10   -0.19429490E+03   -0.28421709E-13    0.22514799E-08

Total Energy:                     -192.3292127852 H        -5233.5442 eV
Extrapolated to 0K:               -192.3292127852 H        -5233.5442 eV
Total Mermin free energy:         -192.3292127852 H        -5233.5442 eV
Force related energy:             -192.3292127852 H        -5233.5442 eV

Volume:                              0.100085E+05 au^3   0.148311E+04 A^3
Pressure:                            0.163010E-05 au     0.479593E+08 Pa
>> Charges saved for restart in charges.bin

total energy  -1.9232921E+02 H       energy change -1.8969223E-04 H
gradient norm  1.0868883E-02 H/a0    max. gradient  2.3593680E-03 H/a0
step length    8.7167129E-02 a0      max. step      1.5988737E-02 a0

--------------------------------------------------------------------------------

***  Geometry step: 35

 iSCC Total electronic   Diff electronic      SCC error    
    1   -0.19429490E+03    0.00000000E+00    0.20674275E-02
    2   -0.19429608E+03   -0.11839065E-02    0.97283707E-03
    3   -0.19429608E+03   -0.37328653E-05    0.29541956E-03
    4   -0.19429609E+03   -0.82412868E-06    0.27558743E-04
    5   -0.19429609E+03   -0.16194832E-07    0.50988388E-05
    6   -0.19429609E+03   -0.89539753E-09    0.19537578E-05
    7   -0.19429609E+03   -0.12875034E-10    0.65823773E-06
    8   -0.19429609E+03   -0.54001248E-12    0.11507277E-06
    9   -0.19429609E+03   -0.56843419E-13    0.11966857E-07
   10   -0.19429609E+03    0.28421709E-13    0.30444829E-08

Total Energy:                     -192.3294362581 H        -5233.5502 eV
Extrapolated to 0K:               -192.3294362581 H        -5233.5502 eV
Total Mermin free energy:         -192.3294362581 H        -5233.5502 eV
Force related energy:             -192.3294362581 H        -5233.5502 eV

Volume:                              0.100090E+05 au^3   0.148319E+04 A^3
Pressure:                            0.198075E-05 au     0.582757E+08 Pa
>> Charges saved for restart in charges.bin

total energy  -1.9232944E+02 H       energy change -2.2347288E-04 H
gradient norm  1.1477738E-02 H/a0    max. gradient  2.3709302E-03 H/a0
step length    1.0625175E-01 a0      max. step      1.9349588E-02 a0

--------------------------------------------------------------------------------

***  Geometry step: 36

 iSCC Total electronic   Diff electronic      SCC error    
    1   -0.19429609E+03    0.00000000E+00    0.19994139E-02
    2   -0.19429681E+03   -0.72040146E-03    0.10462555E-02
    3   -0.19429681E+03   -0.42481659E-05    0.29904926E-03
    4   -0.19429681E+03   -0.91836000E-06    0.39071579E-04
    5   -0.19429681E+03   -0.20770273E-07    0.50796369E-05
    6   -0.19429681E+03   -0.10623467E-08    0.17845966E-05
    7   -0.19429681E+03   -0.19753088E-10    0.70522929E-06
    8   -0.19429681E+03   -0.51159077E-12    0.12871728E-06
    9   -0.19429681E+03   -0.85265128E-13    0.26592792E-07
   10   -0.19429681E+03    0.28421709E-13    0.36599199E-08

Total Energy:                     -192.3296507230 H        -5233.5561 eV
Extrapolated to 0K:               -192.3296507230 H        -5233.5561 eV
Total Mermin free energy:         -192.3296507230 H        -5233.5561 eV
Force related energy:             -192.3296507230 H        -5233.5561 eV

Volume:                              0.100096E+05 au^3   0.148327E+04 A^3
Pressure:                            0.225751E-05 au     0.664181E+08 Pa
>> Charges saved for restart in charges.bin

total energy  -1.9232965E+02 H       energy change -2.1446483E-04 H
gradient norm  1.1538929E-02 H/a0    max. gradient  3.4174463E-03 H/a0
step length    1.0813945E-01 a0      max. step      1.9461530E-02 a0

--------------------------------------------------------------------------------

***  Geometry step: 37

 iSCC Total electronic   Diff electronic      SCC error    
    1   -0.19429681E+03    0.00000000E+00    0.18482306E-02
    2   -0.19429683E+03   -0.22651091E-04    0.10077474E-02
    3   -0.19429684E+03   -0.36874926E-05    0.31526901E-03
    4   -0.19429684E+03   -0.80569188E-06    0.32882775E-04
    5   -0.19429684E+03   -0.15849537E-07    0.76028372E-05
    6   -0.19429684E+03   -0.81973894E-09    0.21504589E-05
    7   -0.19429684E+03   -0.14665602E-10    0.46603191E-06
    8   -0.19429684E+03   -0.36948222E-12    0.10588940E-06
    9   -0.19429684E+03   -0.11368684E-12    0.25107864E-07
   10   -0.19429684E+03   -0.85265128E-13    0.21343505E-08

Total Energy:                     -192.3298206744 H        -5233.5607 eV
Extrapolated to 0K:               -192.3298206744 H        -5233.5607 eV
Total Mermin free energy:         -192.3298206744 H        -5233.5607 eV
Force related energy:             -192.3298206744 H        -5233.5607 eV

Volume:                              0.100108E+05 au^3   0.148345E+04 A^3
Pressure:                            0.203360E-05 au     0.598304E+08 Pa
>> Charges saved for restart in charges.bin

total energy  -1.9232982E+02 H       energy change -1.6995147E-04 H
gradient norm  9.8348161E-03 H/a0    max. gradient  2.3402519E-03 H/a0
step length    8.9290773E-02 a0      max. step      1.6564867E-02 a0

--------------------------------------------------------------------------------

***  Geometry step: 38

 iSCC Total electronic   Diff electronic      SCC error    
    1   -0.19429684E+03    0.00000000E+00    0.15365259E-02
    2   -0.19429783E+03   -0.98959255E-03    0.69886355E-03
    3   -0.19429783E+03   -0.25595656E-05    0.24265888E-03
    4   -0.19429783E+03   -0.56003205E-06    0.23575458E-04
    5   -0.19429783E+03   -0.85021838E-08    0.70665703E-05
    6   -0.19429783E+03   -0.66660277E-09    0.16455766E-05
    7   -0.19429783E+03   -0.11596057E-10    0.37101908E-06
    8   -0.19429783E+03   -0.25579538E-12    0.83172580E-07
    9   -0.19429783E+03    0.85265128E-13    0.17586267E-07
   10   -0.19429783E+03   -0.14210855E-12    0.14009194E-08

Total Energy:                     -192.3299511099 H        -5233.5643 eV
Extrapolated to 0K:               -192.3299511099 H        -5233.5643 eV
Total Mermin free energy:         -192.3299511099 H        -5233.5643 eV
Force related energy:             -192.3299511099 H        -5233.5643 eV

Volume:                              0.100119E+05 au^3   0.148360E+04 A^3
Pressure:                            0.216616E-05 au     0.637307E+08 Pa
>> Charges saved for restart in charges.bin

total energy  -1.9232995E+02 H       energy change -1.3043548E-04 H
gradient norm  8.1471465E-03 H/a0    max. gradient  1.5710554E-03 H/a0
step length    6.8587953E-02 a0      max. step      1.3479349E-02 a0

--------------------------------------------------------------------------------

***  Geometry step: 39

 iSCC Total electronic   Diff electronic      SCC error    
    1   -0.19429783E+03    0.00000000E+00    0.15245083E-02
    2   -0.19429902E+03   -0.11869687E-02    0.64580128E-03
    3   -0.19429902E+03   -0.18734723E-05    0.15345469E-03
    4   -0.19429902E+03   -0.42494651E-06    0.25924843E-04
    5   -0.19429902E+03   -0.61467631E-08    0.57580966E-05
    6   -0.19429902E+03   -0.62655658E-09    0.76591345E-06
    7   -0.19429902E+03   -0.13386625E-10    0.31085710E-06
    8   -0.19429902E+03   -0.31263880E-12    0.79902001E-07
    9   -0.19429902E+03    0.85265128E-13    0.11254423E-07
   10   -0.19429902E+03   -0.85265128E-13    0.23694526E-08

Total Energy:                     -192.3300598857 H        -5233.5672 eV
Extrapolated to 0K:               -192.3300598857 H        -5233.5672 eV
Total Mermin free energy:         -192.3300598857 H        -5233.5672 eV
Force related energy:             -192.3300598857 H        -5233.5672 eV

Volume:                              0.100136E+05 au^3   0.148386E+04 A^3
Pressure:                            0.225249E-05 au     0.662705E+08 Pa
>> Charges saved for restart in charges.bin

total energy  -1.9233006E+02 H       energy change -1.0877583E-04 H
gradient norm  8.1837335E-03 H/a0    max. gradient  1.7031105E-03 H/a0
step length    6.0294515E-02 a0      max. step      1.2379073E-02 a0

--------------------------------------------------------------------------------

***  Geometry step: 40

 iSCC Total electronic   Diff electronic      SCC error    
    1   -0.19429902E+03    0.00000000E+00    0.14113337E-02
    2   -0.19430050E+03   -0.14806292E-02    0.54982096E-03
    3   -0.19430050E+03   -0.18494419E-05    0.16394684E-03
    4   -0.19430050E+03   -0.40401309E-06    0.27086835E-04
    5   -0.19430050E+03   -0.73041519E-08    0.40362610E-05
    6   -0.19430050E+03   -0.69678663E-09    0.91840968E-06
    7   -0.19430050E+03   -0.21003643E-10    0.28265667E-06
    8   -0.19430050E+03   -0.22737368E-12    0.61355324E-07
    9   -0.19430050E+03    0.56843419E-13    0.17234726E-07
   10   -0.19430050E+03   -0.14210855E-12    0.28013498E-08

Total Energy:                     -192.3301688568 H        -5233.5702 eV
Extrapolated to 0K:               -192.3301688568 H        -5233.5702 eV
Total Mermin free energy:         -192.3301688568 H        -5233.5702 eV
Force related energy:             -192.3301688568 H        -5233.5702 eV

Volume:                              0.100161E+05 au^3   0.148423E+04 A^3
Pressure:                            0.234476E-05 au     0.689852E+08 Pa
>> Charges saved for restart in charges.bin

total energy  -1.9233017E+02 H       energy change -1.0897103E-04 H
gradient norm  8.6224300E-03 H/a0    max. gradient  2.3331791E-03 H/a0
step length    6.3862244E-02 a0      max. step      1.3647802E-02 a0

--------------------------------------------------------------------------------

***  Geometry step: 41

 iSCC Total electronic   Diff electronic      SCC error    
    1   -0.19430050E+03    0.00000000E+00    0.18390915E-02
    2   -0.19430214E+03   -0.16394380E-02    0.83043475E-03
    3   -0.19430215E+03   -0.26121839E-05    0.21465622E-03
    4   -0.19430215E+03   -0.56458859E-06    0.35387634E-04
    5   -0.19430215E+03   -0.10207742E-07    0.70371517E-05
    6   -0.19430215E+03   -0.84057206E-09    0.16515546E-05
    7   -0.19430215E+03   -0.26119551E-10    0.39058946E-06
    8   -0.19430215E+03   -0.51159077E-12    0.90155803E-07
    9   -0.19430215E+03   -0.14210855E-12    0.28912647E-07
   10   -0.19430215E+03    0.28421709E-13    0.22719719E-08

Total Energy:                     -192.3302772350 H        -5233.5731 eV
Extrapolated to 0K:               -192.3302772350 H        -5233.5731 eV
Total Mermin free energy:         -192.3302772350 H        -5233.5731 eV
Force related energy:             -192.3302772350 H        -5233.5731 eV

Volume:                              0.100195E+05 au^3   0.148474E+04 A^3
Pressure:                            0.248374E-05 au     0.730742E+08 Pa
>> Charges saved for restart in charges.bin

total energy  -1.9233028E+02 H       energy change -1.0837824E-04 H
gradient norm  8.0291033E-03 H/a0    max. gradient  2.0777198E-03 H/a0
step length    7.4424689E-02 a0      max. step      1.6360335E-02 a0

--------------------------------------------------------------------------------

***  Geometry step: 42

 iSCC Total electronic   Diff electronic      SCC error    
    1   -0.19430215E+03    0.00000000E+00    0.13333104E-02
    2   -0.19430255E+03   -0.40189009E-03    0.69003701E-03
    3   -0.19430255E+03   -0.12815840E-05    0.17511509E-03
    4   -0.19430255E+03   -0.28108914E-06    0.21378651E-04
    5   -0.19430255E+03   -0.42979593E-08    0.52879107E-05
    6   -0.19430255E+03   -0.36706638E-09    0.12073769E-05
    7   -0.19430255E+03   -0.88959951E-11    0.25754276E-06
    8   -0.19430255E+03   -0.19895197E-12    0.71291749E-07
    9   -0.19430255E+03   -0.56843419E-13    0.15990275E-07
   10   -0.19430255E+03    0.56843419E-13    0.12405019E-08

Total Energy:                     -192.3303530967 H        -5233.5752 eV
Extrapolated to 0K:               -192.3303530967 H        -5233.5752 eV
Total Mermin free energy:         -192.3303530967 H        -5233.5752 eV
Force related energy:             -192.3303530967 H        -5233.5752 eV

Volume:                              0.100228E+05 au^3   0.148522E+04 A^3
Pressure:                            0.229804E-05 au     0.676108E+08 Pa
>> Charges saved for restart in charges.bin

total energy  -1.9233035E+02 H       energy change -7.5861716E-05 H
gradient norm  6.7558947E-03 H/a0    max. gradient  1.3545269E-03 H/a0
step length    5.2558470E-02 a0      max. step      1.1715455E-02 a0

--------------------------------------------------------------------------------

***  Geometry step: 43

 iSCC Total electronic   Diff electronic      SCC error    
    1   -0.19430255E+03    0.00000000E+00    0.15930769E-02
    2   -0.19430243E+03    0.12264700E-03    0.65038821E-03
    3   -0.19430243E+03   -0.17047208E-05    0.16175754E-03
    4   -0.19430243E+03   -0.37165682E-06    0.28003279E-04
    5   -0.19430243E+03   -0.53630913E-08    0.70458164E-05
    6   -0.19430243E+03   -0.53697136E-09    0.14167223E-05
    7   -0.19430243E+03   -0.94075858E-11    0.34666709E-06
    8   -0.19430243E+03   -0.17053026E-12    0.61959489E-07
    9   -0.19430243E+03    0.22737368E-12    0.12919377E-07
   10   -0.19430243E+03   -0.14210855E-12    0.11664110E-08

Total Energy:                     -192.3304376550 H        -5233.5775 eV
Extrapolated to 0K:               -192.3304376550 H        -5233.5775 eV
Total Mermin free energy:         -192.3304376550 H        -5233.5775 eV
Force related energy:             -192.3304376550 H        -5233.5775 eV

Volume:                              0.100271E+05 au^3   0.148587E+04 A^3
Pressure:                            0.193414E-05 au     0.569044E+08 Pa
>> Charges saved for restart in charges.bin

total energy  -1.9233044E+02 H       energy change -8.4558250E-05 H
gradient norm  7.0615157E-03 H/a0    max. gradient  1.7896857E-03 H/a0
step length    5.8318763E-02 a0      max. step      1.3246536E-02 a0

--------------------------------------------------------------------------------

***  Geometry step: 44

 iSCC Total electronic   Diff electronic      SCC error    
    1   -0.19430243E+03    0.00000000E+00    0.12886695E-02
    2   -0.19430181E+03    0.62280803E-03    0.51334925E-03
    3   -0.19430181E+03   -0.12092142E-05    0.15792533E-03
    4   -0.19430181E+03   -0.26763331E-06    0.26384975E-04
    5   -0.19430181E+03   -0.47683670E-08    0.53961476E-05
    6   -0.19430181E+03   -0.53159965E-09    0.92292656E-06
    7   -0.19430181E+03   -0.69064754E-11    0.25566876E-06
    8   -0.19430181E+03   -0.11368684E-12    0.54641561E-07
    9   -0.19430181E+03    0.28421709E-13    0.11937518E-07
   10   -0.19430181E+03   -0.11368684E-12    0.78426954E-09

Total Energy:                     -192.3305185990 H        -5233.5797 eV
Extrapolated to 0K:               -192.3305185990 H        -5233.5797 eV
Total Mermin free energy:         -192.3305185990 H        -5233.5797 eV
Force related energy:             -192.3305185990 H        -5233.5797 eV

Volume:                              0.100318E+05 au^3   0.148656E+04 A^3
Pressure:                            0.142435E-05 au     0.419058E+08 Pa
>> Charges saved for restart in charges.bin

total energy  -1.9233052E+02 H       energy change -8.0944051E-05 H
gradient norm  8.1066287E-03 H/a0    max. gradient  2.1177388E-03 H/a0
step length    5.6482721E-02 a0      max. step      1.3229295E-02 a0

--------------------------------------------------------------------------------

***  Geometry step: 45

 iSCC Total electronic   Diff electronic      SCC error    
    1   -0.19430181E+03    0.00000000E+00    0.11589738E-02
    2   -0.19430089E+03    0.91451452E-03    0.63002277E-03
    3   -0.19430089E+03   -0.13457759E-05    0.19933133E-03
    4   -0.19430089E+03   -0.30929834E-06    0.26441289E-04
    5   -0.19430089E+03   -0.69387909E-08    0.29722184E-05
    6   -0.19430089E+03   -0.68061468E-09    0.10010965E-05
    7   -0.19430089E+03   -0.91517904E-11    0.35794816E-06
    8   -0.19430089E+03   -0.85265128E-13    0.47929747E-07
    9   -0.19430089E+03   -0.28421709E-13    0.58096807E-08

Total Energy:                     -192.3306196533 H        -5233.5824 eV
Extrapolated to 0K:               -192.3306196533 H        -5233.5824 eV
Total Mermin free energy:         -192.3306196533 H        -5233.5824 eV
Force related energy:             -192.3306196533 H        -5233.5824 eV

Volume:                              0.100380E+05 au^3   0.148748E+04 A^3
Pressure:                            0.489644E-06 au     0.144058E+08 Pa
>> Charges saved for restart in charges.bin

total energy  -1.9233062E+02 H       energy change -1.0105430E-04 H
gradient norm  8.3021887E-03 H/a0    max. gradient  1.7197548E-03 H/a0
step length    7.6956602E-02 a0      max. step      1.8458208E-02 a0

--------------------------------------------------------------------------------

***  Geometry step: 46

 iSCC Total electronic   Diff electronic      SCC error    
    1   -0.19430089E+03    0.00000000E+00    0.93512790E-03
    2   -0.19430123E+03   -0.33513336E-03    0.57063118E-03
    3   -0.19430123E+03   -0.13784334E-05    0.18205156E-03
    4   -0.19430123E+03   -0.32246945E-06    0.23403383E-04
    5   -0.19430123E+03   -0.57008549E-08    0.58983877E-05
    6   -0.19430123E+03   -0.45915272E-09    0.12502189E-05
    7   -0.19430123E+03   -0.99191766E-11    0.26354278E-06
    8   -0.19430123E+03   -0.14210855E-12    0.66011615E-07
    9   -0.19430123E+03   -0.85265128E-13    0.21825575E-07
   10   -0.19430123E+03    0.00000000E+00    0.11838095E-08

Total Energy:                     -192.3307087982 H        -5233.5849 eV
Extrapolated to 0K:               -192.3307087982 H        -5233.5849 eV
Total Mermin free energy:         -192.3307087982 H        -5233.5849 eV
Force related energy:             -192.3307087982 H        -5233.5849 eV

Volume:                              0.100426E+05 au^3   0.148816E+04 A^3
Pressure:                            0.890671E-07 au     0.262044E+07 Pa
>> Charges saved for restart in charges.bin

total energy  -1.9233071E+02 H       energy change -8.9144895E-05 H
gradient norm  6.9274567E-03 H/a0    max. gradient  1.4381961E-03 H/a0
step length    7.0546792E-02 a0      max. step      1.7086497E-02 a0

--------------------------------------------------------------------------------

***  Geometry step: 47

 iSCC Total electronic   Diff electronic      SCC error    
    1   -0.19430123E+03    0.00000000E+00    0.15343102E-02
    2   -0.19430229E+03   -0.10589907E-02    0.63904667E-03
    3   -0.19430229E+03   -0.14658466E-05    0.13770932E-03
    4   -0.19430229E+03   -0.33628223E-06    0.18890506E-04
    5   -0.19430229E+03   -0.32109710E-08    0.56585645E-05
    6   -0.19430229E+03   -0.21731239E-09    0.11787046E-05
    7   -0.19430229E+03   -0.44906301E-11    0.22595943E-06
    8   -0.19430229E+03   -0.14210855E-12    0.55736320E-07
    9   -0.19430229E+03    0.00000000E+00    0.13386591E-07
   10   -0.19430229E+03    0.00000000E+00    0.10802843E-08

Total Energy:                     -192.3307781310 H        -5233.5868 eV
Extrapolated to 0K:               -192.3307781310 H        -5233.5868 eV
Total Mermin free energy:         -192.3307781310 H        -5233.5868 eV
Force related energy:             -192.3307781310 H        -5233.5868 eV

Volume:                              0.100459E+05 au^3   0.148864E+04 A^3
Pressure:                            0.167206E-07 au     0.491936E+06 Pa
>> Charges saved for restart in charges.bin

total energy  -1.9233078E+02 H       energy change -6.9332812E-05 H
gradient norm  5.7316534E-03 H/a0    max. gradient  1.0733711E-03 H/a0
step length    6.2970474E-02 a0      max. step      1.5247530E-02 a0

--------------------------------------------------------------------------------

***  Geometry step: 48

 iSCC Total electronic   Diff electronic      SCC error    
    1   -0.19430229E+03    0.00000000E+00    0.13659606E-02
    2   -0.19430376E+03   -0.14694353E-02    0.58819028E-03
    3   -0.19430376E+03   -0.10015622E-05    0.11180985E-03
    4   -0.19430376E+03   -0.21809419E-06    0.13488880E-04
    5   -0.19430376E+03   -0.16221406E-08    0.38622557E-05
    6   -0.19430376E+03   -0.99703357E-10    0.84920202E-06
    7   -0.19430376E+03   -0.15916157E-11    0.14636354E-06
    8   -0.19430376E+03   -0.56843419E-13    0.39357307E-07
    9   -0.19430376E+03   -0.28421709E-13    0.80551881E-08

Total Energy:                     -192.3308341446 H        -5233.5883 eV
Extrapolated to 0K:               -192.3308341446 H        -5233.5883 eV
Total Mermin free energy:         -192.3308341446 H        -5233.5883 eV
Force related energy:             -192.3308341446 H        -5233.5883 eV

Volume:                              0.100475E+05 au^3   0.148888E+04 A^3
Pressure:                            0.277613E-06 au     0.816765E+07 Pa
>> Charges saved for restart in charges.bin

total energy  -1.9233083E+02 H       energy change -5.6013563E-05 H
gradient norm  6.1869902E-03 H/a0    max. gradient  1.6096853E-03 H/a0
step length    5.0010520E-02 a0      max. step      1.1933115E-02 a0

--------------------------------------------------------------------------------

***  Geometry step: 49

 iSCC Total electronic   Diff electronic      SCC error    
    1   -0.19430376E+03    0.00000000E+00    0.15274987E-02
    2   -0.19430542E+03   -0.16567082E-02    0.64795724E-03
    3   -0.19430542E+03   -0.11442891E-05    0.17347476E-03
    4   -0.19430542E+03   -0.24738637E-06    0.12702523E-04
    5   -0.19430542E+03   -0.31456011E-08    0.45639751E-05
    6   -0.19430542E+03   -0.15802470E-09    0.90225127E-06
    7   -0.19430542E+03   -0.17337243E-11    0.13667595E-06
    8   -0.19430542E+03   -0.11368684E-12    0.36780480E-07
    9   -0.19430542E+03   -0.28421709E-13    0.66701791E-08

Total Energy:                     -192.3309060755 H        -5233.5902 eV
Extrapolated to 0K:               -192.3309060755 H        -5233.5902 eV
Total Mermin free energy:         -192.3309060755 H        -5233.5902 eV
Force related energy:             -192.3309060755 H        -5233.5902 eV

Volume:                              0.100493E+05 au^3   0.148916E+04 A^3
Pressure:                            0.597018E-06 au     0.175649E+08 Pa
>> Charges saved for restart in charges.bin

total energy  -1.9233091E+02 H       energy change -7.1930921E-05 H
gradient norm  7.4983362E-03 H/a0    max. gradient  1.7621270E-03 H/a0
step length    6.7014803E-02 a0      max. step      1.5812521E-02 a0

--------------------------------------------------------------------------------

***  Geometry step: 50

 iSCC Total electronic   Diff electronic      SCC error    
    1   -0.19430542E+03    0.00000000E+00    0.12091972E-02
    2   -0.19430690E+03   -0.14760756E-02    0.76233032E-03
    3   -0.19430690E+03   -0.11666141E-05    0.23702205E-03
    4   -0.19430690E+03   -0.26026032E-06    0.17574902E-04
    5   -0.19430690E+03   -0.59629599E-08    0.26539011E-05
    6   -0.19430690E+03   -0.32241587E-09    0.65356014E-06
    7   -0.19430690E+03   -0.25579538E-11    0.24237318E-06
    8   -0.19430690E+03    0.00000000E+00    0.41496445E-07
    9   -0.19430690E+03    0.28421709E-13    0.11691994E-07
   10   -0.19430690E+03   -0.11368684E-12    0.12166828E-08

Total Energy:                     -192.3309932366 H        -5233.5926 eV
Extrapolated to 0K:               -192.3309932366 H        -5233.5926 eV
Total Mermin free energy:         -192.3309932366 H        -5233.5926 eV
Force related energy:             -192.3309932366 H        -5233.5926 eV

Volume:                              0.100515E+05 au^3   0.148948E+04 A^3
Pressure:                            0.912249E-06 au     0.268393E+08 Pa
>> Charges saved for restart in charges.bin

total energy  -1.9233099E+02 H       energy change -8.7161101E-05 H
gradient norm  7.8196244E-03 H/a0    max. gradient  1.8353985E-03 H/a0
step length    8.2328724E-02 a0      max. step      1.9370324E-02 a0

--------------------------------------------------------------------------------

***  Geometry step: 51

 iSCC Total electronic   Diff electronic      SCC error    
    1   -0.19430690E+03    0.00000000E+00    0.12902394E-02
    2   -0.19430725E+03   -0.35447828E-03    0.73090769E-03
    3   -0.19430725E+03   -0.12494097E-05    0.22090276E-03
    4   -0.19430725E+03   -0.28308887E-06    0.18959083E-04
    5   -0.19430725E+03   -0.59958154E-08    0.18632886E-05
    6   -0.19430725E+03   -0.44241233E-09    0.65906473E-06
    7   -0.19430725E+03   -0.25295321E-11    0.26139793E-06
    8   -0.19430725E+03   -0.19895197E-12    0.23440239E-07
    9   -0.19430725E+03    0.14210855E-12    0.60391723E-08

Total Energy:                     -192.3310768045 H        -5233.5949 eV
Extrapolated to 0K:               -192.3310768045 H        -5233.5949 eV
Total Mermin free energy:         -192.3310768045 H        -5233.5949 eV
Force related energy:             -192.3310768045 H        -5233.5949 eV

Volume:                              0.100538E+05 au^3   0.148981E+04 A^3
Pressure:                            0.874166E-06 au     0.257188E+08 Pa
>> Charges saved for restart in charges.bin

total energy  -1.9233108E+02 H       energy change -8.3567881E-05 H
gradient norm  6.6397150E-03 H/a0    max. gradient  1.6055833E-03 H/a0
step length    8.0783497E-02 a0      max. step      1.8559359E-02 a0

--------------------------------------------------------------------------------

***  Geometry step: 52

 iSCC Total electronic   Diff electronic      SCC error    
    1   -0.19430725E+03    0.00000000E+00    0.11797339E-02
    2   -0.19430663E+03    0.62225209E-03    0.51725829E-03
    3   -0.19430663E+03   -0.16961095E-05    0.17039182E-03
    4   -0.19430663E+03   -0.38050067E-06    0.20626938E-04
    5   -0.19430663E+03   -0.39400447E-08    0.32149811E-05
    6   -0.19430663E+03   -0.34989966E-09    0.87939219E-06
    7   -0.19430663E+03   -0.37232439E-11    0.23664469E-06
    8   -0.19430663E+03   -0.85265128E-13    0.35967751E-07
    9   -0.19430663E+03   -0.28421709E-13    0.10585252E-07
[...]
Extrapolated to 0K:               -192.3336407465 H        -5233.6647 eV
Total Mermin free energy:         -192.3336407465 H        -5233.6647 eV
Force related energy:             -192.3336407465 H        -5233.6647 eV

Volume:                              0.994173E+04 au^3   0.147321E+04 A^3
Pressure:                            0.117665E-07 au     0.346181E+06 Pa
>> Charges saved for restart in charges.bin

total energy  -1.9233364E+02 H       energy change -1.2560738E-06 H
gradient norm  8.7732968E-04 H/a0    max. gradient  2.3921534E-04 H/a0
step length    3.8864514E-03 a0      max. step      7.5360890E-04 a0

--------------------------------------------------------------------------------

***  Geometry step: 197

 iSCC Total electronic   Diff electronic      SCC error    
    1   -0.19429971E+03    0.00000000E+00    0.14226486E-03
    2   -0.19429983E+03   -0.12318419E-03    0.73904598E-04
    3   -0.19429983E+03   -0.22363395E-07    0.24923891E-04
    4   -0.19429983E+03   -0.50912945E-08    0.19840689E-05
    5   -0.19429983E+03   -0.65853101E-10    0.46531736E-06
    6   -0.19429983E+03   -0.48601123E-11    0.11119151E-06
    7   -0.19429983E+03   -0.11368684E-12    0.11568528E-07
    8   -0.19429983E+03   -0.56843419E-13    0.31653928E-08

Total Energy:                     -192.3336419262 H        -5233.6647 eV
Extrapolated to 0K:               -192.3336419262 H        -5233.6647 eV
Total Mermin free energy:         -192.3336419262 H        -5233.6647 eV
Force related energy:             -192.3336419262 H        -5233.6647 eV

Volume:                              0.994143E+04 au^3   0.147317E+04 A^3
Pressure:                            0.841502E-07 au     0.247578E+07 Pa
>> Charges saved for restart in charges.bin

total energy  -1.9233364E+02 H       energy change -1.1796645E-06 H
gradient norm  8.0824875E-04 H/a0    max. gradient  1.7968088E-04 H/a0
step length    5.2285305E-03 a0      max. step      1.0058184E-03 a0

--------------------------------------------------------------------------------

***  Geometry step: 198

 iSCC Total electronic   Diff electronic      SCC error    
    1   -0.19429983E+03    0.00000000E+00    0.22680202E-03
    2   -0.19429990E+03   -0.69462356E-04    0.10102117E-03
    3   -0.19429990E+03   -0.20062487E-07    0.24084550E-04
    4   -0.19429990E+03   -0.46613877E-08    0.20729337E-05
    5   -0.19429990E+03   -0.64574124E-10    0.61759414E-06
    6   -0.19429990E+03   -0.53717031E-11    0.12608723E-06
    7   -0.19429990E+03    0.28421709E-13    0.10396714E-07
    8   -0.19429990E+03   -0.56843419E-13    0.30050704E-08

Total Energy:                     -192.3336431798 H        -5233.6647 eV
Extrapolated to 0K:               -192.3336431798 H        -5233.6647 eV
Total Mermin free energy:         -192.3336431798 H        -5233.6647 eV
Force related energy:             -192.3336431798 H        -5233.6647 eV

Volume:                              0.994064E+04 au^3   0.147305E+04 A^3
Pressure:                            0.148105E-06 au     0.435739E+07 Pa
>> Charges saved for restart in charges.bin

total energy  -1.9233364E+02 H       energy change -1.2535882E-06 H
gradient norm  8.1405037E-04 H/a0    max. gradient  1.8563913E-04 H/a0
step length    9.6895614E-03 a0      max. step      1.8982729E-03 a0

--------------------------------------------------------------------------------

***  Geometry step: 199

 iSCC Total electronic   Diff electronic      SCC error    
    1   -0.19429990E+03    0.00000000E+00    0.13747110E-03
    2   -0.19429966E+03    0.24046904E-03    0.82779498E-04
    3   -0.19429966E+03   -0.23092383E-07    0.25914378E-04
    4   -0.19429966E+03   -0.55573537E-08    0.25113246E-05
    5   -0.19429966E+03   -0.88562047E-10    0.38967021E-06
    6   -0.19429966E+03   -0.59401373E-11    0.86504160E-07
    7   -0.19429966E+03   -0.11368684E-12    0.11441343E-07
    8   -0.19429966E+03    0.00000000E+00    0.37020587E-08

Total Energy:                     -192.3336446060 H        -5233.6648 eV
Extrapolated to 0K:               -192.3336446060 H        -5233.6648 eV
Total Mermin free energy:         -192.3336446060 H        -5233.6648 eV
Force related energy:             -192.3336446060 H        -5233.6648 eV

Volume:                              0.993869E+04 au^3   0.147276E+04 A^3
Pressure:                            0.138315E-06 au     0.406937E+07 Pa
>> Charges saved for restart in charges.bin

total energy  -1.9233364E+02 H       energy change -1.4262104E-06 H
gradient norm  8.4329556E-04 H/a0    max. gradient  1.7371297E-04 H/a0
step length    2.6219472E-02 a0      max. step      8.0070636E-03 a0

--------------------------------------------------------------------------------

***  Geometry step: 200

 iSCC Total electronic   Diff electronic      SCC error    
    1   -0.19429966E+03    0.00000000E+00    0.10979988E-03
    2   -0.19429975E+03   -0.91648527E-04    0.48137941E-04
    3   -0.19429975E+03   -0.11707328E-07    0.11495832E-04
    4   -0.19429975E+03   -0.25716247E-08    0.14106529E-05
    5   -0.19429975E+03   -0.22055247E-10    0.19381708E-06
    6   -0.19429975E+03   -0.17053026E-11    0.54146622E-07
    7   -0.19429975E+03   -0.11368684E-12    0.82602063E-08

Total Energy:                     -192.3336455432 H        -5233.6648 eV
Extrapolated to 0K:               -192.3336455432 H        -5233.6648 eV
Total Mermin free energy:         -192.3336455432 H        -5233.6648 eV
Force related energy:             -192.3336455432 H        -5233.6648 eV

Volume:                              0.993859E+04 au^3   0.147275E+04 A^3
Pressure:                            0.164061E-06 au     0.482684E+07 Pa
>> Charges saved for restart in charges.bin

total energy  -1.9233365E+02 H       energy change -9.3725532E-07 H
gradient norm  7.4177794E-04 H/a0    max. gradient  1.5406355E-04 H/a0
step length    2.3949684E-03 a0      max. step      5.9647531E-04 a0

--------------------------------------------------------------------------------

***  Geometry step: 201

 iSCC Total electronic   Diff electronic      SCC error    
    1   -0.19429975E+03    0.00000000E+00    0.19471530E-03
    2   -0.19429979E+03   -0.34495732E-04    0.92926164E-04
    3   -0.19429979E+03   -0.45112927E-07    0.27321204E-04
    4   -0.19429979E+03   -0.97361408E-08    0.22271829E-05
    5   -0.19429979E+03   -0.98935971E-10    0.34672732E-06
    6   -0.19429979E+03   -0.65938366E-11    0.10375853E-06
    7   -0.19429979E+03   -0.85265128E-13    0.24058569E-07
    8   -0.19429979E+03    0.00000000E+00    0.60061915E-08

Total Energy:                     -192.3336470482 H        -5233.6648 eV
Extrapolated to 0K:               -192.3336470482 H        -5233.6648 eV
Total Mermin free energy:         -192.3336470482 H        -5233.6648 eV
Force related energy:             -192.3336470482 H        -5233.6648 eV

Volume:                              0.993840E+04 au^3   0.147272E+04 A^3
Pressure:                            0.161931E-06 au     0.476418E+07 Pa
>> Charges saved for restart in charges.bin

total energy  -1.9233365E+02 H       energy change -1.5049712E-06 H
gradient norm  7.8153030E-04 H/a0    max. gradient  1.7046280E-04 H/a0
step length    7.3556719E-03 a0      max. step      2.0605559E-03 a0

--------------------------------------------------------------------------------

***  Geometry step: 202

 iSCC Total electronic   Diff electronic      SCC error    
    1   -0.19429979E+03    0.00000000E+00    0.12573779E-03
    2   -0.19429977E+03    0.18016878E-04    0.72555541E-04
    3   -0.19429977E+03   -0.86208729E-08    0.20185243E-04
    4   -0.19429977E+03   -0.21108804E-08    0.20994184E-05
    5   -0.19429977E+03   -0.42604142E-10    0.18569466E-06
    6   -0.19429977E+03   -0.25295321E-11    0.31738713E-07
    7   -0.19429977E+03    0.28421709E-13    0.84876191E-08

Total Energy:                     -192.3336477834 H        -5233.6648 eV
Extrapolated to 0K:               -192.3336477834 H        -5233.6648 eV
Total Mermin free energy:         -192.3336477834 H        -5233.6648 eV
Force related energy:             -192.3336477834 H        -5233.6648 eV

Volume:                              0.993850E+04 au^3   0.147273E+04 A^3
Pressure:                            0.164736E-06 au     0.484670E+07 Pa
>> Charges saved for restart in charges.bin

total energy  -1.9233365E+02 H       energy change -7.3517754E-07 H
gradient norm  7.1757526E-04 H/a0    max. gradient  1.6605602E-04 H/a0
step length    2.8610677E-03 a0      max. step      7.3189805E-04 a0

--------------------------------------------------------------------------------

***  Geometry step: 203

 iSCC Total electronic   Diff electronic      SCC error    
    1   -0.19429977E+03    0.00000000E+00    0.20054011E-03
    2   -0.19429967E+03    0.96222374E-04    0.12512574E-03
    3   -0.19429967E+03   -0.26912630E-07    0.37250269E-04
    4   -0.19429967E+03   -0.67538224E-08    0.38594781E-05
    5   -0.19429967E+03   -0.12229862E-09    0.31397064E-06
    6   -0.19429967E+03   -0.10288659E-10    0.72629987E-07
    7   -0.19429967E+03   -0.14210855E-12    0.20210023E-07
    8   -0.19429967E+03    0.28421709E-13    0.57939524E-08

Total Energy:                     -192.3336489470 H        -5233.6649 eV
Extrapolated to 0K:               -192.3336489470 H        -5233.6649 eV
Total Mermin free energy:         -192.3336489470 H        -5233.6649 eV
Force related energy:             -192.3336489470 H        -5233.6649 eV

Volume:                              0.993869E+04 au^3   0.147276E+04 A^3
Pressure:                            0.937619E-07 au     0.275857E+07 Pa
>> Charges saved for restart in charges.bin

total energy  -1.9233365E+02 H       energy change -1.1636313E-06 H
gradient norm  6.8467984E-04 H/a0    max. gradient  1.8599587E-04 H/a0
step length    8.2037464E-03 a0      max. step      2.6600341E-03 a0

--------------------------------------------------------------------------------

***  Geometry step: 204

 iSCC Total electronic   Diff electronic      SCC error    
    1   -0.19429967E+03    0.00000000E+00    0.10926792E-03
    2   -0.19429961E+03    0.58182311E-04    0.47084928E-04
    3   -0.19429961E+03   -0.97988675E-08    0.12486058E-04
    4   -0.19429961E+03   -0.23389930E-08    0.15429571E-05
    5   -0.19429961E+03   -0.17820412E-10    0.14946711E-06
    6   -0.19429961E+03   -0.15347723E-11    0.41122548E-07
    7   -0.19429961E+03   -0.28421709E-13    0.54953220E-08

Total Energy:                     -192.3336494824 H        -5233.6649 eV
Extrapolated to 0K:               -192.3336494824 H        -5233.6649 eV
Total Mermin free energy:         -192.3336494824 H        -5233.6649 eV
Force related energy:             -192.3336494824 H        -5233.6649 eV

Volume:                              0.993877E+04 au^3   0.147277E+04 A^3
Pressure:                            0.884564E-07 au     0.260248E+07 Pa
>> Charges saved for restart in charges.bin

total energy  -1.9233365E+02 H       energy change -5.3535405E-07 H
gradient norm  5.5356214E-04 H/a0    max. gradient  1.3614544E-04 H/a0
step length    1.4723438E-03 a0      max. step      3.7412208E-04 a0

--------------------------------------------------------------------------------

***  Geometry step: 205

 iSCC Total electronic   Diff electronic      SCC error    
    1   -0.19429961E+03    0.00000000E+00    0.19120385E-03
    2   -0.19429957E+03    0.44062268E-04    0.86380890E-04
    3   -0.19429957E+03   -0.29260946E-07    0.21287115E-04
    4   -0.19429957E+03   -0.65087988E-08    0.27854507E-05
    5   -0.19429957E+03   -0.57980287E-10    0.36864869E-06
    6   -0.19429957E+03   -0.61675109E-11    0.70155521E-07
    7   -0.19429957E+03    0.00000000E+00    0.12748057E-07
    8   -0.19429957E+03   -0.11368684E-12    0.29670137E-08

Total Energy:                     -192.3336503647 H        -5233.6649 eV
Extrapolated to 0K:               -192.3336503647 H        -5233.6649 eV
Total Mermin free energy:         -192.3336503647 H        -5233.6649 eV
Force related energy:             -192.3336503647 H        -5233.6649 eV

Volume:                              0.993861E+04 au^3   0.147275E+04 A^3
Pressure:                            0.849392E-07 au     0.249900E+07 Pa
>> Charges saved for restart in charges.bin

total energy  -1.9233365E+02 H       energy change -8.8237385E-07 H
gradient norm  6.2774881E-04 H/a0    max. gradient  1.4135112E-04 H/a0
step length    9.4343483E-03 a0      max. step      2.8875550E-03 a0

--------------------------------------------------------------------------------

***  Geometry step: 206

 iSCC Total electronic   Diff electronic      SCC error    
    1   -0.19429957E+03    0.00000000E+00    0.66148592E-04
    2   -0.19429951E+03    0.57738742E-04    0.35135162E-04
    3   -0.19429951E+03   -0.43702926E-08    0.11458216E-04
    4   -0.19429951E+03   -0.10323049E-08    0.10822465E-05
    5   -0.19429951E+03   -0.14523494E-10    0.11681582E-06
    6   -0.19429951E+03   -0.93791641E-12    0.30179271E-07
    7   -0.19429951E+03    0.00000000E+00    0.65405157E-08

Total Energy:                     -192.3336508040 H        -5233.6649 eV
Extrapolated to 0K:               -192.3336508040 H        -5233.6649 eV
Total Mermin free energy:         -192.3336508040 H        -5233.6649 eV
Force related energy:             -192.3336508040 H        -5233.6649 eV

Volume:                              0.993860E+04 au^3   0.147275E+04 A^3
Pressure:                            0.516500E-07 au     0.151960E+07 Pa
>> Charges saved for restart in charges.bin

total energy  -1.9233365E+02 H       energy change -4.3926292E-07 H
gradient norm  5.7883373E-04 H/a0    max. gradient  1.3206531E-04 H/a0
step length    1.3818035E-03 a0      max. step      2.8005890E-04 a0

--------------------------------------------------------------------------------

***  Geometry step: 207

 iSCC Total electronic   Diff electronic      SCC error    
    1   -0.19429951E+03    0.00000000E+00    0.16678662E-03
    2   -0.19429947E+03    0.46354233E-04    0.77909108E-04
    3   -0.19429947E+03   -0.31155196E-07    0.26762718E-04
    4   -0.19429947E+03   -0.73302715E-08    0.30647520E-05
    5   -0.19429947E+03   -0.96065378E-10    0.38889509E-06
    6   -0.19429947E+03   -0.65938366E-11    0.64527550E-07
    7   -0.19429947E+03   -0.85265128E-13    0.16662368E-07
    8   -0.19429947E+03   -0.85265128E-13    0.37962335E-08

Total Energy:                     -192.3336517796 H        -5233.6650 eV
Extrapolated to 0K:               -192.3336517796 H        -5233.6650 eV
Total Mermin free energy:         -192.3336517796 H        -5233.6650 eV
Force related energy:             -192.3336517796 H        -5233.6650 eV

Volume:                              0.993854E+04 au^3   0.147274E+04 A^3
Pressure:                            0.232740E-07 au     0.684744E+06 Pa
>> Charges saved for restart in charges.bin

total energy  -1.9233365E+02 H       energy change -9.7556173E-07 H
gradient norm  5.8907634E-04 H/a0    max. gradient  1.3812903E-04 H/a0
step length    4.6901305E-03 a0      max. step      1.1851154E-03 a0

--------------------------------------------------------------------------------

***  Geometry step: 208

 iSCC Total electronic   Diff electronic      SCC error    
    1   -0.19429947E+03    0.00000000E+00    0.13987221E-03
    2   -0.19429947E+03   -0.16364725E-05    0.57777606E-04
    3   -0.19429947E+03   -0.10823584E-07    0.16704279E-04
    4   -0.19429947E+03   -0.21994708E-08    0.17674711E-05
    5   -0.19429947E+03   -0.31860736E-10    0.36731412E-06
    6   -0.19429947E+03   -0.21316282E-11    0.93475053E-07
    7   -0.19429947E+03   -0.28421709E-13    0.10819327E-07
    8   -0.19429947E+03    0.56843419E-13    0.26983553E-08

Total Energy:                     -192.3336526809 H        -5233.6650 eV
Extrapolated to 0K:               -192.3336526809 H        -5233.6650 eV
Total Mermin free energy:         -192.3336526809 H        -5233.6650 eV
Force related energy:             -192.3336526809 H        -5233.6650 eV

Volume:                              0.993818E+04 au^3   0.147269E+04 A^3
Pressure:                            0.323736E-07 au     0.952464E+06 Pa
>> Charges saved for restart in charges.bin

total energy  -1.9233365E+02 H       energy change -9.0133088E-07 H
gradient norm  6.0029859E-04 H/a0    max. gradient  1.4809909E-04 H/a0
step length    1.1127916E-02 a0      max. step      3.4867502E-03 a0

--------------------------------------------------------------------------------

***  Geometry step: 209

 iSCC Total electronic   Diff electronic      SCC error    
    1   -0.19429947E+03    0.00000000E+00    0.16161401E-03
    2   -0.19429948E+03   -0.16737578E-04    0.65962804E-04
    3   -0.19429948E+03   -0.13624401E-07    0.15955146E-04
    4   -0.19429948E+03   -0.29344278E-08    0.19996146E-05
    5   -0.19429948E+03   -0.36351366E-10    0.49771073E-06
    6   -0.19429948E+03   -0.25011104E-11    0.10528419E-06
    7   -0.19429948E+03   -0.14210855E-12    0.10142323E-07
    8   -0.19429948E+03    0.00000000E+00    0.31286800E-08

Total Energy:                     -192.3336533250 H        -5233.6650 eV
Extrapolated to 0K:               -192.3336533250 H        -5233.6650 eV
Total Mermin free energy:         -192.3336533250 H        -5233.6650 eV
Force related energy:             -192.3336533250 H        -5233.6650 eV

Volume:                              0.993785E+04 au^3   0.147264E+04 A^3
Pressure:                            0.430060E-07 au     0.126528E+07 Pa
>> Charges saved for restart in charges.bin

total energy  -1.9233365E+02 H       energy change -6.4407655E-07 H
gradient norm  5.0768215E-04 H/a0    max. gradient  1.1129787E-04 H/a0
step length    1.0888380E-02 a0      max. step      3.4048297E-03 a0

--------------------------------------------------------------------------------

***  Geometry step: 210

 iSCC Total electronic   Diff electronic      SCC error    
    1   -0.19429948E+03    0.00000000E+00    0.77055433E-04
    2   -0.19429953E+03   -0.41628406E-04    0.34152528E-04
    3   -0.19429953E+03   -0.42699071E-08    0.11872155E-04
    4   -0.19429953E+03   -0.98492592E-09    0.82953266E-06
    5   -0.19429953E+03   -0.10089707E-10    0.11595484E-06
    6   -0.19429953E+03   -0.48316906E-12    0.27476241E-07
    7   -0.19429953E+03    0.00000000E+00    0.36827865E-08

Total Energy:                     -192.3336536112 H        -5233.6650 eV
Extrapolated to 0K:               -192.3336536112 H        -5233.6650 eV
Total Mermin free energy:         -192.3336536112 H        -5233.6650 eV
Force related energy:             -192.3336536112 H        -5233.6650 eV

Volume:                              0.993784E+04 au^3   0.147264E+04 A^3
Pressure:                            0.624117E-07 au     0.183622E+07 Pa
>> Charges saved for restart in charges.bin

total energy  -1.9233365E+02 H       energy change -2.8626332E-07 H
gradient norm  3.8623987E-04 H/a0    max. gradient  8.7107497E-05 H/a0
step length    8.5220493E-04 a0      max. step      1.8714485E-04 a0

Geometry converged

--------------------------------------------------------------------------------
DFTB+ running times                          cpu [s]             wall clock [s]
--------------------------------------------------------------------------------
Pre-SCC initialisation                 +      18.23 (  1.1%)       2.67 (  1.3%)
SCC                                    +    1497.79 ( 87.3%)     189.22 ( 88.5%)
Post-SCC processing                    +     199.17 ( 11.6%)      21.92 ( 10.3%)
--------------------------------------------------------------------------------
Missing                                +       0.04 (  0.0%)       0.01 (  0.0%)
Total                                  =    1715.23 (100.0%)     213.82 (100.0%)
--------------------------------------------------------------------------------
