|===============================================================================
|
|  DFTB+ release 24.1
|
|  Copyright (C) 2006 - 2024  DFTB+ developers group
|
|===============================================================================
|
|  When publishing results obtained with DFTB+, please cite the following
|  reference:
|
|  * DFTB+, a software package for efficient approximate density functional
|    theory based atomistic simulations, J. Chem. Phys. 152, 124101 (2020).
|    [doi: 10.1063/1.5143190]
|
|  You should also cite additional publications crediting the parametrization
|  data you use. Please consult the documentation of the SK-files for the
|  references.
|
|===============================================================================

Reading input file 'dftb_in.hsd'
Parser version: 14

--------------------------------------------------------------------------------
Reading SK-files:
./SKFiles/Ge-Ge.skf
./SKFiles/Ge-Si.skf
./SKFiles/Ge-O.skf
./SKFiles/Si-Si.skf
./SKFiles/Si-O.skf
./SKFiles/O-O.skf
Done.


Processed input in HSD format written to 'dftb_pin.hsd'

Starting initialization...
--------------------------------------------------------------------------------
WARNING!
-> Dipole printed for extended system : value printed is not well defined
MPI processes:               1
OpenMP threads:              8
BLACS orbital grid size:     1 x 1
BLACS atom grid size:        1 x 1
Chosen random seed:          116391684
Current stacksize:           unlimited
Mode:                        Static calculation
Self consistent charges:     Yes
SCC-tolerance:                 0.100000E-07
Max. scc iterations:                    500
Shell resolved Hubbard:      No
Spin polarisation:           No
Nr. of up electrons:           192.000000
Nr. of down electrons:         192.000000
Periodic boundaries:         Yes
Electronic solver:           Relatively robust
Mixer:                       Broyden mixer
Mixing parameter:                  0.200000
Maximal SCC-cycles:                     500
Nr. of chrg. vec. in memory:            500
Electronic temperature:              0.100000E-07 H      0.272114E-06 eV
Initial charges:             Set automatically (system chrg:   0.000E+00)
Included shells:            Ge:  s, p, d
                            Si:  s, p, d
                             O:  s, p
K-points and weights:           1:  0.500000  0.500000  0.500000     1.000000

K-points in absolute space:     1:  0.025319  0.017606  0.037774

Extra options:
                             Mulliken analysis
Force type                   original

--------------------------------------------------------------------------------

***  Geometry step: 0

 iSCC Total electronic   Diff electronic      SCC error    
    1    0.00000000E+00    0.00000000E+00    0.14596861E+01
    2   -0.19467359E+03   -0.19467359E+03    0.99395580E+00
    3   -0.19504158E+03   -0.36798339E+00    0.62766720E-01
    4   -0.19535896E+03   -0.31738057E+00    0.27896359E-01
    5   -0.19536107E+03   -0.21109477E-02    0.83279619E-02
    6   -0.19536122E+03   -0.14949705E-03    0.18218153E-02
    7   -0.19536122E+03   -0.44429978E-05    0.43425829E-03
    8   -0.19536122E+03   -0.12375596E-05    0.71640666E-04
    9   -0.19536122E+03   -0.67894007E-07    0.27044981E-04
   10   -0.19536122E+03   -0.89869445E-10    0.14826648E-05
   11   -0.19536122E+03   -0.16834178E-09    0.37790310E-06
   12   -0.19536122E+03   -0.26147973E-11    0.13383637E-06
   13   -0.19536122E+03    0.00000000E+00    0.14933300E-07
   14   -0.19536122E+03    0.56843419E-13    0.17246395E-08

Total Energy:                     -191.9488619351 H        -5223.1943 eV
Extrapolated to 0K:               -191.9488619351 H        -5223.1943 eV
Total Mermin free energy:         -191.9488619351 H        -5223.1943 eV
Force related energy:             -191.9488619351 H        -5223.1943 eV

Volume:                              0.913789E+04 au^3   0.135410E+04 A^3
Pressure:                            0.625110E-03 au     0.183914E+11 Pa
>> Charges saved for restart in charges.bin

total energy  -1.9194886E+02 H       energy change -1.9194886E+02 H
gradient norm  6.2989951E-01 H/a0    max. gradient  2.8992227E-01 H/a0
step length    0.0000000E+00 a0      max. step      0.0000000E+00 a0

--------------------------------------------------------------------------------

***  Geometry step: 1

 iSCC Total electronic   Diff electronic      SCC error    
    1   -0.19536122E+03    0.00000000E+00    0.72845697E-01
    2   -0.19505740E+03    0.30382327E+00    0.34274007E-01
    3   -0.19506204E+03   -0.46450891E-02    0.10938656E-01
    4   -0.19506313E+03   -0.10846031E-02    0.10556008E-02
    5   -0.19506314E+03   -0.10573427E-04    0.34872638E-03
    6   -0.19506314E+03   -0.44723726E-06    0.10282278E-03
    7   -0.19506314E+03   -0.38783895E-07    0.22668822E-04
    8   -0.19506314E+03   -0.28524312E-08    0.24710946E-05
    9   -0.19506314E+03   -0.13642421E-09    0.91603535E-06
   10   -0.19506314E+03   -0.31832315E-11    0.29705086E-06
   11   -0.19506314E+03   -0.28421709E-13    0.28939447E-07
   12   -0.19506314E+03   -0.11368684E-12    0.41659285E-08

Total Energy:                     -192.0586931251 H        -5226.1829 eV
Extrapolated to 0K:               -192.0586931251 H        -5226.1829 eV
Total Mermin free energy:         -192.0586931251 H        -5226.1829 eV
Force related energy:             -192.0586931251 H        -5226.1829 eV

Volume:                              0.938875E+04 au^3   0.139127E+04 A^3
Pressure:                            0.431626E-03 au     0.126989E+11 Pa
>> Charges saved for restart in charges.bin

total energy  -1.9205869E+02 H       energy change -1.0983119E-01 H
gradient norm  4.8212086E-01 H/a0    max. gradient  1.8226738E-01 H/a0
step length    4.8296946E-01 a0      max. step      2.2229514E-01 a0

--------------------------------------------------------------------------------

***  Geometry step: 2

 iSCC Total electronic   Diff electronic      SCC error    
    1   -0.19506314E+03    0.00000000E+00    0.62637459E-01
    2   -0.19497208E+03    0.91060523E-01    0.36340063E-01
    3   -0.19497411E+03   -0.20306884E-02    0.88472799E-02
    4   -0.19497463E+03   -0.51724239E-03    0.67528611E-03
    5   -0.19497463E+03   -0.49767482E-05    0.20005549E-03
    6   -0.19497463E+03   -0.24144731E-06    0.76004782E-04
    7   -0.19497463E+03   -0.13108462E-07    0.11336798E-04
    8   -0.19497463E+03   -0.13461658E-08    0.12852272E-05
    9   -0.19497463E+03   -0.82451379E-10    0.39072238E-06
   10   -0.19497463E+03   -0.15347723E-11    0.13448198E-06
   11   -0.19497463E+03    0.28421709E-13    0.21639623E-07
   12   -0.19497463E+03   -0.28421709E-13    0.43055124E-08

Total Energy:                     -192.1654904134 H        -5229.0890 eV
Extrapolated to 0K:               -192.1654904134 H        -5229.0890 eV
Total Mermin free energy:         -192.1654904134 H        -5229.0890 eV
Force related energy:             -192.1654904134 H        -5229.0890 eV

Volume:                              0.939871E+04 au^3   0.139275E+04 A^3
Pressure:                            0.360758E-03 au     0.106139E+11 Pa
>> Charges saved for restart in charges.bin

total energy  -1.9216549E+02 H       energy change -1.0679729E-01 H
gradient norm  2.5204465E-01 H/a0    max. gradient  4.5321439E-02 H/a0
step length    3.6805851E-01 a0      max. step      7.7250594E-02 a0

--------------------------------------------------------------------------------

***  Geometry step: 3

 iSCC Total electronic   Diff electronic      SCC error    
    1   -0.19497463E+03    0.00000000E+00    0.65274419E-01
    2   -0.19476674E+03    0.20789002E+00    0.37868891E-01
    3   -0.19476834E+03   -0.15924318E-02    0.68340710E-02
    4   -0.19476879E+03   -0.45048348E-03    0.74757421E-03
    5   -0.19476879E+03   -0.55258336E-05    0.17813257E-03
    6   -0.19476879E+03   -0.34160536E-06    0.11754695E-03
    7   -0.19476879E+03   -0.11728758E-07    0.11396209E-04
    8   -0.19476879E+03   -0.11293366E-08    0.17292748E-05
    9   -0.19476879E+03   -0.59515060E-10    0.40999603E-06
   10   -0.19476879E+03   -0.99475983E-12    0.73379820E-07
   11   -0.19476879E+03   -0.85265128E-13    0.17264361E-07
   12   -0.19476879E+03   -0.28421709E-13    0.46657318E-08

Total Energy:                     -192.2387352134 H        -5231.0821 eV
Extrapolated to 0K:               -192.2387352134 H        -5231.0821 eV
Total Mermin free energy:         -192.2387352134 H        -5231.0821 eV
Force related energy:             -192.2387352134 H        -5231.0821 eV

Volume:                              0.948538E+04 au^3   0.140559E+04 A^3
Pressure:                            0.252149E-03 au     0.741847E+10 Pa
>> Charges saved for restart in charges.bin

total energy  -1.9223874E+02 H       energy change -7.3244800E-02 H
gradient norm  1.8901658E-01 H/a0    max. gradient  9.0470593E-02 H/a0
step length    4.9850183E-01 a0      max. step      1.0623493E-01 a0

--------------------------------------------------------------------------------

***  Geometry step: 4

 iSCC Total electronic   Diff electronic      SCC error    
    1   -0.19476879E+03    0.00000000E+00    0.46929441E-01
    2   -0.19453793E+03    0.23086190E+00    0.27557892E-01
    3   -0.19453875E+03   -0.82153501E-03    0.52691480E-02
    4   -0.19453896E+03   -0.20620892E-03    0.43307693E-03
    5   -0.19453896E+03   -0.44269723E-05    0.24679064E-03
    6   -0.19453896E+03   -0.16477233E-06    0.11303644E-03
    7   -0.19453896E+03   -0.36944527E-08    0.58543734E-05
    8   -0.19453896E+03   -0.79938900E-09    0.16613156E-05
    9   -0.19453896E+03   -0.35811354E-10    0.19852253E-06
   10   -0.19453896E+03   -0.59685590E-12    0.55801434E-07
   11   -0.19453896E+03   -0.11368684E-12    0.13054065E-07
   12   -0.19453896E+03    0.00000000E+00    0.33101282E-08

Total Energy:                     -192.2730766603 H        -5232.0166 eV
Extrapolated to 0K:               -192.2730766603 H        -5232.0166 eV
Total Mermin free energy:         -192.2730766603 H        -5232.0166 eV
Force related energy:             -192.2730766603 H        -5232.0166 eV

Volume:                              0.960075E+04 au^3   0.142268E+04 A^3
Pressure:                            0.147747E-03 au     0.434686E+10 Pa
>> Charges saved for restart in charges.bin

total energy  -1.9227308E+02 H       energy change -3.4341447E-02 H
gradient norm  1.8753932E-01 H/a0    max. gradient  1.0946262E-01 H/a0
step length    4.5351732E-01 a0      max. step      1.0569090E-01 a0

--------------------------------------------------------------------------------

***  Geometry step: 5

 iSCC Total electronic   Diff electronic      SCC error    
    1   -0.19453896E+03    0.00000000E+00    0.24701875E-01
    2   -0.19440137E+03    0.13759406E+00    0.12085053E-01
    3   -0.19440173E+03   -0.35797040E-03    0.18323425E-02
    4   -0.19440182E+03   -0.93469222E-04    0.24582718E-03
    5   -0.19440182E+03   -0.10617764E-05    0.90154877E-04
    6   -0.19440182E+03   -0.58422017E-07    0.44653452E-04
    7   -0.19440182E+03   -0.10304291E-08    0.29092450E-05
    8   -0.19440182E+03   -0.11837642E-09    0.63862162E-06
    9   -0.19440182E+03   -0.54285465E-11    0.11916735E-06
   10   -0.19440182E+03   -0.85265128E-13    0.28691887E-07
   11   -0.19440182E+03   -0.56843419E-13    0.52628146E-08

Total Energy:                     -192.2926230899 H        -5232.5485 eV
Extrapolated to 0K:               -192.2926230899 H        -5232.5485 eV
Total Mermin free energy:         -192.2926230899 H        -5232.5485 eV
Force related energy:             -192.2926230899 H        -5232.5485 eV

Volume:                              0.966562E+04 au^3   0.143230E+04 A^3
Pressure:                            0.847052E-04 au     0.249211E+10 Pa
>> Charges saved for restart in charges.bin

total energy  -1.9229262E+02 H       energy change -1.9546430E-02 H
gradient norm  8.6245591E-02 H/a0    max. gradient  1.6100011E-02 H/a0
step length    3.0131847E-01 a0      max. step      5.2891319E-02 a0

--------------------------------------------------------------------------------

***  Geometry step: 6

 iSCC Total electronic   Diff electronic      SCC error    
    1   -0.19440182E+03    0.00000000E+00    0.15955886E-01
    2   -0.19433730E+03    0.64519040E-01    0.66480555E-02
    3   -0.19433746E+03   -0.15462316E-03    0.18297521E-02
    4   -0.19433749E+03   -0.36060132E-04    0.28233309E-03
    5   -0.19433749E+03   -0.47246553E-06    0.41972188E-04
    6   -0.19433749E+03   -0.50507140E-07    0.12573150E-04
    7   -0.19433749E+03   -0.10754491E-08    0.49701164E-05
    8   -0.19433749E+03   -0.94019015E-10    0.60906817E-06
    9   -0.19433749E+03   -0.36948222E-11    0.14059562E-06
   10   -0.19433749E+03   -0.28421709E-12    0.37116559E-07
   11   -0.19433749E+03   -0.56843419E-13    0.69745267E-08

Total Energy:                     -192.3024383378 H        -5232.8156 eV
Extrapolated to 0K:               -192.3024383378 H        -5232.8156 eV
Total Mermin free energy:         -192.3024383378 H        -5232.8156 eV
Force related energy:             -192.3024383378 H        -5232.8156 eV

Volume:                              0.969111E+04 au^3   0.143608E+04 A^3
Pressure:                            0.542445E-04 au     0.159593E+10 Pa
>> Charges saved for restart in charges.bin

total energy  -1.9230244E+02 H       energy change -9.8152478E-03 H
gradient norm  6.6708972E-02 H/a0    max. gradient  2.0222706E-02 H/a0
step length    2.2125370E-01 a0      max. step      4.5637732E-02 a0

--------------------------------------------------------------------------------

***  Geometry step: 7

 iSCC Total electronic   Diff electronic      SCC error    
    1   -0.19433749E+03    0.00000000E+00    0.17227052E-01
    2   -0.19430785E+03    0.29637872E-01    0.10325559E-01
    3   -0.19430805E+03   -0.19249181E-03    0.25336187E-02
    4   -0.19430810E+03   -0.48068052E-04    0.26908934E-03
    5   -0.19430810E+03   -0.67065906E-06    0.90852933E-04
    6   -0.19430810E+03   -0.51365362E-07    0.32002981E-04
    7   -0.19430810E+03   -0.12888677E-08    0.61941663E-05
    8   -0.19430810E+03   -0.82394536E-10    0.73502971E-06
    9   -0.19430810E+03   -0.10743406E-10    0.12830078E-06
   10   -0.19430810E+03   -0.22737368E-12    0.15404825E-07
   11   -0.19430810E+03    0.00000000E+00    0.63212902E-08

Total Energy:                     -192.3100059958 H        -5233.0215 eV
Extrapolated to 0K:               -192.3100059958 H        -5233.0215 eV
Total Mermin free energy:         -192.3100059958 H        -5233.0215 eV
Force related energy:             -192.3100059958 H        -5233.0215 eV

Volume:                              0.970406E+04 au^3   0.143799E+04 A^3
Pressure:                            0.386970E-04 au     0.113850E+10 Pa
>> Charges saved for restart in charges.bin

total energy  -1.9231001E+02 H       energy change -7.5676580E-03 H
gradient norm  5.4064107E-02 H/a0    max. gradient  1.9541936E-02 H/a0
step length    2.2185123E-01 a0      max. step      4.2407151E-02 a0

--------------------------------------------------------------------------------

***  Geometry step: 8

 iSCC Total electronic   Diff electronic      SCC error    
    1   -0.19430810E+03    0.00000000E+00    0.15483305E-01
    2   -0.19431042E+03   -0.23237614E-02    0.94188762E-02
    3   -0.19431052E+03   -0.99729195E-04    0.17186043E-02
    4   -0.19431055E+03   -0.28043428E-04    0.19143306E-03
    5   -0.19431055E+03   -0.69581836E-06    0.83172417E-04
    6   -0.19431055E+03   -0.57448830E-07    0.20396048E-04
    7   -0.19431055E+03   -0.12383623E-08    0.47281294E-05
    8   -0.19431055E+03   -0.48117954E-10    0.52587124E-06
    9   -0.19431055E+03   -0.71906925E-11    0.11208044E-06
   10   -0.19431055E+03   -0.25579538E-12    0.15284837E-07
   11   -0.19431055E+03    0.56843419E-13    0.29355571E-08

Total Energy:                     -192.3137928593 H        -5233.1246 eV
Extrapolated to 0K:               -192.3137928593 H        -5233.1246 eV
Total Mermin free energy:         -192.3137928593 H        -5233.1246 eV
Force related energy:             -192.3137928593 H        -5233.1246 eV

Volume:                              0.970209E+04 au^3   0.143770E+04 A^3
Pressure:                            0.374552E-04 au     0.110197E+10 Pa
>> Charges saved for restart in charges.bin

total energy  -1.9231379E+02 H       energy change -3.7868636E-03 H
gradient norm  4.2591589E-02 H/a0    max. gradient  1.0263030E-02 H/a0
step length    1.6708050E-01 a0      max. step      2.9412599E-02 a0

--------------------------------------------------------------------------------

***  Geometry step: 9

 iSCC Total electronic   Diff electronic      SCC error    
    1   -0.19431055E+03    0.00000000E+00    0.79716781E-02
    2   -0.19431625E+03   -0.56968748E-02    0.48938779E-02
    3   -0.19431629E+03   -0.40446133E-04    0.80449563E-03
    4   -0.19431630E+03   -0.11527625E-04    0.14022884E-03
    5   -0.19431630E+03   -0.41484233E-06    0.46675513E-04
    6   -0.19431630E+03   -0.15290624E-07    0.15320412E-04
    7   -0.19431630E+03   -0.42342663E-09    0.25152214E-05
    8   -0.19431630E+03   -0.33907099E-10    0.28347093E-06
    9   -0.19431630E+03   -0.13926638E-11    0.62835374E-07
   10   -0.19431630E+03    0.28421709E-13    0.12726857E-07
   11   -0.19431630E+03   -0.85265128E-13    0.16053008E-08

Total Energy:                     -192.3162336596 H        -5233.1910 eV
Extrapolated to 0K:               -192.3162336596 H        -5233.1910 eV
Total Mermin free energy:         -192.3162336596 H        -5233.1910 eV
Force related energy:             -192.3162336596 H        -5233.1910 eV

Volume:                              0.970118E+04 au^3   0.143757E+04 A^3
Pressure:                            0.371812E-04 au     0.109391E+10 Pa
>> Charges saved for restart in charges.bin

total energy  -1.9231623E+02 H       energy change -2.4408003E-03 H
gradient norm  3.7917850E-02 H/a0    max. gradient  7.1091827E-03 H/a0
step length    1.4088772E-01 a0      max. step      2.2779384E-02 a0

--------------------------------------------------------------------------------

***  Geometry step: 10

 iSCC Total electronic   Diff electronic      SCC error    
    1   -0.19431630E+03    0.00000000E+00    0.81918057E-02
    2   -0.19432342E+03   -0.71235744E-02    0.38700085E-02
    3   -0.19432348E+03   -0.58640733E-04    0.11421314E-02
    4   -0.19432349E+03   -0.13768768E-04    0.13262739E-03
    5   -0.19432349E+03   -0.42473380E-06    0.25925765E-04
    6   -0.19432349E+03   -0.22443629E-07    0.84228878E-05
    7   -0.19432349E+03   -0.66492589E-09    0.22742680E-05
    8   -0.19432349E+03   -0.54768634E-10    0.30634489E-06
    9   -0.19432349E+03   -0.17905677E-11    0.65932373E-07
   10   -0.19432349E+03   -0.11368684E-12    0.16026222E-07
   11   -0.19432349E+03    0.28421709E-13    0.29918015E-08

Total Energy:                     -192.3185131735 H        -5233.2530 eV
Extrapolated to 0K:               -192.3185131735 H        -5233.2530 eV
Total Mermin free energy:         -192.3185131735 H        -5233.2530 eV
Force related energy:             -192.3185131735 H        -5233.2530 eV

Volume:                              0.970170E+04 au^3   0.143764E+04 A^3
Pressure:                            0.377438E-04 au     0.111046E+10 Pa
>> Charges saved for restart in charges.bin

total energy  -1.9231851E+02 H       energy change -2.2795139E-03 H
gradient norm  3.5614966E-02 H/a0    max. gradient  9.7463979E-03 H/a0
step length    1.4368281E-01 a0      max. step      2.6300240E-02 a0

--------------------------------------------------------------------------------

***  Geometry step: 11

 iSCC Total electronic   Diff electronic      SCC error    
    1   -0.19432349E+03    0.00000000E+00    0.90281776E-02
    2   -0.19432067E+03    0.28270730E-02    0.43204246E-02
    3   -0.19432074E+03   -0.72785601E-04    0.12342592E-02
    4   -0.19432076E+03   -0.17483523E-04    0.14273905E-03
    5   -0.19432076E+03   -0.33453850E-06    0.18617515E-04
    6   -0.19432076E+03   -0.22125533E-07    0.85162756E-05
    7   -0.19432076E+03   -0.31377567E-09    0.23612668E-05
    8   -0.19432076E+03   -0.31718628E-10    0.28453876E-06
    9   -0.19432076E+03   -0.10516032E-11    0.82459949E-07
   10   -0.19432076E+03    0.28421709E-13    0.16995075E-07
   11   -0.19432076E+03    0.00000000E+00    0.17890045E-08

Total Energy:                     -192.3205541356 H        -5233.3085 eV
Extrapolated to 0K:               -192.3205541356 H        -5233.3085 eV
Total Mermin free energy:         -192.3205541356 H        -5233.3085 eV
Force related energy:             -192.3205541356 H        -5233.3085 eV

Volume:                              0.971446E+04 au^3   0.143954E+04 A^3
Pressure:                            0.339991E-04 au     0.100029E+10 Pa
>> Charges saved for restart in charges.bin

total energy  -1.9232055E+02 H       energy change -2.0409621E-03 H
gradient norm  3.4862550E-02 H/a0    max. gradient  1.1180198E-02 H/a0
step length    1.4763405E-01 a0      max. step      2.8740121E-02 a0

--------------------------------------------------------------------------------

***  Geometry step: 12

 iSCC Total electronic   Diff electronic      SCC error    
    1   -0.19432076E+03    0.00000000E+00    0.62325543E-02
    2   -0.19431385E+03    0.69048322E-02    0.39185228E-02
    3   -0.19431389E+03   -0.38364853E-04    0.12324333E-02
    4   -0.19431390E+03   -0.86201823E-05    0.12285444E-03
    5   -0.19431390E+03   -0.19053286E-06    0.36578136E-04
    6   -0.19431390E+03   -0.12088094E-07    0.15175088E-04
    7   -0.19431390E+03   -0.15555202E-09    0.19601207E-05
    8   -0.19431390E+03   -0.15177193E-10    0.14527771E-06
    9   -0.19431390E+03   -0.96633812E-12    0.49192902E-07
   10   -0.19431390E+03   -0.14210855E-12    0.62995662E-08

Total Energy:                     -192.3220552686 H        -5233.3494 eV
Extrapolated to 0K:               -192.3220552686 H        -5233.3494 eV
Total Mermin free energy:         -192.3220552686 H        -5233.3494 eV
Force related energy:             -192.3220552686 H        -5233.3494 eV

Volume:                              0.972971E+04 au^3   0.144180E+04 A^3
Pressure:                            0.290331E-04 au     0.854182E+09 Pa
>> Charges saved for restart in charges.bin

total energy  -1.9232206E+02 H       energy change -1.5011330E-03 H
gradient norm  3.2961845E-02 H/a0    max. gradient  1.2988983E-02 H/a0
step length    1.2854935E-01 a0      max. step      2.3132375E-02 a0

--------------------------------------------------------------------------------

***  Geometry step: 13

 iSCC Total electronic   Diff electronic      SCC error    
    1   -0.19431390E+03    0.00000000E+00    0.53479004E-02
    2   -0.19430310E+03    0.10803064E-01    0.32285036E-02
    3   -0.19430312E+03   -0.22053117E-04    0.95815918E-03
    4   -0.19430312E+03   -0.47201949E-05    0.88186817E-04
    5   -0.19430312E+03   -0.11876838E-06    0.12886045E-04
    6   -0.19430312E+03   -0.11610553E-07    0.51999214E-05
    7   -0.19430312E+03   -0.23175062E-09    0.14168684E-05
    8   -0.19430312E+03   -0.10714984E-10    0.23540594E-06
    9   -0.19430312E+03   -0.68212103E-12    0.49603404E-07
   10   -0.19430312E+03   -0.56843419E-13    0.10463785E-07
   11   -0.19430312E+03    0.00000000E+00    0.11057772E-08

Total Energy:                     -192.3233170800 H        -5233.3837 eV
Extrapolated to 0K:               -192.3233170800 H        -5233.3837 eV
Total Mermin free energy:         -192.3233170800 H        -5233.3837 eV
Force related energy:             -192.3233170800 H        -5233.3837 eV

Volume:                              0.975123E+04 au^3   0.144498E+04 A^3
Pressure:                            0.228913E-04 au     0.673487E+09 Pa
>> Charges saved for restart in charges.bin

total energy  -1.9232332E+02 H       energy change -1.2618114E-03 H
gradient norm  2.5312747E-02 H/a0    max. gradient  6.4444169E-03 H/a0
step length    1.1258102E-01 a0      max. step      2.0377979E-02 a0

--------------------------------------------------------------------------------

***  Geometry step: 14

 iSCC Total electronic   Diff electronic      SCC error    
    1   -0.19430312E+03    0.00000000E+00    0.49354742E-02
    2   -0.19429379E+03    0.93360422E-02    0.28492678E-02
    3   -0.19429381E+03   -0.21854357E-04    0.88958129E-03
    4   -0.19429381E+03   -0.48730070E-05    0.12742952E-03
    5   -0.19429381E+03   -0.10034265E-06    0.22196997E-04
    6   -0.19429381E+03   -0.89977448E-08    0.65381371E-05
    7   -0.19429381E+03   -0.31673153E-09    0.15040002E-05
    8   -0.19429381E+03   -0.16513013E-10    0.26625416E-06
    9   -0.19429381E+03   -0.68212103E-12    0.52394634E-07
   10   -0.19429381E+03   -0.11368684E-12    0.10182449E-07
   11   -0.19429381E+03    0.85265128E-13    0.98201491E-09

Total Energy:                     -192.3244121495 H        -5233.4135 eV
Extrapolated to 0K:               -192.3244121495 H        -5233.4135 eV
Total Mermin free energy:         -192.3244121495 H        -5233.4135 eV
Force related energy:             -192.3244121495 H        -5233.4135 eV

Volume:                              0.977359E+04 au^3   0.144830E+04 A^3
Pressure:                            0.174891E-04 au     0.514548E+09 Pa
>> Charges saved for restart in charges.bin

total energy  -1.9232441E+02 H       energy change -1.0950695E-03 H
gradient norm  2.2125234E-02 H/a0    max. gradient  5.2851644E-03 H/a0
step length    1.1445692E-01 a0      max. step      2.0487841E-02 a0

--------------------------------------------------------------------------------

***  Geometry step: 15

 iSCC Total electronic   Diff electronic      SCC error    
    1   -0.19429381E+03    0.00000000E+00    0.70042810E-02
    2   -0.19428935E+03    0.44608470E-02    0.38716318E-02
    3   -0.19428938E+03   -0.22248138E-04    0.73431793E-03
    4   -0.19428938E+03   -0.52346450E-05    0.10167824E-03
    5   -0.19428938E+03   -0.79710674E-07    0.33656795E-04
    6   -0.19428938E+03   -0.65778920E-08    0.95124038E-05
    7   -0.19428938E+03   -0.17396928E-09    0.18128018E-05
    8   -0.19428938E+03   -0.66791017E-11    0.21665241E-06
    9   -0.19428938E+03   -0.10231815E-11    0.49360937E-07
   10   -0.19428938E+03   -0.85265128E-13    0.72098789E-08

Total Energy:                     -192.3252167960 H        -5233.4354 eV
Extrapolated to 0K:               -192.3252167960 H        -5233.4354 eV
Total Mermin free energy:         -192.3252167960 H        -5233.4354 eV
Force related energy:             -192.3252167960 H        -5233.4354 eV

Volume:                              0.979235E+04 au^3   0.145108E+04 A^3
Pressure:                            0.143596E-04 au     0.422473E+09 Pa
>> Charges saved for restart in charges.bin

total energy  -1.9232522E+02 H       energy change -8.0464656E-04 H
gradient norm  2.1697129E-02 H/a0    max. gradient  4.9201904E-03 H/a0
step length    1.0319324E-01 a0      max. step      1.8564236E-02 a0

--------------------------------------------------------------------------------

***  Geometry step: 16

 iSCC Total electronic   Diff electronic      SCC error    
    1   -0.19428938E+03    0.00000000E+00    0.65598548E-02
    2   -0.19428926E+03    0.11756301E-03    0.37243159E-02
    3   -0.19428927E+03   -0.10693208E-04    0.66310684E-03
    4   -0.19428928E+03   -0.25485312E-05    0.60535512E-04
    5   -0.19428928E+03   -0.53440687E-07    0.29328796E-04
    6   -0.19428928E+03   -0.36807535E-08    0.57235751E-05
    7   -0.19428928E+03   -0.74123818E-10    0.85735924E-06
    8   -0.19428928E+03   -0.28137492E-11    0.17171521E-06
    9   -0.19428928E+03   -0.68212103E-12    0.27489648E-07
   10   -0.19428928E+03    0.00000000E+00    0.54763163E-08

Total Energy:                     -192.3258559779 H        -5233.4528 eV
Extrapolated to 0K:               -192.3258559779 H        -5233.4528 eV
Total Mermin free energy:         -192.3258559779 H        -5233.4528 eV
Force related energy:             -192.3258559779 H        -5233.4528 eV

Volume:                              0.980595E+04 au^3   0.145309E+04 A^3
Pressure:                            0.133654E-04 au     0.393223E+09 Pa
>> Charges saved for restart in charges.bin

total energy  -1.9232586E+02 H       energy change -6.3918186E-04 H
gradient norm  2.0632748E-02 H/a0    max. gradient  4.5678187E-03 H/a0
step length    9.0308504E-02 a0      max. step      1.6519202E-02 a0

--------------------------------------------------------------------------------

***  Geometry step: 17

 iSCC Total electronic   Diff electronic      SCC error    
    1   -0.19428928E+03    0.00000000E+00    0.56243478E-02
    2   -0.19429076E+03   -0.14805133E-02    0.32663043E-02
    3   -0.19429077E+03   -0.10209946E-04    0.67902584E-03
    4   -0.19429077E+03   -0.22434384E-05    0.87438815E-04
    5   -0.19429077E+03   -0.63725139E-07    0.35458330E-04
    6   -0.19429077E+03   -0.44950639E-08    0.62270441E-05
    7   -0.19429077E+03   -0.86913587E-10    0.10274902E-05
    8   -0.19429077E+03   -0.34106051E-11    0.19009795E-06
    9   -0.19429077E+03   -0.79580786E-12    0.38449815E-07
   10   -0.19429077E+03    0.85265128E-13    0.37021421E-08

Total Energy:                     -192.3265674760 H        -5233.4722 eV
Extrapolated to 0K:               -192.3265674760 H        -5233.4722 eV
Total Mermin free energy:         -192.3265674760 H        -5233.4722 eV
Force related energy:             -192.3265674760 H        -5233.4722 eV

Volume:                              0.982129E+04 au^3   0.145537E+04 A^3
Pressure:                            0.128140E-04 au     0.377001E+09 Pa
>> Charges saved for restart in charges.bin

total energy  -1.9232657E+02 H       energy change -7.1149810E-04 H
gradient norm  1.9126268E-02 H/a0    max. gradient  4.1360210E-03 H/a0
step length    1.1256540E-01 a0      max. step      1.9850469E-02 a0

--------------------------------------------------------------------------------

***  Geometry step: 18

 iSCC Total electronic   Diff electronic      SCC error    
    1   -0.19429077E+03    0.00000000E+00    0.39808947E-02
    2   -0.19429136E+03   -0.58752383E-03    0.16074502E-02
    3   -0.19429137E+03   -0.99080400E-05    0.58535944E-03
    4   -0.19429137E+03   -0.19058591E-05    0.80329354E-04
    5   -0.19429137E+03   -0.44175238E-07    0.17445442E-04
    6   -0.19429137E+03   -0.41242174E-08    0.47970226E-05
    7   -0.19429137E+03   -0.61533001E-10    0.99897725E-06
    8   -0.19429137E+03   -0.16768809E-11    0.18427479E-06
    9   -0.19429137E+03   -0.28421709E-12    0.45092480E-07
   10   -0.19429137E+03   -0.28421709E-13    0.39272652E-08

Total Energy:                     -192.3272234518 H        -5233.4900 eV
Extrapolated to 0K:               -192.3272234518 H        -5233.4900 eV
Total Mermin free energy:         -192.3272234518 H        -5233.4900 eV
Force related energy:             -192.3272234518 H        -5233.4900 eV

Volume:                              0.983665E+04 au^3   0.145764E+04 A^3
Pressure:                            0.119062E-04 au     0.350292E+09 Pa
>> Charges saved for restart in charges.bin

total energy  -1.9232722E+02 H       energy change -6.5597582E-04 H
gradient norm  1.9406200E-02 H/a0    max. gradient  3.4967119E-03 H/a0
step length    1.1066125E-01 a0      max. step      1.8498895E-02 a0

--------------------------------------------------------------------------------

***  Geometry step: 19

 iSCC Total electronic   Diff electronic      SCC error    
    1   -0.19429137E+03    0.00000000E+00    0.33065368E-02
    2   -0.19429020E+03    0.11736429E-02    0.17230212E-02
    3   -0.19429021E+03   -0.13762418E-04    0.59432818E-03
    4   -0.19429021E+03   -0.27333022E-05    0.90571409E-04
    5   -0.19429021E+03   -0.64138874E-07    0.20582022E-04
    6   -0.19429021E+03   -0.52074256E-08    0.58734621E-05
    7   -0.19429021E+03   -0.95809582E-10    0.10214459E-05
    8   -0.19429021E+03   -0.34674486E-11    0.17935803E-06
    9   -0.19429021E+03   -0.73896445E-12    0.57563862E-07
   10   -0.19429021E+03   -0.28421709E-13    0.55370499E-08

Total Energy:                     -192.3279029034 H        -5233.5085 eV
Extrapolated to 0K:               -192.3279029034 H        -5233.5085 eV
Total Mermin free energy:         -192.3279029034 H        -5233.5085 eV
Force related energy:             -192.3279029034 H        -5233.5085 eV

Volume:                              0.985506E+04 au^3   0.146037E+04 A^3
Pressure:                            0.101248E-04 au     0.297883E+09 Pa
>> Charges saved for restart in charges.bin

total energy  -1.9232790E+02 H       energy change -6.7945156E-04 H
gradient norm  1.9957041E-02 H/a0    max. gradient  6.0842974E-03 H/a0
step length    1.2546535E-01 a0      max. step      2.2009170E-02 a0

--------------------------------------------------------------------------------

***  Geometry step: 20

 iSCC Total electronic   Diff electronic      SCC error    
    1   -0.19429021E+03    0.00000000E+00    0.47852069E-02
    2   -0.19428704E+03    0.31728447E-02    0.27305335E-02
    3   -0.19428705E+03   -0.10649857E-04    0.51458418E-03
    4   -0.19428705E+03   -0.23551747E-05    0.60849541E-04
    5   -0.19428705E+03   -0.65673333E-07    0.31232947E-04
    6   -0.19428705E+03   -0.40041641E-08    0.69679974E-05
    7   -0.19428705E+03   -0.83247187E-10    0.10164344E-05
    8   -0.19428705E+03   -0.30979663E-11    0.17383457E-06
    9   -0.19428705E+03   -0.79580786E-12    0.39550208E-07
   10   -0.19428705E+03    0.17053026E-12    0.45416710E-08

Total Energy:                     -192.3284338108 H        -5233.5230 eV
Extrapolated to 0K:               -192.3284338108 H        -5233.5230 eV
Total Mermin free energy:         -192.3284338108 H        -5233.5230 eV
Force related energy:             -192.3284338108 H        -5233.5230 eV

Volume:                              0.987253E+04 au^3   0.146296E+04 A^3
Pressure:                            0.781402E-05 au     0.229896E+09 Pa
>> Charges saved for restart in charges.bin

total energy  -1.9232843E+02 H       energy change -5.3090743E-04 H
gradient norm  1.7049224E-02 H/a0    max. gradient  5.8100155E-03 H/a0
step length    1.0795714E-01 a0      max. step      1.9299420E-02 a0

--------------------------------------------------------------------------------

***  Geometry step: 21

 iSCC Total electronic   Diff electronic      SCC error    
    1   -0.19428705E+03    0.00000000E+00    0.40412222E-02
    2   -0.19428336E+03    0.36951042E-02    0.23592872E-02
    3   -0.19428336E+03   -0.73099327E-05    0.45643720E-03
    4   -0.19428337E+03   -0.17419201E-05    0.57962843E-04
    5   -0.19428337E+03   -0.42622588E-07    0.25622985E-04
    6   -0.19428337E+03   -0.22095037E-08    0.50899822E-05
    7   -0.19428337E+03   -0.55734972E-10    0.89732209E-06
    8   -0.19428337E+03   -0.19895197E-11    0.14535747E-06
    9   -0.19428337E+03   -0.39790393E-12    0.31651461E-07
   10   -0.19428337E+03    0.56843419E-13    0.35402428E-08

Total Energy:                     -192.3287924925 H        -5233.5327 eV
Extrapolated to 0K:               -192.3287924925 H        -5233.5327 eV
Total Mermin free energy:         -192.3287924925 H        -5233.5327 eV
Force related energy:             -192.3287924925 H        -5233.5327 eV

Volume:                              0.988657E+04 au^3   0.146504E+04 A^3
Pressure:                            0.537628E-05 au     0.158176E+09 Pa
>> Charges saved for restart in charges.bin

total energy  -1.9232879E+02 H       energy change -3.5868169E-04 H
gradient norm  1.2612869E-02 H/a0    max. gradient  2.5452001E-03 H/a0
step length    7.9198141E-02 a0      max. step      1.4434620E-02 a0

--------------------------------------------------------------------------------

***  Geometry step: 22

 iSCC Total electronic   Diff electronic      SCC error    
    1   -0.19428337E+03    0.00000000E+00    0.23895728E-02
    2   -0.19428253E+03    0.83999596E-03    0.11196085E-02
    3   -0.19428253E+03   -0.47689654E-05    0.28760703E-03
    4   -0.19428253E+03   -0.11032397E-05    0.40038988E-04
    5   -0.19428253E+03   -0.14716875E-07    0.10062315E-04
    6   -0.19428253E+03   -0.10143708E-08    0.26488544E-05
    7   -0.19428253E+03   -0.19213076E-10    0.55710420E-06
    8   -0.19428253E+03   -0.48316906E-12    0.10030454E-06
    9   -0.19428253E+03   -0.85265128E-13    0.28359010E-07
   10   -0.19428253E+03    0.56843419E-13    0.29709057E-08

Total Energy:                     -192.3290285194 H        -5233.5391 eV
Extrapolated to 0K:               -192.3290285194 H        -5233.5391 eV
Total Mermin free energy:         -192.3290285194 H        -5233.5391 eV
Force related energy:             -192.3290285194 H        -5233.5391 eV

Volume:                              0.989503E+04 au^3   0.146629E+04 A^3
Pressure:                            0.406483E-05 au     0.119591E+09 Pa
>> Charges saved for restart in charges.bin

total energy  -1.9232903E+02 H       energy change -2.3602694E-04 H
gradient norm  1.0285220E-02 H/a0    max. gradient  2.5966006E-03 H/a0
step length    5.2697314E-02 a0      max. step      9.3173022E-03 a0

--------------------------------------------------------------------------------

***  Geometry step: 23

 iSCC Total electronic   Diff electronic      SCC error    
    1   -0.19428253E+03    0.00000000E+00    0.17379857E-02
    2   -0.19428436E+03   -0.18299842E-02    0.84570765E-03
    3   -0.19428437E+03   -0.37787308E-05    0.26344156E-03
    4   -0.19428437E+03   -0.86890918E-06    0.32786652E-04
    5   -0.19428437E+03   -0.12624270E-07    0.54658102E-05
    6   -0.19428437E+03   -0.78608764E-09    0.15760126E-05
    7   -0.19428437E+03   -0.12363444E-10    0.44300825E-06
    8   -0.19428437E+03   -0.48316906E-12    0.88839526E-07
    9   -0.19428437E+03   -0.28421709E-13    0.24730231E-07
   10   -0.19428437E+03    0.28421709E-13    0.20356445E-08

Total Energy:                     -192.3292064998 H        -5233.5440 eV
Extrapolated to 0K:               -192.3292064998 H        -5233.5440 eV
Total Mermin free energy:         -192.3292064998 H        -5233.5440 eV
Force related energy:             -192.3292064998 H        -5233.5440 eV

Volume:                              0.990109E+04 au^3   0.146719E+04 A^3
Pressure:                            0.394176E-05 au     0.115970E+09 Pa
>> Charges saved for restart in charges.bin

total energy  -1.9232921E+02 H       energy change -1.7798035E-04 H
gradient norm  1.0583719E-02 H/a0    max. gradient  2.4819816E-03 H/a0
step length    4.6036613E-02 a0      max. step      9.7467617E-03 a0

--------------------------------------------------------------------------------

***  Geometry step: 24

 iSCC Total electronic   Diff electronic      SCC error    
    1   -0.19428437E+03    0.00000000E+00    0.20257713E-02
    2   -0.19428676E+03   -0.23947265E-02    0.11289034E-02
    3   -0.19428676E+03   -0.21637884E-05    0.20891150E-03
    4   -0.19428676E+03   -0.50568573E-06    0.35302000E-04
    5   -0.19428676E+03   -0.13910579E-07    0.10735495E-04
    6   -0.19428676E+03   -0.47097615E-09    0.14038913E-05
    7   -0.19428676E+03   -0.87538865E-11    0.27949660E-06
    8   -0.19428676E+03   -0.31263880E-12    0.83626689E-07
    9   -0.19428676E+03   -0.28421709E-13    0.12163535E-07
   10   -0.19428676E+03    0.00000000E+00    0.14043477E-08

Total Energy:                     -192.3293535607 H        -5233.5480 eV
Extrapolated to 0K:               -192.3293535607 H        -5233.5480 eV
Total Mermin free energy:         -192.3293535607 H        -5233.5480 eV
Force related energy:             -192.3293535607 H        -5233.5480 eV

Volume:                              0.990623E+04 au^3   0.146795E+04 A^3
Pressure:                            0.405504E-05 au     0.119303E+09 Pa
>> Charges saved for restart in charges.bin

total energy  -1.9232935E+02 H       energy change -1.4706091E-04 H
gradient norm  1.0235949E-02 H/a0    max. gradient  2.2443949E-03 H/a0
step length    3.9399862E-02 a0      max. step      8.2636459E-03 a0

--------------------------------------------------------------------------------

***  Geometry step: 25

 iSCC Total electronic   Diff electronic      SCC error    
    1   -0.19428676E+03    0.00000000E+00    0.24995146E-02
    2   -0.19429021E+03   -0.34411425E-02    0.14296252E-02
    3   -0.19429021E+03   -0.41329284E-05    0.37409336E-03
    4   -0.19429021E+03   -0.99267751E-06    0.45537357E-04
    5   -0.19429021E+03   -0.28231739E-07    0.14446118E-04
    6   -0.19429021E+03   -0.12582575E-08    0.26495976E-05
    7   -0.19429021E+03   -0.25750069E-10    0.36536826E-06
    8   -0.19429021E+03   -0.76738615E-12    0.99771594E-07
    9   -0.19429021E+03   -0.17053026E-12    0.21015931E-07
   10   -0.19429021E+03   -0.85265128E-13    0.31983776E-08

Total Energy:                     -192.3295304991 H        -5233.5528 eV
Extrapolated to 0K:               -192.3295304991 H        -5233.5528 eV
Total Mermin free energy:         -192.3295304991 H        -5233.5528 eV
Force related energy:             -192.3295304991 H        -5233.5528 eV

Volume:                              0.991370E+04 au^3   0.146906E+04 A^3
Pressure:                            0.456571E-05 au     0.134328E+09 Pa
>> Charges saved for restart in charges.bin

total energy  -1.9232953E+02 H       energy change -1.7693841E-04 H
gradient norm  9.5724427E-03 H/a0    max. gradient  2.2052075E-03 H/a0
step length    5.8162353E-02 a0      max. step      1.1279884E-02 a0

--------------------------------------------------------------------------------

***  Geometry step: 26

 iSCC Total electronic   Diff electronic      SCC error    
    1   -0.19429021E+03    0.00000000E+00    0.23236868E-02
    2   -0.19429132E+03   -0.11130541E-02    0.11466316E-02
    3   -0.19429133E+03   -0.26394688E-05    0.34724538E-03
    4   -0.19429133E+03   -0.62006177E-06    0.36645165E-04
    5   -0.19429133E+03   -0.14397699E-07    0.79861554E-05
    6   -0.19429133E+03   -0.89960395E-09    0.16625900E-05
    7   -0.19429133E+03   -0.14097168E-10    0.38297156E-06
    8   -0.19429133E+03   -0.34106051E-12    0.95383600E-07
    9   -0.19429133E+03   -0.85265128E-13    0.22652708E-07
   10   -0.19429133E+03    0.28421709E-13    0.30078531E-08

Total Energy:                     -192.3296762846 H        -5233.5568 eV
Extrapolated to 0K:               -192.3296762846 H        -5233.5568 eV
Total Mermin free energy:         -192.3296762846 H        -5233.5568 eV
Force related energy:             -192.3296762846 H        -5233.5568 eV

Volume:                              0.992132E+04 au^3   0.147019E+04 A^3
Pressure:                            0.428737E-05 au     0.126139E+09 Pa
>> Charges saved for restart in charges.bin

total energy  -1.9232968E+02 H       energy change -1.4578549E-04 H
gradient norm  9.8437508E-03 H/a0    max. gradient  1.9970444E-03 H/a0
step length    5.2299270E-02 a0      max. step      9.0783032E-03 a0

--------------------------------------------------------------------------------

***  Geometry step: 27

 iSCC Total electronic   Diff electronic      SCC error    
    1   -0.19429133E+03    0.00000000E+00    0.27180033E-02
    2   -0.19429115E+03    0.18167763E-03    0.13201977E-02
    3   -0.19429115E+03   -0.40830790E-05    0.42970453E-03
    4   -0.19429115E+03   -0.95486033E-06    0.51818882E-04
    5   -0.19429115E+03   -0.20752196E-07    0.50626275E-05
    6   -0.19429115E+03   -0.16078729E-08    0.14530985E-05
    7   -0.19429115E+03   -0.27284841E-10    0.57036245E-06
    8   -0.19429115E+03   -0.62527761E-12    0.10903299E-06
    9   -0.19429115E+03   -0.56843419E-13    0.12309944E-07
   10   -0.19429115E+03   -0.85265128E-13    0.34221883E-08

Total Energy:                     -192.3298690958 H        -5233.5620 eV
Extrapolated to 0K:               -192.3298690958 H        -5233.5620 eV
Total Mermin free energy:         -192.3298690958 H        -5233.5620 eV
Force related energy:             -192.3298690958 H        -5233.5620 eV

Volume:                              0.993244E+04 au^3   0.147184E+04 A^3
Pressure:                            0.340631E-05 au     0.100217E+09 Pa
>> Charges saved for restart in charges.bin

total energy  -1.9232987E+02 H       energy change -1.9281123E-04 H
gradient norm  1.1030499E-02 H/a0    max. gradient  3.4989453E-03 H/a0
step length    7.4674967E-02 a0      max. step      1.3520089E-02 a0

--------------------------------------------------------------------------------

***  Geometry step: 28

 iSCC Total electronic   Diff electronic      SCC error    
    1   -0.19429115E+03    0.00000000E+00    0.15190712E-02
    2   -0.19428946E+03    0.16879008E-02    0.87176224E-03
    3   -0.19428947E+03   -0.27903657E-05    0.29652436E-03
    4   -0.19428947E+03   -0.62360010E-06    0.35724271E-04
    5   -0.19428947E+03   -0.14450109E-07    0.53310119E-05
    6   -0.19428947E+03   -0.10849988E-08    0.11192942E-05
    7   -0.19428947E+03   -0.13841372E-10    0.38928714E-06
    8   -0.19428947E+03   -0.28421709E-12    0.77369286E-07
    9   -0.19428947E+03   -0.14210855E-12    0.26324220E-07
   10   -0.19428947E+03    0.00000000E+00    0.24636155E-08

Total Energy:                     -192.3300492501 H        -5233.5669 eV
Extrapolated to 0K:               -192.3300492501 H        -5233.5669 eV
Total Mermin free energy:         -192.3300492501 H        -5233.5669 eV
Force related energy:             -192.3300492501 H        -5233.5669 eV

Volume:                              0.994326E+04 au^3   0.147344E+04 A^3
Pressure:                            0.202287E-05 au     0.595149E+08 Pa
>> Charges saved for restart in charges.bin

total energy  -1.9233005E+02 H       energy change -1.8015433E-04 H
gradient norm  1.0855436E-02 H/a0    max. gradient  3.0570266E-03 H/a0
step length    7.4096606E-02 a0      max. step      1.4430706E-02 a0

--------------------------------------------------------------------------------

***  Geometry step: 29

 iSCC Total electronic   Diff electronic      SCC error    
    1   -0.19428947E+03    0.00000000E+00    0.13290799E-02
    2   -0.19428753E+03    0.19375438E-02    0.79662878E-03
    3   -0.19428753E+03   -0.23453153E-05    0.22384822E-03
    4   -0.19428753E+03   -0.49902914E-06    0.33406952E-04
    5   -0.19428753E+03   -0.12006836E-07    0.73490830E-05
    6   -0.19428753E+03   -0.96065378E-09    0.13526548E-05
    7   -0.19428753E+03   -0.10373924E-10    0.34945679E-06
    8   -0.19428753E+03   -0.19895197E-12    0.82897238E-07
    9   -0.19428753E+03   -0.11368684E-12    0.21811858E-07
   10   -0.19428753E+03    0.56843419E-13    0.19429480E-08

Total Energy:                     -192.3302236504 H        -5233.5717 eV
Extrapolated to 0K:               -192.3302236504 H        -5233.5717 eV
Total Mermin free energy:         -192.3302236504 H        -5233.5717 eV
Force related energy:             -192.3302236504 H        -5233.5717 eV

Volume:                              0.995299E+04 au^3   0.147488E+04 A^3
Pressure:                            0.511343E-06 au     0.150442E+08 Pa
>> Charges saved for restart in charges.bin

total energy  -1.9233022E+02 H       energy change -1.7440028E-04 H
gradient norm  9.7932943E-03 H/a0    max. gradient  1.9953355E-03 H/a0
step length    7.6760487E-02 a0      max. step      1.5130693E-02 a0

--------------------------------------------------------------------------------

***  Geometry step: 30

 iSCC Total electronic   Diff electronic      SCC error    
    1   -0.19428753E+03    0.00000000E+00    0.15247311E-02
    2   -0.19428722E+03    0.31244974E-03    0.66807004E-03
    3   -0.19428722E+03   -0.21567579E-05    0.21689706E-03
    4   -0.19428722E+03   -0.47726377E-06    0.27942649E-04
    5   -0.19428722E+03   -0.84906162E-08    0.58381682E-05
    6   -0.19428722E+03   -0.80402174E-09    0.58061950E-06
    7   -0.19428722E+03   -0.19070967E-10    0.25026725E-06
    8   -0.19428722E+03   -0.25579538E-12    0.73079289E-07
    9   -0.19428722E+03   -0.11368684E-12    0.89072913E-08

Total Energy:                     -192.3303803664 H        -5233.5759 eV
Extrapolated to 0K:               -192.3303803664 H        -5233.5759 eV
Total Mermin free energy:         -192.3303803664 H        -5233.5759 eV
Force related energy:             -192.3303803664 H        -5233.5759 eV

Volume:                              0.995917E+04 au^3   0.147580E+04 A^3
Pressure:                           -0.197896E-06 au    -0.582231E+07 Pa
>> Charges saved for restart in charges.bin

total energy  -1.9233038E+02 H       energy change -1.5671597E-04 H
gradient norm  9.3830634E-03 H/a0    max. gradient  2.0284384E-03 H/a0
step length    6.8428084E-02 a0      max. step      1.4110022E-02 a0

--------------------------------------------------------------------------------

***  Geometry step: 31

 iSCC Total electronic   Diff electronic      SCC error    
    1   -0.19428722E+03    0.00000000E+00    0.17920782E-02
    2   -0.19428876E+03   -0.15374194E-02    0.75678537E-03
    3   -0.19428876E+03   -0.35546694E-05    0.23875563E-03
    4   -0.19428876E+03   -0.81714958E-06    0.45318868E-04
    5   -0.19428876E+03   -0.12387630E-07    0.61826627E-05
    6   -0.19428876E+03   -0.11822010E-08    0.15783790E-05
    7   -0.19428876E+03   -0.31974423E-10    0.57070046E-06
    8   -0.19428876E+03   -0.68212103E-12    0.73196591E-07
    9   -0.19428876E+03   -0.85265128E-13    0.15519309E-07
   10   -0.19428876E+03   -0.85265128E-13    0.43112047E-08

Total Energy:                     -192.3305445516 H        -5233.5804 eV
Extrapolated to 0K:               -192.3305445516 H        -5233.5804 eV
Total Mermin free energy:         -192.3305445516 H        -5233.5804 eV
Force related energy:             -192.3305445516 H        -5233.5804 eV

Volume:                              0.996275E+04 au^3   0.147633E+04 A^3
Pressure:                           -0.137745E-06 au    -0.405260E+07 Pa
>> Charges saved for restart in charges.bin

total energy  -1.9233054E+02 H       energy change -1.6418524E-04 H
gradient norm  1.0265321E-02 H/a0    max. gradient  2.6121331E-03 H/a0
step length    7.4623481E-02 a0      max. step      1.5755921E-02 a0

--------------------------------------------------------------------------------

***  Geometry step: 32

 iSCC Total electronic   Diff electronic      SCC error    
    1   -0.19428876E+03    0.00000000E+00    0.16940050E-02
    2   -0.19429106E+03   -0.22996632E-02    0.96346204E-03
    3   -0.19429107E+03   -0.30328762E-05    0.21644251E-03
    4   -0.19429107E+03   -0.71150868E-06    0.36524250E-04
    5   -0.19429107E+03   -0.10633812E-07    0.93809849E-05
    6   -0.19429107E+03   -0.92589403E-09    0.19335086E-05
    7   -0.19429107E+03   -0.16683543E-10    0.41182268E-06
    8   -0.19429107E+03   -0.22737368E-12    0.80158557E-07
    9   -0.19429107E+03   -0.56843419E-13    0.15878206E-07
   10   -0.19429107E+03    0.00000000E+00    0.16725137E-08

Total Energy:                     -192.3307054382 H        -5233.5848 eV
Extrapolated to 0K:               -192.3307054382 H        -5233.5848 eV
Total Mermin free energy:         -192.3307054382 H        -5233.5848 eV
Force related energy:             -192.3307054382 H        -5233.5848 eV

Volume:                              0.996452E+04 au^3   0.147659E+04 A^3
Pressure:                            0.435180E-06 au     0.128034E+08 Pa
>> Charges saved for restart in charges.bin

total energy  -1.9233071E+02 H       energy change -1.6088656E-04 H
gradient norm  1.0853467E-02 H/a0    max. gradient  2.9726525E-03 H/a0
step length    7.0879662E-02 a0      max. step      1.5117016E-02 a0

--------------------------------------------------------------------------------

***  Geometry step: 33

 iSCC Total electronic   Diff electronic      SCC error    
    1   -0.19429107E+03    0.00000000E+00    0.15881625E-02
    2   -0.19429419E+03   -0.31247158E-02    0.92146745E-03
    3   -0.19429419E+03   -0.26573025E-05    0.25323669E-03
    4   -0.19429419E+03   -0.61256469E-06    0.32979615E-04
    5   -0.19429419E+03   -0.13701168E-07    0.10263511E-04
    6   -0.19429419E+03   -0.87328544E-09    0.16209975E-05
    7   -0.19429419E+03   -0.10857093E-10    0.37458056E-06
    8   -0.19429419E+03   -0.36948222E-12    0.84623725E-07
    9   -0.19429419E+03   -0.11368684E-12    0.18709615E-07
   10   -0.19429419E+03    0.56843419E-13    0.13496795E-08

Total Energy:                     -192.3308858161 H        -5233.5897 eV
Extrapolated to 0K:               -192.3308858161 H        -5233.5897 eV
Total Mermin free energy:         -192.3308858161 H        -5233.5897 eV
Force related energy:             -192.3308858161 H        -5233.5897 eV

Volume:                              0.996571E+04 au^3   0.147677E+04 A^3
Pressure:                            0.130333E-05 au     0.383454E+08 Pa
>> Charges saved for restart in charges.bin

total energy  -1.9233089E+02 H       energy change -1.8037788E-04 H
gradient norm  1.0510667E-02 H/a0    max. gradient  3.2018799E-03 H/a0
step length    8.7113755E-02 a0      max. step      1.8645927E-02 a0

--------------------------------------------------------------------------------

***  Geometry step: 34

 iSCC Total electronic   Diff electronic      SCC error    
    1   -0.19429419E+03    0.00000000E+00    0.16876245E-02
    2   -0.19429646E+03   -0.22665193E-02    0.88838490E-03
    3   -0.19429646E+03   -0.19243649E-05    0.25743189E-03
    4   -0.19429646E+03   -0.43841479E-06    0.38970886E-04
    5   -0.19429646E+03   -0.13995162E-07    0.31619945E-05
    6   -0.19429646E+03   -0.60290972E-09    0.10891061E-05
    7   -0.19429646E+03   -0.73043793E-11    0.34863212E-06
    8   -0.19429646E+03   -0.22737368E-12    0.55679759E-07
    9   -0.19429646E+03    0.00000000E+00    0.79401792E-08

Total Energy:                     -192.3310525214 H        -5233.5942 eV
Extrapolated to 0K:               -192.3310525214 H        -5233.5942 eV
Total Mermin free energy:         -192.3310525214 H        -5233.5942 eV
Force related energy:             -192.3310525214 H        -5233.5942 eV

Volume:                              0.996680E+04 au^3   0.147693E+04 A^3
Pressure:                            0.203308E-05 au     0.598153E+08 Pa
>> Charges saved for restart in charges.bin

total energy  -1.9233105E+02 H       energy change -1.6670535E-04 H
gradient norm  9.6106231E-03 H/a0    max. gradient  2.2858760E-03 H/a0
step length    8.4844687E-02 a0      max. step      1.8549878E-02 a0

--------------------------------------------------------------------------------

***  Geometry step: 35

 iSCC Total electronic   Diff electronic      SCC error    
    1   -0.19429646E+03    0.00000000E+00    0.24182303E-02
    2   -0.19429784E+03   -0.13719392E-02    0.10441928E-02
    3   -0.19429784E+03   -0.29762638E-05    0.31445171E-03
    4   -0.19429784E+03   -0.70744099E-06    0.33195716E-04
    5   -0.19429784E+03   -0.20920339E-07    0.72435888E-05
    6   -0.19429784E+03   -0.10482779E-08    0.22772313E-05
    7   -0.19429784E+03   -0.17706725E-10    0.53844211E-06
    8   -0.19429784E+03   -0.51159077E-12    0.74516521E-07
    9   -0.19429784E+03   -0.19895197E-12    0.25783882E-07
   10   -0.19429784E+03    0.00000000E+00    0.31358827E-08

Total Energy:                     -192.3312208386 H        -5233.5988 eV
Extrapolated to 0K:               -192.3312208386 H        -5233.5988 eV
Total Mermin free energy:         -192.3312208386 H        -5233.5988 eV
Force related energy:             -192.3312208386 H        -5233.5988 eV

Volume:                              0.996835E+04 au^3   0.147716E+04 A^3
Pressure:                            0.241271E-05 au     0.709843E+08 Pa
>> Charges saved for restart in charges.bin

total energy  -1.9233122E+02 H       energy change -1.6831722E-04 H
gradient norm  9.6296280E-03 H/a0    max. gradient  1.9755571E-03 H/a0
step length    9.3881782E-02 a0      max. step      2.0709884E-02 a0

--------------------------------------------------------------------------------

***  Geometry step: 36

 iSCC Total electronic   Diff electronic      SCC error    
    1   -0.19429784E+03    0.00000000E+00    0.19434439E-02
    2   -0.19429813E+03   -0.28945136E-03    0.11074056E-02
    3   -0.19429813E+03   -0.22414664E-05    0.25816533E-03
    4   -0.19429813E+03   -0.55566846E-06    0.32374005E-04
    5   -0.19429813E+03   -0.16059516E-07    0.11495972E-04
    6   -0.19429813E+03   -0.88789420E-09    0.23370657E-05
    7   -0.19429813E+03   -0.20037305E-10    0.48425059E-06
    8   -0.19429813E+03   -0.45474735E-12    0.81444823E-07
    9   -0.19429813E+03    0.00000000E+00    0.16192263E-07
   10   -0.19429813E+03    0.00000000E+00    0.30871261E-08

Total Energy:                     -192.3313580352 H        -5233.6025 eV
Extrapolated to 0K:               -192.3313580352 H        -5233.6025 eV
Total Mermin free energy:         -192.3313580352 H        -5233.6025 eV
Force related energy:             -192.3313580352 H        -5233.6025 eV

Volume:                              0.997004E+04 au^3   0.147741E+04 A^3
Pressure:                            0.232927E-05 au     0.685296E+08 Pa
>> Charges saved for restart in charges.bin

total energy  -1.9233136E+02 H       energy change -1.3719658E-04 H
gradient norm  9.1214598E-03 H/a0    max. gradient  2.4077120E-03 H/a0
step length    7.6149538E-02 a0      max. step      1.6707538E-02 a0

--------------------------------------------------------------------------------

***  Geometry step: 37

 iSCC Total electronic   Diff electronic      SCC error    
    1   -0.19429813E+03    0.00000000E+00    0.21249931E-02
    2   -0.19429819E+03   -0.53723862E-04    0.12192933E-02
    3   -0.19429819E+03   -0.24234722E-05    0.24595196E-03
    4   -0.19429819E+03   -0.56889763E-06    0.29479873E-04
    5   -0.19429819E+03   -0.13154306E-07    0.12455199E-04
    6   -0.19429819E+03   -0.77130835E-09    0.21158499E-05
    7   -0.19429819E+03   -0.15887736E-10    0.38870860E-06
    8   -0.19429819E+03   -0.28421709E-12    0.77877563E-07
    9   -0.19429819E+03   -0.17053026E-12    0.15698945E-07
   10   -0.19429819E+03    0.28421709E-13    0.27722695E-08

Total Energy:                     -192.3314822260 H        -5233.6059 eV
Extrapolated to 0K:               -192.3314822260 H        -5233.6059 eV
Total Mermin free energy:         -192.3314822260 H        -5233.6059 eV
Force related energy:             -192.3314822260 H        -5233.6059 eV

Volume:                              0.997209E+04 au^3   0.147771E+04 A^3
Pressure:                            0.216357E-05 au     0.636543E+08 Pa
>> Charges saved for restart in charges.bin

total energy  -1.9233148E+02 H       energy change -1.2419078E-04 H
gradient norm  8.1752335E-03 H/a0    max. gradient  2.1768624E-03 H/a0
step length    7.4834578E-02 a0      max. step      1.5828142E-02 a0

--------------------------------------------------------------------------------

***  Geometry step: 38

 iSCC Total electronic   Diff electronic      SCC error    
    1   -0.19429819E+03    0.00000000E+00    0.11445895E-02
    2   -0.19429853E+03   -0.34385555E-03    0.53796414E-03
    3   -0.19429853E+03   -0.15015627E-05    0.13561102E-03
    4   -0.19429853E+03   -0.32149632E-06    0.22668395E-04
    5   -0.19429853E+03   -0.37881875E-08    0.61362790E-05
    6   -0.19429853E+03   -0.36754955E-09    0.13102312E-05
    7   -0.19429853E+03   -0.50590643E-11    0.27537059E-06
    8   -0.19429853E+03   -0.11368684E-12    0.35214748E-07
    9   -0.19429853E+03    0.56843419E-13    0.89357624E-08

Total Energy:                     -192.3315754279 H        -5233.6085 eV
Extrapolated to 0K:               -192.3315754279 H        -5233.6085 eV
Total Mermin free energy:         -192.3315754279 H        -5233.6085 eV
Force related energy:             -192.3315754279 H        -5233.6085 eV

Volume:                              0.997435E+04 au^3   0.147805E+04 A^3
Pressure:                            0.203784E-05 au     0.599554E+08 Pa
>> Charges saved for restart in charges.bin

total energy  -1.9233158E+02 H       energy change -9.3201939E-05 H
gradient norm  7.1188434E-03 H/a0    max. gradient  1.7050695E-03 H/a0
step length    5.6103404E-02 a0      max. step      1.1530745E-02 a0

--------------------------------------------------------------------------------

***  Geometry step: 39

 iSCC Total electronic   Diff electronic      SCC error    
    1   -0.19429853E+03    0.00000000E+00    0.18142342E-02
    2   -0.19429952E+03   -0.98117879E-03    0.68580829E-03
    3   -0.19429952E+03   -0.17987941E-05    0.17626716E-03
    4   -0.19429952E+03   -0.36770621E-06    0.34311291E-04
    5   -0.19429952E+03   -0.45289994E-08    0.31156421E-05
    6   -0.19429952E+03   -0.45261572E-09    0.56631480E-06
    7   -0.19429952E+03   -0.72475359E-11    0.23047180E-06
    8   -0.19429952E+03   -0.14210855E-12    0.51528144E-07
    9   -0.19429952E+03    0.00000000E+00    0.59410974E-08

Total Energy:                     -192.3316657683 H        -5233.6109 eV
Extrapolated to 0K:               -192.3316657683 H        -5233.6109 eV
Total Mermin free energy:         -192.3316657683 H        -5233.6109 eV
Force related energy:             -192.3316657683 H        -5233.6109 eV

Volume:                              0.997717E+04 au^3   0.147846E+04 A^3
Pressure:                            0.192153E-05 au     0.565333E+08 Pa
>> Charges saved for restart in charges.bin

total energy  -1.9233167E+02 H       energy change -9.0340387E-05 H
gradient norm  7.2768004E-03 H/a0    max. gradient  1.7915828E-03 H/a0
step length    5.9609506E-02 a0      max. step      1.2541739E-02 a0

--------------------------------------------------------------------------------

***  Geometry step: 40

 iSCC Total electronic   Diff electronic      SCC error    
    1   -0.19429952E+03    0.00000000E+00    0.12504245E-02
    2   -0.19430126E+03   -0.17381645E-02    0.53794898E-03
    3   -0.19430126E+03   -0.10985942E-05    0.18255887E-03
    4   -0.19430126E+03   -0.22424013E-06    0.28343822E-04
    5   -0.19430126E+03   -0.46435957E-08    0.49300256E-05
    6   -0.19430126E+03   -0.38446046E-09    0.98004602E-06
    7   -0.19430126E+03   -0.76454398E-11    0.19290404E-06
    8   -0.19430126E+03   -0.85265128E-13    0.48332041E-07
    9   -0.19430126E+03   -0.14210855E-12    0.11652290E-07
   10   -0.19430126E+03    0.56843419E-13    0.12469337E-08

Total Energy:                     -192.3317426930 H        -5233.6130 eV
Extrapolated to 0K:               -192.3317426930 H        -5233.6130 eV
Total Mermin free energy:         -192.3317426930 H        -5233.6130 eV
Force related energy:             -192.3317426930 H        -5233.6130 eV

Volume:                              0.997936E+04 au^3   0.147879E+04 A^3
Pressure:                            0.217829E-05 au     0.640875E+08 Pa
>> Charges saved for restart in charges.bin

total energy  -1.9233174E+02 H       energy change -7.6924643E-05 H
gradient norm  7.2677208E-03 H/a0    max. gradient  1.7456617E-03 H/a0
step length    4.7814586E-02 a0      max. step      1.0259123E-02 a0

--------------------------------------------------------------------------------

***  Geometry step: 41

 iSCC Total electronic   Diff electronic      SCC error    
    1   -0.19430126E+03    0.00000000E+00    0.14554720E-02
    2   -0.19430334E+03   -0.20860484E-02    0.77887573E-03
    3   -0.19430334E+03   -0.16161228E-05    0.20640240E-03
    4   -0.19430335E+03   -0.32684514E-06    0.35348753E-04
    5   -0.19430335E+03   -0.91281720E-08    0.92168157E-05
    6   -0.19430335E+03   -0.64454753E-09    0.14595054E-05
    7   -0.19430335E+03   -0.11283419E-10    0.24659501E-06
    8   -0.19430335E+03   -0.36948222E-12    0.80106508E-07
    9   -0.19430335E+03    0.28421709E-13    0.13028343E-07
   10   -0.19430335E+03   -0.28421709E-13    0.13803305E-08

Total Energy:                     -192.3318299843 H        -5233.6154 eV
Extrapolated to 0K:               -192.3318299843 H        -5233.6154 eV
Total Mermin free energy:         -192.3318299843 H        -5233.6154 eV
Force related energy:             -192.3318299843 H        -5233.6154 eV

Volume:                              0.998312E+04 au^3   0.147935E+04 A^3
Pressure:                            0.236158E-05 au     0.694800E+08 Pa
>> Charges saved for restart in charges.bin

total energy  -1.9233183E+02 H       energy change -8.7291293E-05 H
gradient norm  7.0567801E-03 H/a0    max. gradient  1.7120816E-03 H/a0
step length    6.2495764E-02 a0      max. step      1.3505870E-02 a0

--------------------------------------------------------------------------------

***  Geometry step: 42

 iSCC Total electronic   Diff electronic      SCC error    
    1   -0.19430335E+03    0.00000000E+00    0.13724451E-02
    2   -0.19430460E+03   -0.12564028E-02    0.58457611E-03
    3   -0.19430460E+03   -0.10326349E-05    0.12567725E-03
    4   -0.19430460E+03   -0.23295465E-06    0.24597982E-04
    5   -0.19430460E+03   -0.47273261E-08    0.57465958E-05
    6   -0.19430460E+03   -0.38517101E-09    0.97034879E-06
    7   -0.19430460E+03   -0.59969807E-11    0.21488250E-06
    8   -0.19430460E+03   -0.11368684E-12    0.61553612E-07
    9   -0.19430460E+03   -0.56843419E-13    0.15813956E-07
   10   -0.19430460E+03    0.28421709E-13    0.12846399E-08

Total Energy:                     -192.3319012040 H        -5233.6173 eV
Extrapolated to 0K:               -192.3319012040 H        -5233.6173 eV
Total Mermin free energy:         -192.3319012040 H        -5233.6173 eV
Force related energy:             -192.3319012040 H        -5233.6173 eV

Volume:                              0.998706E+04 au^3   0.147993E+04 A^3
Pressure:                            0.244783E-05 au     0.720177E+08 Pa
>> Charges saved for restart in charges.bin

total energy  -1.9233190E+02 H       energy change -7.1219695E-05 H
gradient norm  6.4626216E-03 H/a0    max. gradient  2.0251889E-03 H/a0
step length    5.4249072E-02 a0      max. step      1.1744751E-02 a0

--------------------------------------------------------------------------------

***  Geometry step: 43

 iSCC Total electronic   Diff electronic      SCC error    
    1   -0.19430460E+03    0.00000000E+00    0.14420288E-02
    2   -0.19430476E+03   -0.15816940E-03    0.61019032E-03
    3   -0.19430476E+03   -0.16707484E-05    0.14791645E-03
    4   -0.19430476E+03   -0.38677808E-06    0.20830411E-04
    5   -0.19430476E+03   -0.38596397E-08    0.28805131E-05
    6   -0.19430476E+03   -0.38693315E-09    0.70018733E-06
    7   -0.19430476E+03   -0.81570306E-11    0.26211177E-06
    8   -0.19430476E+03   -0.14210855E-12    0.53873253E-07
    9   -0.19430476E+03    0.28421709E-13    0.12774429E-07
   10   -0.19430476E+03    0.28421709E-13    0.21788127E-08

Total Energy:                     -192.3319786555 H        -5233.6194 eV
Extrapolated to 0K:               -192.3319786555 H        -5233.6194 eV
Total Mermin free energy:         -192.3319786555 H        -5233.6194 eV
Force related energy:             -192.3319786555 H        -5233.6194 eV

Volume:                              0.999269E+04 au^3   0.148076E+04 A^3
Pressure:                            0.196123E-05 au     0.577013E+08 Pa
>> Charges saved for restart in charges.bin

total energy  -1.9233198E+02 H       energy change -7.7451530E-05 H
gradient norm  6.6560879E-03 H/a0    max. gradient  2.4954402E-03 H/a0
step length    6.3924478E-02 a0      max. step      1.3958757E-02 a0

--------------------------------------------------------------------------------

***  Geometry step: 44

 iSCC Total electronic   Diff electronic      SCC error    
    1   -0.19430476E+03    0.00000000E+00    0.12174299E-02
    2   -0.19430461E+03    0.14809031E-03    0.48888729E-03
    3   -0.19430462E+03   -0.10963774E-05    0.12858398E-03
    4   -0.19430462E+03   -0.25771277E-06    0.13238128E-04
    5   -0.19430462E+03   -0.19753372E-08    0.24059730E-05
    6   -0.19430462E+03   -0.17482193E-09    0.53780998E-06
    7   -0.19430462E+03   -0.25295321E-11    0.16943226E-06
    8   -0.19430462E+03   -0.14210855E-12    0.37129609E-07
    9   -0.19430462E+03    0.85265128E-13    0.12680225E-07
   10   -0.19430462E+03   -0.56843419E-13    0.11743735E-08

Total Energy:                     -192.3320497132 H        -5233.6214 eV
Extrapolated to 0K:               -192.3320497132 H        -5233.6214 eV
Total Mermin free energy:         -192.3320497132 H        -5233.6214 eV
Force related energy:             -192.3320497132 H        -5233.6214 eV

Volume:                              0.999758E+04 au^3   0.148149E+04 A^3
Pressure:                            0.147103E-05 au     0.432792E+08 Pa
>> Charges saved for restart in charges.bin

total energy  -1.9233205E+02 H       energy change -7.1057735E-05 H
gradient norm  7.1673243E-03 H/a0    max. gradient  2.2515583E-03 H/a0
step length    5.9772026E-02 a0      max. step      1.3422476E-02 a0

--------------------------------------------------------------------------------

***  Geometry step: 45

 iSCC Total electronic   Diff electronic      SCC error    
    1   -0.19430462E+03    0.00000000E+00    0.11721445E-02
    2   -0.19430391E+03    0.70374240E-03    0.45692814E-03
    3   -0.19430391E+03   -0.11433399E-05    0.14036237E-03
    4   -0.19430391E+03   -0.25653688E-06    0.17570099E-04
    5   -0.19430391E+03   -0.21212543E-08    0.41158431E-05
    6   -0.19430391E+03   -0.17556090E-09    0.80351969E-06
    7   -0.19430391E+03   -0.26716407E-11    0.14911965E-06
    8   -0.19430391E+03   -0.11368684E-12    0.31624845E-07
    9   -0.19430391E+03    0.00000000E+00    0.89563392E-08

Total Energy:                     -192.3321325819 H        -5233.6236 eV
Extrapolated to 0K:               -192.3321325819 H        -5233.6236 eV
Total Mermin free energy:         -192.3321325819 H        -5233.6236 eV
Force related energy:             -192.3321325819 H        -5233.6236 eV

Volume:                              0.100033E+05 au^3   0.148234E+04 A^3
Pressure:                            0.847845E-06 au     0.249445E+08 Pa
>> Charges saved for restart in charges.bin

total energy  -1.9233213E+02 H       energy change -8.2868657E-05 H
gradient norm  6.9643105E-03 H/a0    max. gradient  1.5996050E-03 H/a0
step length    7.1260941E-02 a0      max. step      1.6304806E-02 a0

--------------------------------------------------------------------------------

***  Geometry step: 46

 iSCC Total electronic   Diff electronic      SCC error    
    1   -0.19430391E+03    0.00000000E+00    0.13387345E-02
    2   -0.19430309E+03    0.82746084E-03    0.55808441E-03
    3   -0.19430309E+03   -0.11879032E-05    0.12031978E-03
    4   -0.19430309E+03   -0.26969116E-06    0.15150377E-04
    5   -0.19430309E+03   -0.25058853E-08    0.39978976E-05
    6   -0.19430309E+03   -0.19031177E-09    0.71043485E-06
    7   -0.19430309E+03   -0.22168933E-11    0.16170743E-06
    8   -0.19430309E+03    0.00000000E+00    0.27356422E-07
    9   -0.19430309E+03   -0.85265128E-13    0.54855120E-08

Total Energy:                     -192.3322131638 H        -5233.6258 eV
Extrapolated to 0K:               -192.3322131638 H        -5233.6258 eV
Total Mermin free energy:         -192.3322131638 H        -5233.6258 eV
Force related energy:             -192.3322131638 H        -5233.6258 eV

Volume:                              0.100088E+05 au^3   0.148315E+04 A^3
Pressure:                            0.114118E-06 au     0.335747E+07 Pa
>> Charges saved for restart in charges.bin

total energy  -1.9233221E+02 H       energy change -8.0581904E-05 H
gradient norm  6.7927082E-03 H/a0    max. gradient  2.0019346E-03 H/a0
step length    7.5669198E-02 a0      max. step      1.7498972E-02 a0

--------------------------------------------------------------------------------

***  Geometry step: 47

 iSCC Total electronic   Diff electronic      SCC error    
    1   -0.19430309E+03    0.00000000E+00    0.99489818E-03
    2   -0.19430318E+03   -0.91286364E-04    0.47357498E-03
    3   -0.19430318E+03   -0.12989286E-05    0.13021685E-03
    4   -0.19430318E+03   -0.31431321E-06    0.18524493E-04
    5   -0.19430318E+03   -0.28551881E-08    0.21334010E-05
    6   -0.19430318E+03   -0.22612312E-09    0.48785273E-06
    7   -0.19430318E+03   -0.57127636E-11    0.21150637E-06
    8   -0.19430318E+03   -0.14210855E-12    0.58866167E-07
    9   -0.19430318E+03   -0.28421709E-13    0.61110335E-08

Total Energy:                     -192.3322864927 H        -5233.6278 eV
Extrapolated to 0K:               -192.3322864927 H        -5233.6278 eV
Total Mermin free energy:         -192.3322864927 H        -5233.6278 eV
Force related energy:             -192.3322864927 H        -5233.6278 eV

Volume:                              0.100123E+05 au^3   0.148368E+04 A^3
Pressure:                           -0.227365E-06 au    -0.668930E+07 Pa
>> Charges saved for restart in charges.bin

total energy  -1.9233229E+02 H       energy change -7.3328890E-05 H
gradient norm  6.6789124E-03 H/a0    max. gradient  1.4023706E-03 H/a0
step length    6.6820759E-02 a0      max. step      1.5856713E-02 a0

--------------------------------------------------------------------------------

***  Geometry step: 48

 iSCC Total electronic   Diff electronic      SCC error    
    1   -0.19430318E+03    0.00000000E+00    0.15629562E-02
    2   -0.19430474E+03   -0.15554016E-02    0.65860787E-03
    3   -0.19430474E+03   -0.19912783E-05    0.17224379E-03
    4   -0.19430474E+03   -0.47073218E-06    0.23146713E-04
    5   -0.19430474E+03   -0.47347726E-08    0.20532339E-05
    6   -0.19430474E+03   -0.36584424E-09    0.71967460E-06
    7   -0.19430474E+03   -0.92370556E-11    0.27798465E-06
    8   -0.19430474E+03   -0.19895197E-12    0.61716009E-07
    9   -0.19430474E+03    0.00000000E+00    0.68868049E-08

Total Energy:                     -192.3323683071 H        -5233.6300 eV
Extrapolated to 0K:               -192.3323683071 H        -5233.6300 eV
Total Mermin free energy:         -192.3323683071 H        -5233.6300 eV
Force related energy:             -192.3323683071 H        -5233.6300 eV

Volume:                              0.100147E+05 au^3   0.148402E+04 A^3
Pressure:                           -0.161222E-06 au    -0.474330E+07 Pa
>> Charges saved for restart in charges.bin

total energy  -1.9233237E+02 H       energy change -8.1814399E-05 H
gradient norm  6.9829497E-03 H/a0    max. gradient  1.8538265E-03 H/a0
step length    7.5020694E-02 a0      max. step      1.7702960E-02 a0

--------------------------------------------------------------------------------

***  Geometry step: 49

 iSCC Total electronic   Diff electronic      SCC error    
    1   -0.19430474E+03    0.00000000E+00    0.13667055E-02
    2   -0.19430691E+03   -0.21674013E-02    0.58234933E-03
    3   -0.19430691E+03   -0.17772310E-05    0.18349017E-03
    4   -0.19430691E+03   -0.39968552E-06    0.19870787E-04
    5   -0.19430691E+03   -0.43133355E-08    0.24045099E-05
    6   -0.19430691E+03   -0.37167069E-09    0.74533080E-06
    7   -0.19430691E+03   -0.61959327E-11    0.24889553E-06
    8   -0.19430691E+03   -0.56843419E-13    0.53045512E-07
    9   -0.19430691E+03   -0.56843419E-13    0.73137083E-08

Total Energy:                     -192.3324447967 H        -5233.6321 eV
Extrapolated to 0K:               -192.3324447967 H        -5233.6321 eV
Total Mermin free energy:         -192.3324447967 H        -5233.6321 eV
Force related energy:             -192.3324447967 H        -5233.6321 eV

Volume:                              0.100159E+05 au^3   0.148421E+04 A^3
Pressure:                            0.413321E-06 au     0.121603E+08 Pa
>> Charges saved for restart in charges.bin

total energy  -1.9233244E+02 H       energy change -7.6489621E-05 H
gradient norm  7.3158976E-03 H/a0    max. gradient  2.1745068E-03 H/a0
step length    7.1096482E-02 a0      max. step      1.6429449E-02 a0

--------------------------------------------------------------------------------

***  Geometry step: 50

 iSCC Total electronic   Diff electronic      SCC error    
    1   -0.19430691E+03    0.00000000E+00    0.13023284E-02
    2   -0.19430861E+03   -0.16992857E-02    0.54338071E-03
    3   -0.19430861E+03   -0.12869607E-05    0.17176683E-03
    4   -0.19430861E+03   -0.28025494E-06    0.12982204E-04
    5   -0.19430861E+03   -0.37963162E-08    0.28128486E-05
    6   -0.19430861E+03   -0.29911007E-09    0.63510458E-06
    7   -0.19430861E+03   -0.27284841E-11    0.17970333E-06
    8   -0.19430861E+03   -0.56843419E-13    0.30513614E-07
    9   -0.19430861E+03    0.28421709E-13    0.13888165E-07
   10   -0.19430861E+03    0.28421709E-13    0.10838273E-08

Total Energy:                     -192.3325253676 H        -5233.6343 eV
Extrapolated to 0K:               -192.3325253676 H        -5233.6343 eV
Total Mermin free energy:         -192.3325253676 H        -5233.6343 eV
Force related energy:             -192.3325253676 H        -5233.6343 eV

Volume:                              0.100174E+05 au^3   0.148443E+04 A^3
Pressure:                            0.818359E-06 au     0.240769E+08 Pa
>> Charges saved for restart in charges.bin

total energy  -1.9233253E+02 H       energy change -8.0570914E-05 H
gradient norm  7.0472505E-03 H/a0    max. gradient  2.0559231E-03 H/a0
step length    7.1159244E-02 a0      max. step      1.5777181E-02 a0

--------------------------------------------------------------------------------

***  Geometry step: 51

 iSCC Total electronic   Diff electronic      SCC error    
    1   -0.19430861E+03    0.00000000E+00    0.16904297E-02
    2   -0.19430970E+03   -0.10932221E-02    0.94005769E-03
    3   -0.19430970E+03   -0.19391456E-05    0.21881531E-03
    4   -0.19430970E+03   -0.46573319E-06    0.20140074E-04
    5   -0.19430970E+03   -0.66879124E-08    0.61910125E-05
    6   -0.19430970E+03   -0.44070703E-09    0.14379924E-05
    7   -0.19430970E+03   -0.46895821E-11    0.24634662E-06
    8   -0.19430970E+03    0.00000000E+00    0.51092661E-07
    9   -0.19430970E+03   -0.28421709E-13    0.12170641E-07
   10   -0.19430970E+03    0.00000000E+00    0.11731416E-08

Total Energy:                     -192.3326196942 H        -5233.6369 eV
Extrapolated to 0K:               -192.3326196942 H        -5233.6369 eV
Total Mermin free energy:         -192.3326196942 H        -5233.6369 eV
Force related energy:             -192.3326196942 H        -5233.6369 eV

Volume:                              0.100195E+05 au^3   0.148473E+04 A^3
Pressure:                            0.985867E-06 au     0.290052E+08 Pa
>> Charges saved for restart in charges.bin

total energy  -1.9233262E+02 H       energy change -9.4326602E-05 H
gradient norm  7.0086323E-03 H/a0    max. gradient  1.8044300E-03 H/a0
step length    8.9038717E-02 a0      max. step      1.9064355E-02 a0

--------------------------------------------------------------------------------

***  Geometry step: 52

 iSCC Total electronic   Diff electronic      SCC error    
    1   -0.19430970E+03    0.00000000E+00    0.21350686E-02
    2   -0.19430973E+03   -0.24441545E-04    0.12125638E-02
    3   -0.19430973E+03   -0.15243783E-05    0.20785331E-03
    4   -0.19430973E+03   -0.39429156E-06    0.17380397E-04
    5   -0.19430973E+03   -0.66686709E-08    0.68543642E-05
    6   -0.19430973E+03   -0.30721026E-09    0.12290279E-05
    7   -0.19430973E+03   -0.39790393E-11    0.19317622E-06
    8   -0.19430973E+03   -0.56843419E-13    0.41106811E-07
    9   -0.19430973E+03   -0.56843419E-13    0.90108512E-08

[...]
Extrapolated to 0K:               -192.3345446990 H        -5233.6892 eV
Total Mermin free energy:         -192.3345446990 H        -5233.6892 eV
Force related energy:             -192.3345446990 H        -5233.6892 eV

Volume:                              0.992520E+04 au^3   0.147076E+04 A^3
Pressure:                            0.135484E-06 au     0.398607E+07 Pa
>> Charges saved for restart in charges.bin

total energy  -1.9233454E+02 H       energy change -2.8216860E-06 H
gradient norm  1.2105740E-03 H/a0    max. gradient  3.1898658E-04 H/a0
step length    1.0636911E-02 a0      max. step      2.5433580E-03 a0

--------------------------------------------------------------------------------

***  Geometry step: 200

 iSCC Total electronic   Diff electronic      SCC error    
    1   -0.19430360E+03    0.00000000E+00    0.23774112E-03
    2   -0.19430362E+03   -0.20534114E-04    0.10048058E-03
    3   -0.19430362E+03   -0.43684537E-07    0.33223991E-04
    4   -0.19430362E+03   -0.98835926E-08    0.29627351E-05
    5   -0.19430362E+03   -0.99504405E-10    0.32131975E-06
    6   -0.19430362E+03   -0.79296569E-11    0.85722197E-07
    7   -0.19430362E+03   -0.11368684E-12    0.16319296E-07
    8   -0.19430362E+03    0.28421709E-13    0.48875566E-08

Total Energy:                     -192.3345469055 H        -5233.6893 eV
Extrapolated to 0K:               -192.3345469055 H        -5233.6893 eV
Total Mermin free energy:         -192.3345469055 H        -5233.6893 eV
Force related energy:             -192.3345469055 H        -5233.6893 eV

Volume:                              0.992547E+04 au^3   0.147080E+04 A^3
Pressure:                            0.169686E-06 au     0.499233E+07 Pa
>> Charges saved for restart in charges.bin

total energy  -1.9233455E+02 H       energy change -2.2064749E-06 H
gradient norm  1.4052676E-03 H/a0    max. gradient  3.7269872E-04 H/a0
step length    1.1318850E-02 a0      max. step      2.5791989E-03 a0

--------------------------------------------------------------------------------

***  Geometry step: 201

 iSCC Total electronic   Diff electronic      SCC error    
    1   -0.19430362E+03    0.00000000E+00    0.21413013E-03
    2   -0.19430354E+03    0.83193688E-04    0.94210209E-04
    3   -0.19430354E+03   -0.42940826E-07    0.26628663E-04
    4   -0.19430354E+03   -0.97523696E-08    0.35010439E-05
    5   -0.19430354E+03   -0.89073637E-10    0.37986329E-06
    6   -0.19430354E+03   -0.65938366E-11    0.98033405E-07
    7   -0.19430354E+03   -0.17053026E-12    0.16593158E-07
    8   -0.19430354E+03    0.56843419E-13    0.46153095E-08

Total Energy:                     -192.3345494429 H        -5233.6894 eV
Extrapolated to 0K:               -192.3345494429 H        -5233.6894 eV
Total Mermin free energy:         -192.3345494429 H        -5233.6894 eV
Force related energy:             -192.3345494429 H        -5233.6894 eV

Volume:                              0.992568E+04 au^3   0.147083E+04 A^3
Pressure:                            0.146227E-06 au     0.430214E+07 Pa
>> Charges saved for restart in charges.bin

total energy  -1.9233455E+02 H       energy change -2.5374505E-06 H
gradient norm  1.3960971E-03 H/a0    max. gradient  4.0332662E-04 H/a0
step length    1.0413091E-02 a0      max. step      2.2963159E-03 a0

--------------------------------------------------------------------------------

***  Geometry step: 202

 iSCC Total electronic   Diff electronic      SCC error    
    1   -0.19430354E+03    0.00000000E+00    0.32352896E-03
    2   -0.19430332E+03    0.22264175E-03    0.15248519E-03
    3   -0.19430332E+03   -0.99063129E-07    0.57860134E-04
    4   -0.19430332E+03   -0.22787617E-07    0.48579481E-05
    5   -0.19430332E+03   -0.25261215E-09    0.58625861E-06
    6   -0.19430332E+03   -0.17649882E-10    0.12837108E-06
    7   -0.19430332E+03   -0.31263880E-12    0.36741972E-07
    8   -0.19430332E+03   -0.56843419E-13    0.83833607E-08

Total Energy:                     -192.3345528348 H        -5233.6895 eV
Extrapolated to 0K:               -192.3345528348 H        -5233.6895 eV
Total Mermin free energy:         -192.3345528348 H        -5233.6895 eV
Force related energy:             -192.3345528348 H        -5233.6895 eV

Volume:                              0.992584E+04 au^3   0.147086E+04 A^3
Pressure:                           -0.385506E-07 au    -0.113420E+07 Pa
>> Charges saved for restart in charges.bin

total energy  -1.9233455E+02 H       energy change -3.3918838E-06 H
gradient norm  1.4167032E-03 H/a0    max. gradient  3.3993706E-04 H/a0
step length    1.4340781E-02 a0      max. step      2.9757920E-03 a0

--------------------------------------------------------------------------------

***  Geometry step: 203

 iSCC Total electronic   Diff electronic      SCC error    
    1   -0.19430332E+03    0.00000000E+00    0.26360234E-03
    2   -0.19430333E+03   -0.18703636E-04    0.11273938E-03
    3   -0.19430333E+03   -0.40219419E-07    0.36748505E-04
    4   -0.19430333E+03   -0.86840828E-08    0.28172393E-05
    5   -0.19430333E+03   -0.10811618E-09    0.88203878E-06
    6   -0.19430333E+03   -0.79865003E-11    0.17713982E-06
    7   -0.19430333E+03   -0.11368684E-12    0.18594857E-07
    8   -0.19430333E+03    0.85265128E-13    0.74859408E-08

Total Energy:                     -192.3345552368 H        -5233.6895 eV
Extrapolated to 0K:               -192.3345552368 H        -5233.6895 eV
Total Mermin free energy:         -192.3345552368 H        -5233.6895 eV
Force related energy:             -192.3345552368 H        -5233.6895 eV

Volume:                              0.992583E+04 au^3   0.147086E+04 A^3
Pressure:                           -0.266757E-07 au    -0.784827E+06 Pa
>> Charges saved for restart in charges.bin

total energy  -1.9233456E+02 H       energy change -2.4019967E-06 H
gradient norm  1.3762463E-03 H/a0    max. gradient  3.2586157E-04 H/a0
step length    7.3086611E-03 a0      max. step      1.6069032E-03 a0

--------------------------------------------------------------------------------

***  Geometry step: 204

 iSCC Total electronic   Diff electronic      SCC error    
    1   -0.19430333E+03    0.00000000E+00    0.32858320E-03
    2   -0.19430344E+03   -0.10496491E-03    0.14573365E-03
    3   -0.19430344E+03   -0.68972099E-07    0.41810180E-04
    4   -0.19430344E+03   -0.14574312E-07    0.45196594E-05
    5   -0.19430344E+03   -0.19784352E-09    0.56582200E-06
    6   -0.19430344E+03   -0.16484591E-10    0.15040420E-06
    7   -0.19430344E+03   -0.28421709E-12    0.29517802E-07
    8   -0.19430344E+03    0.00000000E+00    0.82893874E-08

Total Energy:                     -192.3345579653 H        -5233.6896 eV
Extrapolated to 0K:               -192.3345579653 H        -5233.6896 eV
Total Mermin free energy:         -192.3345579653 H        -5233.6896 eV
Force related energy:             -192.3345579653 H        -5233.6896 eV

Volume:                              0.992577E+04 au^3   0.147085E+04 A^3
Pressure:                           -0.416067E-08 au    -0.122411E+06 Pa
>> Charges saved for restart in charges.bin

total energy  -1.9233456E+02 H       energy change -2.7284740E-06 H
gradient norm  1.1885938E-03 H/a0    max. gradient  2.4121679E-04 H/a0
step length    8.4620381E-03 a0      max. step      1.8804651E-03 a0

--------------------------------------------------------------------------------

***  Geometry step: 205

 iSCC Total electronic   Diff electronic      SCC error    
    1   -0.19430344E+03    0.00000000E+00    0.30193576E-03
    2   -0.19430355E+03   -0.10925909E-03    0.12149903E-03
    3   -0.19430355E+03   -0.56498266E-07    0.35576962E-04
    4   -0.19430355E+03   -0.11662024E-07    0.57032615E-05
    5   -0.19430355E+03   -0.15765522E-09    0.48341941E-06
    6   -0.19430355E+03   -0.14011903E-10    0.12980537E-06
    7   -0.19430355E+03   -0.28421709E-12    0.26284003E-07
    8   -0.19430355E+03    0.11368684E-12    0.88081076E-08

Total Energy:                     -192.3345599576 H        -5233.6897 eV
Extrapolated to 0K:               -192.3345599576 H        -5233.6897 eV
Total Mermin free energy:         -192.3345599576 H        -5233.6897 eV
Force related energy:             -192.3345599576 H        -5233.6897 eV

Volume:                              0.992551E+04 au^3   0.147081E+04 A^3
Pressure:                            0.233548E-08 au     0.687122E+05 Pa
>> Charges saved for restart in charges.bin

total energy  -1.9233456E+02 H       energy change -1.9923387E-06 H
gradient norm  1.1238062E-03 H/a0    max. gradient  3.3122992E-04 H/a0
step length    9.0413824E-03 a0      max. step      1.8024128E-03 a0

--------------------------------------------------------------------------------

***  Geometry step: 206

 iSCC Total electronic   Diff electronic      SCC error    
    1   -0.19430355E+03    0.00000000E+00    0.22094844E-03
    2   -0.19430373E+03   -0.18299944E-03    0.94428082E-04
    3   -0.19430373E+03   -0.31438645E-07    0.25579945E-04
    4   -0.19430373E+03   -0.72676016E-08    0.45786689E-05
    5   -0.19430373E+03   -0.80319751E-10    0.75737418E-06
    6   -0.19430373E+03   -0.81286089E-11    0.13508297E-06
    7   -0.19430373E+03   -0.11368684E-12    0.13822043E-07
    8   -0.19430373E+03   -0.28421709E-13    0.47762838E-08

Total Energy:                     -192.3345612191 H        -5233.6897 eV
Extrapolated to 0K:               -192.3345612191 H        -5233.6897 eV
Total Mermin free energy:         -192.3345612191 H        -5233.6897 eV
Force related energy:             -192.3345612191 H        -5233.6897 eV

Volume:                              0.992507E+04 au^3   0.147074E+04 A^3
Pressure:                            0.905026E-07 au     0.266268E+07 Pa
>> Charges saved for restart in charges.bin

total energy  -1.9233456E+02 H       energy change -1.2614774E-06 H
gradient norm  8.2543827E-04 H/a0    max. gradient  1.9413268E-04 H/a0
step length    8.3385806E-03 a0      max. step      1.5960413E-03 a0

--------------------------------------------------------------------------------

***  Geometry step: 207

 iSCC Total electronic   Diff electronic      SCC error    
    1   -0.19430373E+03    0.00000000E+00    0.12088185E-03
    2   -0.19430377E+03   -0.34440115E-04    0.57283344E-04
    3   -0.19430377E+03   -0.11125223E-07    0.17028033E-04
    4   -0.19430377E+03   -0.25375755E-08    0.15458586E-05
    5   -0.19430377E+03   -0.24186875E-10    0.24167849E-06
    6   -0.19430377E+03   -0.15063506E-11    0.40870087E-07
    7   -0.19430377E+03    0.00000000E+00    0.55679648E-08

Total Energy:                     -192.3345619379 H        -5233.6897 eV
Extrapolated to 0K:               -192.3345619379 H        -5233.6897 eV
Total Mermin free energy:         -192.3345619379 H        -5233.6897 eV
Force related energy:             -192.3345619379 H        -5233.6897 eV

Volume:                              0.992505E+04 au^3   0.147074E+04 A^3
Pressure:                            0.930245E-07 au     0.273687E+07 Pa
>> Charges saved for restart in charges.bin

total energy  -1.9233456E+02 H       energy change -7.1879731E-07 H
gradient norm  6.8037676E-04 H/a0    max. gradient  1.4488679E-04 H/a0
step length    1.9897371E-03 a0      max. step      4.4052413E-04 a0

--------------------------------------------------------------------------------

***  Geometry step: 208

 iSCC Total electronic   Diff electronic      SCC error    
    1   -0.19430377E+03    0.00000000E+00    0.22415496E-03
    2   -0.19430352E+03    0.24814759E-03    0.98249543E-04
    3   -0.19430352E+03   -0.39025167E-07    0.26780911E-04
    4   -0.19430352E+03   -0.84357623E-08    0.35205298E-05
    5   -0.19430352E+03   -0.80461859E-10    0.44366052E-06
    6   -0.19430352E+03   -0.64801498E-11    0.11107566E-06
    7   -0.19430352E+03   -0.56843419E-13    0.13862073E-07
    8   -0.19430352E+03   -0.56843419E-13    0.49600200E-08

Total Energy:                     -192.3345631976 H        -5233.6898 eV
Extrapolated to 0K:               -192.3345631976 H        -5233.6898 eV
Total Mermin free energy:         -192.3345631976 H        -5233.6898 eV
Force related energy:             -192.3345631976 H        -5233.6898 eV

Volume:                              0.992357E+04 au^3   0.147052E+04 A^3
Pressure:                            0.750618E-07 au     0.220839E+07 Pa
>> Charges saved for restart in charges.bin

total energy  -1.9233456E+02 H       energy change -1.2597108E-06 H
gradient norm  8.2635390E-04 H/a0    max. gradient  1.9919669E-04 H/a0
step length    2.0712564E-02 a0      max. step      5.3722174E-03 a0

--------------------------------------------------------------------------------

***  Geometry step: 209

 iSCC Total electronic   Diff electronic      SCC error    
    1   -0.19430352E+03    0.00000000E+00    0.75696378E-04
    2   -0.19430352E+03   -0.63337099E-05    0.34848330E-04
    3   -0.19430352E+03   -0.35763321E-08    0.93978384E-05
    4   -0.19430352E+03   -0.78523499E-09    0.12254537E-05
    5   -0.19430352E+03   -0.15063506E-10    0.20374131E-06
    6   -0.19430352E+03   -0.10516032E-11    0.30706031E-07
    7   -0.19430352E+03   -0.28421709E-13    0.50711115E-08

Total Energy:                     -192.3345638555 H        -5233.6898 eV
Extrapolated to 0K:               -192.3345638555 H        -5233.6898 eV
Total Mermin free energy:         -192.3345638555 H        -5233.6898 eV
Force related energy:             -192.3345638555 H        -5233.6898 eV

Volume:                              0.992355E+04 au^3   0.147052E+04 A^3
Pressure:                            0.789801E-07 au     0.232367E+07 Pa
>> Charges saved for restart in charges.bin

total energy  -1.9233456E+02 H       energy change -6.5784664E-07 H
gradient norm  7.2652642E-04 H/a0    max. gradient  1.6514379E-04 H/a0
step length    1.5652360E-03 a0      max. step      3.0980245E-04 a0

--------------------------------------------------------------------------------

***  Geometry step: 210

 iSCC Total electronic   Diff electronic      SCC error    
    1   -0.19430352E+03    0.00000000E+00    0.30230766E-03
    2   -0.19430351E+03    0.11636924E-04    0.13727259E-03
    3   -0.19430351E+03   -0.64401661E-07    0.43909800E-04
    4   -0.19430351E+03   -0.13469020E-07    0.43310327E-05
    5   -0.19430351E+03   -0.26162184E-09    0.96908016E-06
    6   -0.19430351E+03   -0.17422508E-10    0.16192078E-06
    7   -0.19430351E+03   -0.22737368E-12    0.24789347E-07
    8   -0.19430351E+03   -0.28421709E-13    0.79897764E-08

Total Energy:                     -192.3345657994 H        -5233.6898 eV
Extrapolated to 0K:               -192.3345657994 H        -5233.6898 eV
Total Mermin free energy:         -192.3345657994 H        -5233.6898 eV
Force related energy:             -192.3345657994 H        -5233.6898 eV

Volume:                              0.992374E+04 au^3   0.147055E+04 A^3
Pressure:                            0.102108E-06 au     0.300412E+07 Pa
>> Charges saved for restart in charges.bin

total energy  -1.9233457E+02 H       energy change -1.9439101E-06 H
gradient norm  1.1082973E-03 H/a0    max. gradient  4.2584226E-04 H/a0
step length    9.2868053E-03 a0      max. step      1.7237502E-03 a0

--------------------------------------------------------------------------------

***  Geometry step: 211

 iSCC Total electronic   Diff electronic      SCC error    
    1   -0.19430351E+03    0.00000000E+00    0.19506745E-03
    2   -0.19430348E+03    0.34926759E-04    0.77548016E-04
    3   -0.19430348E+03   -0.16276232E-07    0.15369055E-04
    4   -0.19430348E+03   -0.31255354E-08    0.25836847E-05
    5   -0.19430348E+03   -0.42888360E-10    0.45506320E-06
    6   -0.19430348E+03   -0.42916781E-11    0.94500904E-07
    7   -0.19430348E+03   -0.56843419E-13    0.80472216E-08

Total Energy:                     -192.3345668465 H        -5233.6899 eV
Extrapolated to 0K:               -192.3345668465 H        -5233.6899 eV
Total Mermin free energy:         -192.3345668465 H        -5233.6899 eV
Force related energy:             -192.3345668465 H        -5233.6899 eV

Volume:                              0.992374E+04 au^3   0.147055E+04 A^3
Pressure:                            0.456392E-07 au     0.134275E+07 Pa
>> Charges saved for restart in charges.bin

total energy  -1.9233457E+02 H       energy change -1.0471113E-06 H
gradient norm  9.0419242E-04 H/a0    max. gradient  3.6333338E-04 H/a0
step length    6.1733889E-03 a0      max. step      1.1529403E-03 a0

--------------------------------------------------------------------------------

***  Geometry step: 212

 iSCC Total electronic   Diff electronic      SCC error    
    1   -0.19430348E+03    0.00000000E+00    0.26677287E-03
    2   -0.19430348E+03   -0.12802287E-05    0.10754410E-03
    3   -0.19430348E+03   -0.36328430E-07    0.20426382E-04
    4   -0.19430348E+03   -0.70385511E-08    0.35734909E-05
    5   -0.19430348E+03   -0.74720674E-10    0.38013021E-06
    6   -0.19430348E+03   -0.67075234E-11    0.90109938E-07
    7   -0.19430348E+03   -0.85265128E-13    0.13174615E-07
    8   -0.19430348E+03    0.11368684E-12    0.32453276E-08

Total Energy:                     -192.3345679184 H        -5233.6899 eV
Extrapolated to 0K:               -192.3345679184 H        -5233.6899 eV
Total Mermin free energy:         -192.3345679184 H        -5233.6899 eV
Force related energy:             -192.3345679184 H        -5233.6899 eV

Volume:                              0.992385E+04 au^3   0.147056E+04 A^3
Pressure:                            0.293557E-07 au     0.863675E+06 Pa
>> Charges saved for restart in charges.bin

total energy  -1.9233457E+02 H       energy change -1.0718942E-06 H
gradient norm  6.7511350E-04 H/a0    max. gradient  1.9312304E-04 H/a0
step length    9.0863998E-03 a0      max. step      1.8408184E-03 a0

--------------------------------------------------------------------------------

***  Geometry step: 213

 iSCC Total electronic   Diff electronic      SCC error    
    1   -0.19430348E+03    0.00000000E+00    0.83420869E-04
    2   -0.19430338E+03    0.98729992E-04    0.37812162E-04
    3   -0.19430338E+03   -0.59841625E-08    0.10348187E-04
    4   -0.19430338E+03   -0.13904753E-08    0.10405005E-05
    5   -0.19430338E+03   -0.14466650E-10    0.11796539E-06
    6   -0.19430338E+03   -0.12221335E-11    0.28929456E-07
    7   -0.19430338E+03    0.28421709E-13    0.46532902E-08

Total Energy:                     -192.3345684048 H        -5233.6899 eV
Extrapolated to 0K:               -192.3345684048 H        -5233.6899 eV
Total Mermin free energy:         -192.3345684048 H        -5233.6899 eV
Force related energy:             -192.3345684048 H        -5233.6899 eV

Volume:                              0.992389E+04 au^3   0.147057E+04 A^3
Pressure:                           -0.290206E-07 au    -0.853816E+06 Pa
>> Charges saved for restart in charges.bin

total energy  -1.9233457E+02 H       energy change -4.8639430E-07 H
gradient norm  5.0773339E-04 H/a0    max. gradient  9.2963378E-05 H/a0
step length    2.0691769E-03 a0      max. step      4.3827346E-04 a0

Geometry converged

--------------------------------------------------------------------------------
DFTB+ running times                          cpu [s]             wall clock [s]
--------------------------------------------------------------------------------
Pre-SCC initialisation                 +      15.97 (  0.8%)       2.73 (  1.1%)
SCC                                    +    1693.94 ( 88.1%)     214.40 ( 89.1%)
Post-SCC processing                    +     213.67 ( 11.1%)      23.60 (  9.8%)
--------------------------------------------------------------------------------
Missing                                +       0.05 (  0.0%)       0.01 (  0.0%)
Total                                  =    1923.62 (100.0%)     240.74 (100.0%)
--------------------------------------------------------------------------------
