Created on 29  6 2025 20:56:57
  
           0  atoms
  
           0  atom types
  
   0.00000000       10.4499998      xlo xhi
   0.00000000       15.0279999      ylo yhi
   0.00000000       8.62247467      zlo zhi
   0.00000000      -2.41392970       0.00000000      xy xz yz
  
Masses
  
  
PairIJ Coeffs
  
  
Atoms
  
  
