   72
Geometry Step: 0
   Ge      2.56407553      5.97964120      5.91760459      3.17518140
   Si      1.51640887      3.67434600      7.70763040      3.10086023
   Si      6.51966213      3.67434600      0.91484460      3.09779282
   Si      6.51966213     11.35365400      0.91484460      3.09804367
   Si      1.51640887     11.35365400      7.70763040      3.09789250
   Si      6.74140887     11.18834600      7.70763040      3.09807802
   Si      1.29466213     11.18834600      0.91484460      3.09808394
   Si      1.29466213      3.83965400      0.91484460      3.09774778
   Si      6.74140887      3.83965400      7.70763040      3.09804962
   Si      2.40431475      5.97964120      2.86007496      3.12218107
   Si      5.63175625      5.97964120      5.76240004      3.12244422
   Si      5.63175625      9.04835880      5.76240004      3.11757880
   Si      2.40431475      9.04835880      2.86007496      3.11758977
   Si      7.62931475     13.49364120      2.86007496      3.11792686
   Si      0.40675625     13.49364120      5.76240004      3.11787953
   Si      0.40675625      1.53435880      5.76240004      3.11766013
   Si      7.62931475      1.53435880      2.86007496      3.11785265
   Si      5.47199547      5.97964120      2.70487041      3.11983247
   Si      5.47199547      9.04835880      2.70487041      3.11997454
   Si      2.56407553      9.04835880      5.91760459      3.12383930
   Si      7.78907553     13.49364120      5.91760459      3.12018416
   Si      0.24699547     13.49364120      2.70487041      3.12016561
   Si      0.24699547      1.53435880      2.70487041      3.12007382
   Si      7.78907553      1.53435880      5.91760459      3.12012603
    O      5.22500000      3.40534480      0.00000000      6.43912247
    O      5.22500000     11.62265520      0.00000000      6.43959670
    O      0.00000000     10.91934480      0.00000000      6.43959476
    O      0.00000000      4.10865520      0.00000000      6.43958984
    O      1.37088378      2.46609480      6.65223946      6.42792848
    O      6.66518722      2.46609480      1.97023554      6.42835866
    O      6.66518722     12.56190520      1.97023554      6.42840093
    O      1.37088378     12.56190520      6.65223946      6.42836973
    O      6.59588378      9.98009480      6.65223946      6.42847418
    O      1.44018722      9.98009480      1.97023554      6.42846276
    O      1.44018722      5.04790520      1.97023554      6.42804152
    O      6.59588378      5.04790520      6.65223946      6.42805923
    O      1.68921648      5.05992760      6.90746472      6.41215866
    O      6.34685452      5.05992760      1.71501028      6.43156805
    O      6.34685452      9.96807240      1.71501028      6.43158435
    O      1.68921648      9.96807240      6.90746472      6.43127590
    O      6.91421648     12.57392760      6.90746472      6.43154835
    O      1.12185452     12.57392760      1.71501028      6.43154802
    O      1.12185452      2.45407240      1.71501028      6.43152987
    O      6.91421648      2.45407240      6.90746472      6.43150665
    O      2.61250000      3.75700000      0.00000000      6.44035981
    O      7.83750000      3.75700000      0.00000000      6.44065049
    O      7.83750000     11.27100000      0.00000000      6.44069356
    O      2.61250000     11.27100000      0.00000000      6.44073972
    O      3.91513367      5.85340600      2.31599678      6.46396125
    O      4.12093733      5.85340600      6.30647822      6.45012517
    O      4.12093733      9.17459400      6.30647822      6.46367350
    O      3.91513367      9.17459400      2.31599678      6.46418664
    O      9.14013367     13.36740600      2.31599678      6.46420129
    O     -1.10406267     13.36740600      6.30647822      6.46421655
    O     -1.10406267      1.66059400      6.30647822      6.46427497
    O      9.14013367      1.66059400      2.31599678      6.46421913
    O      2.34641400      5.50175080      4.39573775      6.43839289
    O      5.68965700      5.50175080      4.22673724      6.45193273
    O      5.68965700      9.52624920      4.22673724      6.45252075
    O      2.34641400      9.52624920      4.39573775      6.45218737
    O      7.57141400     13.01575080      4.39573775      6.45247720
    O      0.46465700     13.01575080      4.22673724      6.45246537
    O      0.46465700      2.01224920      4.22673724      6.45248699
    O      7.57141400      2.01224920      4.39573775      6.45246061
    O      1.92565329      7.51400000      2.75574301      6.44662678
    O      6.11041771      7.51400000      5.86673199      6.44678421
    O      7.15065329      0.00000000      2.75574301      6.44719976
    O      0.88541771      0.00000000      5.86673199      6.44716006
    O      2.09724095      7.51400000      6.06591116      6.43182779
    O      5.93883005      7.51400000      2.55656384      6.44673232
    O      7.32224095      0.00000000      6.06591116      6.44683549
    O      0.71383005      0.00000000      2.55656384      6.44684958
   72
Geometry Step: 1
   Ge      2.56112206      5.97801091      5.92000185      3.20401787
   Si      1.51553148      3.67326383      7.71051176      3.09832110
   Si      6.52020546      3.67380272      0.91256503      3.09751183
   Si      6.52010041     11.35422950      0.91246851      3.09243964
   Si      1.51597489     11.35426580      7.71003931      3.09511122
   Si      6.74096545     11.18769762      7.70999914      3.09194174
   Si      1.29509158     11.18769950      0.91247522      3.09510030
   Si      1.29494838      3.84029790      0.91257709      3.09915514
   Si      6.74095778      3.84029229      7.70995751      3.09578998
   Si      2.40162275      5.97749016      2.85794485      3.12412787
   Si      5.63399715      5.97791954      5.76542394      3.11589013
   Si      5.63439959      9.04998460      5.76489152      3.11705308
   Si      2.40168180      9.04997299      2.85755404      3.12395023
   Si      7.62664773     13.49195091      2.85755354      3.11938348
   Si      0.40941067     13.49193128      5.76491769      3.11574124
   Si      0.40934373      1.53593432      5.76484420      3.12024542
   Si      7.62664715      1.53600570      2.85756940      3.12294075
   Si      5.47451864      5.97799127      2.70237914      3.12538902
   Si      5.47452576      9.05003737      2.70232020      3.12315150
   Si      2.56105736      9.04994776      5.92031598      3.12262387
   Si      7.78651380     13.49191060      5.92018687      3.11972426
   Si      0.24954342     13.49190547      2.70228264      3.12685063
   Si      0.24952991      1.53602993      2.70228403      3.13109128
   Si      7.78648935      1.53605331      5.92017591      3.12409753
    O      5.22472026      3.39807786     -0.00021502      6.44942561
    O      5.22498840     11.63002151     -0.00000883      6.44609484
    O      0.00000535     10.91199235      0.00000247      6.46442588
    O      0.00004926      4.11600511      0.00001918      6.46465219
    O      1.37990866      2.46082838      6.64913808      6.42552627
    O      6.65618453      2.46055975      1.97346974      6.42522074
    O      6.65620484     12.56746771      1.97350447      6.42306525
    O      1.37986634     12.56746255      6.64897239      6.41990580
    O      6.60488440      9.97457829      6.64899934      6.41860555
    O      1.43118969      9.97457592      1.97347718      6.42555263
    O      1.43124734      5.05342388      1.97359575      6.42760828
    O      6.60472987      5.05346996      6.64899981      6.42178894
    O      1.63733998      5.02096334      6.95843875      6.39095175
    O      6.35444788      5.06826901      1.71455022      6.42984838
    O      6.35444228      9.95969313      1.71459719      6.43019201
    O      1.68165528      9.95950023      6.90779622      6.42709161
    O      6.90664718     12.58235444      6.90785167      6.41261737
    O      1.12942715     12.58235396      1.71462310      6.42057609
    O      1.12945536      2.44568968      1.71458568      6.42303414
    O      6.90664895      2.44566041      6.90786786      6.41468707
    O      2.61275754      3.75712501     -0.00025629      6.44705166
    O      7.83747509      3.75699124      0.00000687      6.44107569
    O      7.83749935     11.27100885      0.00000290      6.44056667
    O      2.61250763     11.27100555     -0.00000857      6.44530675
    O      3.91449277      5.84915238      2.30360431      6.46571781
    O      4.20284538      5.84270208      6.33829816      6.43293310
    O      4.12124092      9.17874739      6.31892504      6.46833656
    O      3.91464563      9.17881041      2.30353130      6.46331197
    O      9.13965365     13.36321079      2.30354101      6.47400290
    O     -1.10356718     13.36321236      6.31893459      6.47407516
    O     -1.10353526      1.66480822      6.31894112      6.48185953
    O      9.13966247      1.66480209      2.30353918      6.48193853
    O      2.32984079      5.46502910      4.31659492      6.41842252
    O      5.69476950      5.48890823      4.22670921      6.45420031
    O      5.69481289      9.53911639      4.22659091      6.45315213
    O      2.34123525      9.53901383      4.39607178      6.45626393
    O      7.56626877     13.00290354      4.39587800      6.44030136
    O      0.46980506     13.00290733      4.22660392      6.44033203
    O      0.46981260      2.02511629      4.22662695      6.44803867
    O      7.56627342      2.02510307      4.39587720      6.44721948
    O      1.91226142      7.51386495      2.75167346      6.44922122
    O      6.12375967      7.51386475      5.87087995      6.44827515
    O      7.13724475      0.00002044      2.75163491      6.45951898
    O      0.89883289      0.00005400      5.87084623      6.45859894
    O      2.06100470      7.59290294      6.07930169      6.41235773
    O      5.95172524      7.51399636      2.55086914      6.44697628
    O      7.30935971      0.00002027      6.07159098      6.44380619
    O      0.72671806      0.00002943      2.55088648      6.44461924
   72
Geometry Step: 2
   Ge      2.56046708      5.97779996      5.91915374      3.23420519
   Si      1.51122377      3.64173114      7.74368640      3.09465828
   Si      6.51904170      3.67194115      0.91207497      3.09346082
   Si      6.51861770     11.35461863      0.91148920      3.09197703
   Si      1.51523022     11.35571158      7.72710478      3.09458383
   Si      6.75481373     11.18223027      7.73822701      3.09244507
   Si      1.29287472     11.18577034      0.90809279      3.09270159
   Si      1.29265308      3.84101781      0.90826119      3.09686257
   Si      6.75530250      3.84472416      7.73783117      3.09371618
   Si      2.39990132      5.98513379      2.82493177      3.12357966
   Si      5.66432736      5.97972015      5.75496715      3.11963261
   Si      5.63537287      9.04932678      5.76533476      3.12068144
   Si      2.39884693      9.05098033      2.85466664      3.12236007
   Si      7.62252658     13.51081525      2.85150893      3.12110111
   Si      0.41352380     13.51114801      5.76899790      3.12047067
   Si      0.40740886      1.53440683      5.76718385      3.12055035
   Si      7.62860697      1.53496964      2.85334713      3.12124544
   Si      5.47658429      5.97607063      2.69923166      3.12551363
   Si      5.47651136      9.05060907      2.69956032      3.12503623
   Si      2.56816409      9.07949849      5.91796633      3.12701211
   Si      7.80535673     13.50796997      5.92760796      3.12690812
   Si      0.23270455     13.50680073      2.69233695      3.12860058
   Si      0.22694671      1.53920747      2.69461600      3.12839810
   Si      7.81106990      1.53803342      5.92518433      3.12691551
    O      5.21409147      3.39048139     -0.00896073      6.43827073
    O      5.21413979     11.63772269     -0.00881717      6.43837426
    O     -0.02764800     10.90714297     -0.02030591      6.44994114
    O     -0.02764289      4.12113377     -0.02033384      6.45101222
    O      1.39432287      2.45729463      6.64855936      6.42241863
    O      6.64235675      2.45603286      1.97578818      6.42188227
    O      6.64296676     12.57373392      1.97690590      6.42135122
    O      1.39373318     12.57239277      6.64743912      6.42209723
    O      6.61974856      9.97198460      6.64964983      6.42313779
    O      1.41846603      9.96898762      1.97690032      6.42264658
    O      1.41864134      5.05964959      1.97650135      6.42225869
    O      6.62025946      5.05647765      6.64931725      6.42528891
    O      1.60127633      5.02861485      6.97718555      6.39846711
    O      6.36558393      5.07799771      1.71256987      6.42664927
    O      6.36594469      9.95097051      1.71220670      6.42666011
    O      1.66987680      9.95355821      6.91224407      6.42549223
    O      6.89662323     12.59096926      6.91154405      6.42444506
    O      1.13886489     12.59467202      1.71457750      6.42410438
    O      1.13935367      2.43506078      1.71371582      6.42388271
    O      6.89610523      2.43875825      6.91249063      6.42448612
    O      2.62457915      3.75612777     -0.00857098      6.44939560
    O      7.85194129      3.75830228     -0.01011950      6.44834670
    O      7.85217887     11.26995639     -0.01007724      6.44906784
    O      2.62490735     11.27197330     -0.00898668      6.44870126
    O      3.91469393      5.84432613      2.28740016      6.46370227
    O      4.22086736      5.83071257      6.37779973      6.43525719
    O      4.12274565      9.18429290      6.33517997      6.46405490
    O      3.91434793      9.18419732      2.28757135      6.46404650
    O      9.16547829     13.36028658      2.29426740      6.46880881
    O     -1.13030976     13.36013463      6.32857436      6.46939650
    O     -1.13040749      1.66854338      6.32872691      6.47216798
    O      9.16565023      1.66835453      2.29413188      6.47151349
    O      2.31514764      5.42414985      4.30220357      6.42156410
    O      5.70133554      5.47257593      4.22764437      6.45081996
    O      5.70148967      9.55597555      4.22762590      6.45205426
    O      2.33510208      9.55606281      4.39672729      6.45251178
    O      7.56007690     12.98715441      4.40078752      6.44425619
    O      0.47588130     12.98724322      4.22385524      6.44445401
    O      0.47561448      2.04223012      4.22393587      6.44707119
    O      7.56039843      2.04222378      4.40078926      6.44763147
    O      1.89515246      7.51455868      2.74680437      6.44484583
    O      6.14157815      7.51504400      5.87604377      6.44574369
    O      7.12432573     -0.02016812      2.74832625      6.45328352
    O      0.91168909     -0.02013432      5.87451954      6.45302377
    O      2.02036710      7.60972514      6.09472122      6.41441044
    O      5.96848302      7.51461913      2.54386763      6.44549365
    O      7.29952186     -0.02015713      6.07773513      6.45107085
    O      0.73628565     -0.02018212      2.54516983      6.45182339
   72
Geometry Step: 3
   Ge      2.56090386      5.97924683      5.91803246      3.26558467
   Si      1.48822321      3.60968589      7.78278550      3.09550611
   Si      6.52330180      3.67286697      0.90383867      3.09064057
   Si      6.52291937     11.35474401      0.90405262      3.09432720
   Si      1.49640737     11.35497362      7.74588227      3.09656463
   Si      6.76285157     11.17966065      7.77459617      3.09487889
   Si      1.28560526     11.18547036      0.89576317      3.09278134
   Si      1.28519147      3.84179333      0.89570138      3.09547366
   Si      6.76348623      3.84870767      7.77408424      3.09206756
   Si      2.40229394      5.99912593      2.79042839      3.12871104
   Si      5.70333720      5.98209114      5.74333740      3.12544285
   Si      5.63798715      9.04993239      5.76710261      3.12337475
   Si      2.39831817      9.05167910      2.85469120      3.12287717
   Si      7.62586181     13.54145294      2.84768288      3.13028629
   Si      0.41027565     13.54136136      5.77393255      3.13024176
   Si      0.39837610      1.52510413      5.77012573      3.12462573
   Si      7.63774664      1.52550035      2.85121266      3.12619088
   Si      5.47781262      5.97701686      2.69944160      3.12579858
   Si      5.47802392      9.05041895      2.70055869      3.12936671
   Si      2.57895347      9.11585919      5.91447881      3.13364428
   Si      7.82382687     13.53501585      5.93901770      3.13794649
   Si      0.21243032     13.53578430      2.68349263      3.13683745
   Si      0.20079541      1.52913674      2.68765122      3.13191103
   Si      7.83563878      1.52943669      5.93472467      3.13367811
    O      5.21688078      3.37407685     -0.00788778      6.44175569
    O      5.21084692     11.65268813     -0.01238410      6.44743228
    O     -0.05381495     10.89919501     -0.04002998      6.45151614
    O     -0.05390826      4.12926311     -0.04011058      6.45425166
    O      1.41775135      2.44727237      6.64578615      6.41691599
    O      6.61777153      2.44815178      1.97878922      6.42041541
    O      6.61992146     12.58372072      1.98078773      6.42159869
    O      1.41603735     12.57878321      6.64776182      6.42534369
    O      6.64576820      9.97208782      6.65541628      6.42507913
    O      1.39205014      9.96483115      1.97688712      6.42015419
    O      1.38603664      5.05815350      1.96779635      6.41629466
    O      6.65313966      5.05200910      6.65863227      6.42410795
    O      1.55778679      5.05208639      6.99295837      6.40649456
    O      6.38837571      5.08744891      1.70296437      6.42554420
    O      6.38842838      9.94087409      1.70347782      6.42403743
    O      1.64384738      9.95484216      6.92894284      6.41960795
    O      6.88072196     12.60116196      6.91984882      6.43103578
    O      1.15621353     12.60931081      1.70943338      6.42731858
    O      1.15801647      2.42299129      1.70706874      6.42506507
    O      6.87853633      2.43122995      6.92260867      6.42940502
    O      2.63940603      3.75353051     -0.02037902      6.43781834
    O      7.87503318      3.76013809     -0.02714863      6.44204525
    O      7.87544199     11.26835675     -0.02707406      6.44373830
    O      2.64531505     11.27329085     -0.02583555      6.44026104
    O      3.92081136      5.83633620      2.25765169      6.45682345
    O      4.21627183      5.81411739      6.43387107      6.44003604
    O      4.13028727      9.19359395      6.36360786      6.45538289
    O      3.91241575      9.19277275      2.26114015      6.46236302
    O      9.18928302     13.35702806      2.28102739      6.46709400
    O     -1.15338666     13.35674815      6.34210807      6.46845136
    O     -1.15440102      1.67412257      6.34390806      6.46516303
    O      9.19045162      1.67376896      2.27934658      6.46332682
    O      2.29629926      5.36855944      4.30685382      6.42540874
    O      5.71163629      5.44387284      4.21920745      6.44299066
    O      5.71161555      9.58342942      4.22603159      6.44811837
    O      2.32484345      9.58649158      4.38817530      6.44379637
    O      7.55094626     12.96572710      4.40266303      6.44547753
    O      0.48475712     12.96583014      4.22093775      6.44598859
    O      0.48420276      2.06810399      4.22105377      6.44147053
    O      7.55151969      2.06826116      4.40243018      6.44402360
    O      1.86490153      7.52089502      2.73868116      6.43566904
    O      6.17377988      7.52217065      5.88407205      6.43860692
    O      7.10805841     -0.04823241      2.74308819      6.44136095
    O      0.92798489     -0.04842920      5.88013119      6.44184431
    O      1.96414999      7.60313004      6.11618447      6.41753167
    O      5.99612949      7.51375491      2.53278448      6.44284457
    O      7.28909291     -0.04581925      6.08551040      6.44472086
    O      0.74642168     -0.04579876      2.53780567      6.44551195
   72
Geometry Step: 4
   Ge      2.55818951      5.97749510      5.91893329      3.28833702
   Si      1.48997038      3.59378251      7.80983517      3.09741000
   Si      6.53296842      3.67388985      0.89138056      3.09075317
   Si      6.52994045     11.35765032      0.89202671      3.09460011
   Si      1.49743374     11.36375174      7.76677661      3.09602785
   Si      6.78316732     11.18064725      7.80284481      3.09455474
   Si      1.27437239     11.18832042      0.87585851      3.09450369
   Si      1.27131682      3.83985467      0.87366450      3.09624047
   Si      6.78311283      3.84939108      7.80507986      3.09055735
   Si      2.39982215      6.00036506      2.77596188      3.13631176
   Si      5.72167678      5.97876088      5.74539051      3.13201552
   Si      5.64718313      9.05807171      5.77132235      3.12685979
   Si      2.39737185      9.05582517      2.85108971      3.12713437
   Si      7.63464191     13.55559718      2.84620457      3.13682336
   Si      0.40218794     13.55423513      5.77766284      3.13643145
   Si      0.38991260      1.51234908      5.77429478      3.13149142
   Si      7.64559456      1.51314959      2.84753448      3.13394625
   Si      5.48248919      5.97846031      2.69636499      3.13033625
   Si      5.48071317      9.05140033      2.70002628      3.13556383
   Si      2.57698625      9.13108469      5.91682507      3.14266150
   Si      7.83615605     13.55037493      5.94819962      3.14398776
   Si      0.19671076     13.55420568      2.67774213      3.14442936
   Si      0.18656544      1.51522757      2.68066683      3.14075800
   Si      7.84648815      1.51827754      5.94556630      3.14091138
    O      5.20916859      3.35716602     -0.01641641      6.43002531
    O      5.19839261     11.66593499     -0.02527410      6.43724937
    O     -0.07686870     10.89292728     -0.05914741      6.43746136
    O     -0.07713832      4.13535231     -0.05932727      6.44014296
    O      1.43996240      2.43290885      6.64185512      6.41432391
    O      6.59604871      2.43614719      1.98423427      6.42031456
    O      6.60010059     12.59741485      1.98655416      6.42056973
    O      1.43512834     12.58823760      6.64740950      6.42376875
    O      6.67192694      9.97292013      6.66317414      6.42340159
    O      1.36324836      9.96127596      1.97494402      6.41979051
    O      1.35181822      5.05973395      1.95886710      6.41458992
    O      6.69061624      5.04556866      6.67070084      6.42174849
    O      1.52023233      5.06972706      7.00906998      6.40526711
    O      6.41394260      5.09775636      1.69218441      6.42336461
    O      6.41344530      9.92945458      1.69359446      6.42143876
    O      1.61708024      9.95415258      6.94538190      6.41610030
    O      6.86821660     12.61026300      6.92939787      6.43150881
    O      1.17136290     12.62574116      1.70463579      6.42727686
    O      1.17433227      2.40729809      1.70173580      6.42506091
    O      6.86453812      2.42349887      6.93297696      6.43058991
    O      2.63470072      3.75113039     -0.01872107      6.44706662
    O      7.88775978      3.76118815     -0.03643134      6.45183513
    O      7.88770773     11.26729652     -0.03619446      6.45421337
    O      2.64816893     11.27348142     -0.03126113      6.45025928
    O      3.92758952      5.82799626      2.22400476      6.45234049
    O      4.21839355      5.80029368      6.48051489      6.43629604
    O      4.13924451      9.20323596      6.39495229      6.45223153
    O      3.91079412      9.20093643      2.23343583      6.45905250
    O      9.20589542     13.35586564      2.26952669      6.46215370
    O     -1.16875396     13.35541791      6.35390600      6.46421942
    O     -1.16861729      1.67875540      6.35867422      6.46296038
    O      9.20591882      1.67822294      2.26500008      6.46067479
    O      2.28076979      5.32220561      4.30743181      6.41891363
    O      5.72214989      5.41198204      4.21040888      6.43792009
    O      5.72115893      9.61172811      4.22573236      6.44497242
    O      2.31466795      9.62051753      4.37949708      6.43906962
    O      7.54409004     12.94990973      4.40470656      6.44091190
    O      0.49163263     12.94977803      4.21838859      6.44136498
    O      0.49112011      2.09121391      4.21775621      6.43809519
    O      7.54451097      2.09149167      4.40501740      6.44169777
    O      1.83140707      7.52863969      2.73040764      6.43115329
    O      6.20959861      7.52995487      5.89169324      6.43522289
    O      7.09295199     -0.06018482      2.73760910      6.43827064
    O      0.94325222     -0.06075854      5.88587245      6.43903430
    O      1.91730337      7.60295757      6.13372758      6.41164429
    O      6.02482742      7.51305033      2.52214442      6.43861256
    O      7.28201314     -0.06002901      6.09251529      6.44148533
    O      0.75344600     -0.05993569      2.53108022      6.44168774
   72
Geometry Step: 5
   Ge      2.55244594      5.97295430      5.92284559      3.29820593
   Si      1.47855533      3.59411092      7.82499018      3.09874044
   Si      6.54424880      3.67045488      0.88226195      3.09025926
   Si      6.53699253     11.36386867      0.88196779      3.09368841
   Si      1.48745242     11.37545090      7.78761582      3.09607121
   Si      6.78391581     11.18561359      7.82031622      3.09340594
   Si      1.26670846     11.19314067      0.86035764      3.09540390
   Si      1.25797775      3.83295342      0.85605513      3.09603322
   Si      6.78262624      3.84283099      7.82630203      3.08919046
   Si      2.39183734      5.99090235      2.77393516      3.14198304
   Si      5.72608427      5.97055137      5.75602487      3.13733881
   Si      5.65887362      9.06945593      5.77590091      3.13132382
   Si      2.39363811      9.06339353      2.84229415      3.13253011
   Si      7.63882654     13.56220367      2.84504232      3.14078408
   Si      0.39931639     13.55912795      5.78014051      3.14098013
   Si      0.38497861      1.50414905      5.77502851      3.13715667
   Si      7.64947815      1.50583103      2.84536917      3.13863686
   Si      5.49089323      5.97710084      2.68847298      3.13422135
   Si      5.48490060      9.05431857      2.69618033      3.13822907
   Si      2.56643082      9.13082719      5.92291695      3.14885675
   Si      7.84022865     13.55706170      5.95443090      3.14653311
   Si      0.19107305     13.56311731      2.67300540      3.14760318
   Si      0.18337535      1.50799694      2.67569087      3.14469960
   Si      7.84745091      1.51369047      5.95284980      3.14401344
    O      5.20705467      3.34278233     -0.02104036      6.43471638
    O      5.19417743     11.67634526     -0.03261422      6.43952795
    O     -0.08505421     10.88785281     -0.06764958      6.44076137
    O     -0.08525491      4.14047120     -0.06749601      6.44181373
    O      1.45488317      2.42223508      6.64196466      6.41557993
    O      6.58220629      2.42704162      1.98710617      6.41806612
    O      6.58848044     12.60908309      1.99033753      6.41884966
    O      1.44490440     12.59791652      6.64746649      6.42273843
    O      6.69201090      9.97607817      6.67264081      6.42125429
    O      1.34057410      9.96016521      1.97093616      6.41731397
    O      1.32774253      5.06669674      1.95439327      6.41372196
    O      6.71858171      5.04322648      6.67866105      6.42120211
    O      1.49725793      5.07849001      7.02151156      6.40181170
    O      6.43336200      5.10755333      1.68444860      6.42146595
    O      6.43239445      9.92035017      1.68574549      6.42039182
    O      1.59833120      9.95083896      6.95555107      6.41712544
    O      6.86296412     12.61765065      6.93751957      6.43137359
    O      1.17791784     12.63965751      1.70152140      6.42736494
    O      1.18202156      2.39423168      1.69794916      6.42353282
    O      6.85826629      2.41704566      6.94139764      6.42957728
    O      2.63972331      3.74753194     -0.02617761      6.43942541
    O      7.90488996      3.76220461     -0.04959663      6.44299683
    O      7.90394931     11.26652276     -0.04912647      6.44601805
    O      2.65309553     11.27394639     -0.04081340      6.44276018
    O      3.92815766      5.82248350      2.19742222      6.45289657
    O      4.22286441      5.79262368      6.50725577      6.43310803
    O      4.14195971      9.21034578      6.41878791      6.45463681
    O      3.91141486      9.20628927      2.21243988      6.45708689
    O      9.21711402     13.35733568      2.26241946      6.46362495
    O     -1.18008969     13.35666118      6.36132910      6.46615066
    O     -1.17800641      1.68076400      6.36857931      6.46458518
    O      9.21482401      1.68006961      2.25543086      6.46251137
    O      2.27271460      5.29589623      4.30638792      6.41328701
    O      5.72991828      5.38781548      4.21086996      6.43811641
    O      5.72724577      9.63284037      4.22680528      6.44298317
    O      2.30858226      9.64764276      4.37956226      6.43864431
    O      7.54150154     12.94420895      4.40835321      6.43873353
    O      0.49446431     12.94386122      4.21699368      6.43896401
    O      0.49358688      2.10353523      4.21585685      6.43523372
    O      7.54218819      2.10387377      4.40925899      6.43927395
    O      1.80617584      7.53027077      2.72485124      6.43042323
    O      6.23741354      7.53196210      5.89609687      6.43531372