********************************************************************************
*                       GENERAL UTILITY LATTICE PROGRAM                        *
*                                 Julian Gale                                  *
*                       Curtin Institute for Computation                       *
*                    School of Molecular and Life Sciences                     *
*                    Curtin University, Western Australia                      *
********************************************************************************
* Version = 6.1.2 * Last modified =   3rd November 2022                        *
********************************************************************************
*  optimise     - perform optimisation run                                     *
*  conp         - constant pressure calculation                                *
*  property     - calculate properties for final geometry                      *
********************************************************************************

  Job Started  at 21:23.21  6th October    2025                               

  Number of CPUs =     1


  Total number of configurations input =      1

********************************************************************************
*  Input for Configuration =   1 : c00008.vasp                                 *
********************************************************************************

  Formula = Ge2Si10O24                                                  

  Number of irreducible atoms/shells =      60


  Total number atoms/shells =      60

  Dimensionality = 3               :  Bulk   



  Cartesian lattice vectors (Angstroms) :

        9.086940    0.000000    0.000000
        0.000000    7.554810    0.000000
       -3.295144    0.000000    9.944380

  Cell parameters (Angstroms/Degrees):

  a =       9.0869    alpha =  90.0000
  b =       7.5548    beta  = 108.3330
  c =      10.4761    gamma =  90.0000

  Initial cell volume =         682.682735 Angs**3

  Temperature of configuration =   0.00     K 

  Pressure of configuration =         0.000 GPa 

  Fractional coordinates of asymmetric unit :

--------------------------------------------------------------------------------
   No.  Atomic       x           y          z         Charge      Occupancy
        Label      (Frac)      (Frac)     (Frac)        (e)         (Frac)  
--------------------------------------------------------------------------------
      1 Ge    c    0.313820    0.296860    0.309830     4.00000    1.000000    
      2 Ge    c    0.879680 *  0.000000 *  0.350160 *   4.00000    1.000000    
      3 Si    c    0.686180 *  0.296860 *  0.690170 *   4.00000    1.000000    
      4 Si    c    0.686180 *  0.703140 *  0.690170 *   4.00000    1.000000    
      5 Si    c    0.313820 *  0.703140 *  0.309830 *   4.00000    1.000000    
      6 Si    c    0.331050 *  0.296920 *  0.607380 *   4.00000    1.000000    
      7 Si    c    0.668950 *  0.296920 *  0.392620 *   4.00000    1.000000    
      8 Si    c    0.668950 *  0.703080 *  0.392620 *   4.00000    1.000000    
      9 Si    c    0.331050 *  0.703080 *  0.607380 *   4.00000    1.000000    
     10 Si    c    0.120320 *  0.000000 *  0.649840 *   4.00000    1.000000    
     11 Si    c    0.093070 *  0.000000 *  0.158230 *   4.00000    1.000000    
     12 Si    c    0.906930 *  0.000000 *  0.841770 *   4.00000    1.000000    
     13 O3    c    0.268740 *  0.279030 *  0.446100 *   1.33043    1.000000    
     14 O2    c    0.731260 *  0.279030 *  0.553900 *   0.87073    1.000000    
     15 O2    c    0.731260 *  0.720970 *  0.553900 *   0.87073    1.000000    
     16 O2    c    0.268740 *  0.720970 *  0.446100 *   0.87073    1.000000    
     17 O3    c    0.295480 *  0.500000 *  0.260860 *   1.33043    1.000000    
     18 O2    c    0.704520 *  0.500000 *  0.739140 *   0.87073    1.000000    
     19 O3    c    0.490600 *  0.234690 *  0.337530 *   1.33043    1.000000    
     20 O2    c    0.509400 *  0.234690 *  0.662470 *   0.87073    1.000000    
     21 O2    c    0.509400 *  0.765310 *  0.662470 *   0.87073    1.000000    
     22 O2    c    0.490600 *  0.765310 *  0.337530 *   0.87073    1.000000    
     23 O3    c    0.200440 *  0.174000 *  0.194980 *   1.33043    1.000000    
     24 O2    c    0.799560 *  0.174000 *  0.805020 *   0.87073    1.000000    
     25 O2    c    0.799560 *  0.826000 *  0.805020 *   0.87073    1.000000    
     26 O2    c    0.200440 *  0.826000 *  0.194980 *   0.87073    1.000000    
     27 O2    c    0.317860 *  0.500000 *  0.649090 *   0.87073    1.000000    
     28 O2    c    0.682140 *  0.500000 *  0.350910 *   0.87073    1.000000    
     29 O2    c    0.227920 *  0.173870 *  0.671620 *   0.87073    1.000000    
     30 O3    c    0.772080 *  0.173870 *  0.328380 *   1.33043    1.000000    
     31 O3    c    0.772080 *  0.826130 *  0.328380 *   1.33043    1.000000    
     32 O2    c    0.227920 *  0.826130 *  0.671620 *   0.87073    1.000000    
     33 O3    c    0.000000 *  0.000000 *  0.500000 *   1.33043    1.000000    
     34 O3    c    0.971960 *  0.000000 *  0.241930 *   1.33043    1.000000    
     35 O2    c    0.028040 *  0.000000 *  0.758070 *   0.87073    1.000000    
     36 O2    c    0.000000 *  0.000000 *  0.000000 *   0.87073    1.000000    
     37 O3    s    0.268740 *  0.279030 *  0.446100 *  -3.33043    1.000000    
     38 O2    s    0.731260 *  0.279030 *  0.553900 *  -2.87073    1.000000    
     39 O2    s    0.731260 *  0.720970 *  0.553900 *  -2.87073    1.000000    
     40 O2    s    0.268740 *  0.720970 *  0.446100 *  -2.87073    1.000000    
     41 O3    s    0.295480 *  0.500000 *  0.260860 *  -3.33043    1.000000    
     42 O2    s    0.704520 *  0.500000 *  0.739140 *  -2.87073    1.000000    
     43 O3    s    0.490600 *  0.234690 *  0.337530 *  -3.33043    1.000000    
     44 O2    s    0.509400 *  0.234690 *  0.662470 *  -2.87073    1.000000    
     45 O2    s    0.509400 *  0.765310 *  0.662470 *  -2.87073    1.000000    
     46 O2    s    0.490600 *  0.765310 *  0.337530 *  -2.87073    1.000000    
     47 O3    s    0.200440 *  0.174000 *  0.194980 *  -3.33043    1.000000    
     48 O2    s    0.799560 *  0.174000 *  0.805020 *  -2.87073    1.000000    
     49 O2    s    0.799560 *  0.826000 *  0.805020 *  -2.87073    1.000000    
     50 O2    s    0.200440 *  0.826000 *  0.194980 *  -2.87073    1.000000    
     51 O2    s    0.317860 *  0.500000 *  0.649090 *  -2.87073    1.000000    
     52 O2    s    0.682140 *  0.500000 *  0.350910 *  -2.87073    1.000000    
     53 O2    s    0.227920 *  0.173870 *  0.671620 *  -2.87073    1.000000    
     54 O3    s    0.772080 *  0.173870 *  0.328380 *  -3.33043    1.000000    
     55 O3    s    0.772080 *  0.826130 *  0.328380 *  -3.33043    1.000000    
     56 O2    s    0.227920 *  0.826130 *  0.671620 *  -2.87073    1.000000    
     57 O3    s    0.000000 *  0.000000 *  0.500000 *  -3.33043    1.000000    
     58 O3    s    0.971960 *  0.000000 *  0.241930 *  -3.33043    1.000000    
     59 O2    s    0.028040 *  0.000000 *  0.758070 *  -2.87073    1.000000    
     60 O2    s    0.000000 *  0.000000 *  0.000000 *  -2.87073    1.000000    
--------------------------------------------------------------------------------



********************************************************************************
*  General input information                                                   *
********************************************************************************

  Species output for all configurations : 

--------------------------------------------------------------------------------
  Species    Type    Atomic    Atomic    Charge       Radii (Angs)     Library
                     Number     Mass       (e)     Cova   Ionic  VDW   Symbol
--------------------------------------------------------------------------------
    Ge       Core       32      72.61   4.000000   1.170  0.000  1.750 Ge       
    Si       Core       14      28.09   4.000000   1.200  0.000  2.100 Si       
    O1       Core        8      16.00   1.733957   0.730  0.000  0.000 O1       
    O2       Core        8      16.00   0.870733   0.730  0.000  1.360 O2       
    O3       Core        8      16.00   1.330431   0.730  0.000  1.360 O3       
    O1       Shell       8       0.00  -3.733957   0.730  0.000  0.000 O1       
    O2       Shell       8       0.00  -2.870733   0.730  0.000  0.000 O2       
    O3       Shell       8       0.00  -3.330431   0.730  0.000  0.000 O3       
--------------------------------------------------------------------------------


  Lattice summation method               =    Ewald          (3-D)
                                         =    Parry          (2-D)
                                         =    Saunders et al (1-D)
  Accuracy factor for lattice sums       =   12.000


  Analytic derivatives to be used

  Time limit = Infinity

  Maximum range for interatomic potentials =    100000.000000 Angstroms

  General interatomic potentials :

--------------------------------------------------------------------------------
Atom  Types   Potential      Parameter       Value         Units   Cutoffs(Ang)
  1     2                                                            Min /  Max 
--------------------------------------------------------------------------------
Si   c O1   s Buckingham    Buckingham A     1315.2478    eV        0.000 16.000
                            Buckingham rho  0.31775900    Ang       
                            Buckingham C     10.141118    eV*Ang^6  
--------------------------------------------------------------------------------
Si   c O2   s Buckingham    Buckingham A     1315.2478    eV        0.000 16.000
                            Buckingham rho  0.31775900    Ang       
                            Buckingham C     10.141118    eV*Ang^6  
--------------------------------------------------------------------------------
Si   c O3   s Buckingham    Buckingham A     1315.2478    eV        0.000 16.000
                            Buckingham rho  0.31775900    Ang       
                            Buckingham C     10.141118    eV*Ang^6  
--------------------------------------------------------------------------------
Ge   c O1   s Buckingham    Buckingham A     1497.3996    eV        0.000 16.000
                            Buckingham rho  0.32564600    Ang       
                            Buckingham C     16.808599    eV*Ang^6  
--------------------------------------------------------------------------------
Ge   c O2   s Buckingham    Buckingham A     1497.3996    eV        0.000 16.000
                            Buckingham rho  0.32564600    Ang       
                            Buckingham C     16.808599    eV*Ang^6  
--------------------------------------------------------------------------------
Ge   c O3   s Buckingham    Buckingham A     1497.3996    eV        0.000 16.000
                            Buckingham rho  0.32564600    Ang       
                            Buckingham C     16.808599    eV*Ang^6  
--------------------------------------------------------------------------------
O1   s O1   s Buckingham    Buckingham A     22764.000    eV        0.000 16.000
                            Buckingham rho  0.14900000    Ang       
                            Buckingham C     10.937044    eV*Ang^6  
--------------------------------------------------------------------------------
O1   s O2   s Buckingham    Buckingham A     22764.000    eV        0.000 16.000
                            Buckingham rho  0.14900000    Ang       
                            Buckingham C     10.937044    eV*Ang^6  
--------------------------------------------------------------------------------
O1   s O3   s Buckingham    Buckingham A     22764.000    eV        0.000 16.000
                            Buckingham rho  0.14900000    Ang       
                            Buckingham C     10.937044    eV*Ang^6  
--------------------------------------------------------------------------------
O2   s O2   s Buckingham    Buckingham A     22764.000    eV        0.000 16.000
                            Buckingham rho  0.14900000    Ang       
                            Buckingham C     10.937044    eV*Ang^6  
--------------------------------------------------------------------------------
O2   s O3   s Buckingham    Buckingham A     22764.000    eV        0.000 16.000
                            Buckingham rho  0.14900000    Ang       
                            Buckingham C     10.937044    eV*Ang^6  
--------------------------------------------------------------------------------
O3   s O3   s Buckingham    Buckingham A     22764.000    eV        0.000 16.000
                            Buckingham rho  0.14900000    Ang       
                            Buckingham C     10.937044    eV*Ang^6  
--------------------------------------------------------------------------------
O1   c O1   s Spring (c-s)  Spring k 2       180.31577    eV*Ang^-2 0.000  0.800
                            Spring k 4       0.0000000    eV*Ang^-4 
--------------------------------------------------------------------------------
O2   c O2   s Spring (c-s)  Spring k 2       75.969800    eV*Ang^-2 0.000  0.800
                            Spring k 4       0.0000000    eV*Ang^-4 
--------------------------------------------------------------------------------
O3   c O3   s Spring (c-s)  Spring k 2       128.14270    eV*Ang^-2 0.000  0.800
                            Spring k 4       0.0000000    eV*Ang^-4 
--------------------------------------------------------------------------------

  General Three-body potentials :

--------------------------------------------------------------------------------
  Atoms       Potential      Parameter       Value         Units   Cutoffs(Ang)
  1 / 2 / 3                                                          Min /  Max 
--------------------------------------------------------------------------------
Si    core    Harmonic      Three-body cnst  1.2614000    eV*rad^-2 0.000  1.900
O1    shel                  Three-body angl  109.47000    degrees   0.000  1.900
O1    shel                  Three-body k4    0.0000000    eV*rad^-4 0.000  3.500
                            Three-body k3    0.0000000    eV*rad^-3 
--------------------------------------------------------------------------------
Si    core    Harmonic      Three-body cnst  1.2614000    eV*rad^-2 0.000  1.900
O1    shel                  Three-body angl  109.47000    degrees   0.000  1.900
õ(1   shel                  Three-body k4    0.0000000    eV*rad^-4 0.000  3.500
                            Three-body k3    0.0000000    eV*rad^-3 
--------------------------------------------------------------------------------
Si    core    Harmonic      Three-body cnst  1.2614000    eV*rad^-2 0.000  1.900
õ(1   shel                  Three-body angl  109.47000    degrees   0.000  1.900
õ(1   shel                  Three-body k4    0.0000000    eV*rad^-4 0.000  3.500
                            Three-body k3    0.0000000    eV*rad^-3 
--------------------------------------------------------------------------------
Si    core    Harmonic      Three-body cnst  1.2614000    eV*rad^-2 0.000  1.900
O1    shel                  Three-body angl  109.47000    degrees   0.000  1.900
O2    shel                  Three-body k4    0.0000000    eV*rad^-4 0.000  3.500
                            Three-body k3    0.0000000    eV*rad^-3 
--------------------------------------------------------------------------------
Si    core    Harmonic      Three-body cnst  1.2614000    eV*rad^-2 0.000  1.900
O1    shel                  Three-body angl  109.47000    degrees   0.000  1.900
õ(2   shel                  Three-body k4    0.0000000    eV*rad^-4 0.000  3.500
                            Three-body k3    0.0000000    eV*rad^-3 
--------------------------------------------------------------------------------
Si    core    Harmonic      Three-body cnst  1.2614000    eV*rad^-2 0.000  1.900
O2    shel                  Three-body angl  109.47000    degrees   0.000  1.900
õ(1   shel                  Three-body k4    0.0000000    eV*rad^-4 0.000  3.500
                            Three-body k3    0.0000000    eV*rad^-3 
--------------------------------------------------------------------------------
Si    core    Harmonic      Three-body cnst  1.2614000    eV*rad^-2 0.000  1.900
õ(1   shel                  Three-body angl  109.47000    degrees   0.000  1.900
õ(2   shel                  Three-body k4    0.0000000    eV*rad^-4 0.000  3.500
                            Three-body k3    0.0000000    eV*rad^-3 
--------------------------------------------------------------------------------
Si    core    Harmonic      Three-body cnst  1.2614000    eV*rad^-2 0.000  1.900
O2    shel                  Three-body angl  109.47000    degrees   0.000  1.900
O2    shel                  Three-body k4    0.0000000    eV*rad^-4 0.000  3.500
                            Three-body k3    0.0000000    eV*rad^-3 
--------------------------------------------------------------------------------
Si    core    Harmonic      Three-body cnst  1.2614000    eV*rad^-2 0.000  1.900
O2    shel                  Three-body angl  109.47000    degrees   0.000  1.900
õ(2   shel                  Three-body k4    0.0000000    eV*rad^-4 0.000  3.500
                            Three-body k3    0.0000000    eV*rad^-3 
--------------------------------------------------------------------------------
Si    core    Harmonic      Three-body cnst  1.2614000    eV*rad^-2 0.000  1.900
õ(2   shel                  Three-body angl  109.47000    degrees   0.000  1.900
õ(2   shel                  Three-body k4    0.0000000    eV*rad^-4 0.000  3.500
                            Three-body k3    0.0000000    eV*rad^-3 
--------------------------------------------------------------------------------

********************************************************************************
*  Output for configuration   1 : c00008.vasp                                  *
********************************************************************************


  Components of energy : 

--------------------------------------------------------------------------------
  Interatomic potentials     =         384.28513324 eV    
  Three-body potentials      =           0.00009984 eV    
  Monopole - monopole (real) =       -1236.99964305 eV    
  Monopole - monopole (recip)=        -659.26603192 eV    
  Monopole - monopole (total)=       -1896.26567496 eV    
--------------------------------------------------------------------------------
  Total lattice energy       =       -1511.98044189 eV    
--------------------------------------------------------------------------------
  Total lattice energy       =         -145882.9999 kJ/(mole unit cells)
--------------------------------------------------------------------------------


  Number of variables =      183

  Maximum number of calculations  =          1000
  Maximum Hessian update interval =            10
  Maximum step size               =   0.100000000
  Maximum parameter tolerance     =   0.000010000
  Maximum function  tolerance     =   0.000010000
  Maximum gradient  tolerance     =   0.001000000
  Maximum gradient  component     =   0.010000000

  Symmetry not applied to optimisation

  Cell parameters to be optimised using strains

  Newton-Raphson optimiser to be used

  BFGS hessian update to be used

  Lower half triangular hessian to be used

  Minimiser to switch to RFO
  When gradient norm is less than     0.050000

  Dumpfile to be written after every cycle

  Start of bulk optimisation :

  Cycle:      0 Energy:     -1511.980442  Gnorm:      5.130837  CPU:    0.028
  ** Hessian calculated **
  Cycle:      1 Energy:     -1527.080374  Gnorm:      1.257772  CPU:    0.061
  ** Hessian calculated **
  Cycle:      2 Energy:     -1529.162838  Gnorm:      0.759775  CPU:    0.121
  ** Hessian calculated **
  Cycle:      3 Energy:     -1529.686041  Gnorm:      0.420617  CPU:    0.175
  Cycle:      4 Energy:     -1529.903680  Gnorm:      0.257072  CPU:    0.209
  Cycle:      5 Energy:     -1530.064860  Gnorm:      0.199312  CPU:    0.249
  Cycle:      6 Energy:     -1530.202251  Gnorm:      0.160689  CPU:    0.289
  Cycle:      7 Energy:     -1530.285043  Gnorm:      0.127991  CPU:    0.323
  Cycle:      8 Energy:     -1530.340066  Gnorm:      0.099403  CPU:    0.357
  Cycle:      9 Energy:     -1530.369360  Gnorm:      0.078404  CPU:    0.390
  Cycle:     10 Energy:     -1530.385344  Gnorm:      0.060754  CPU:    0.424
  Cycle:     11 Energy:     -1530.395925  Gnorm:      0.053037  CPU:    0.458
  Cycle:     12 Energy:     -1530.407237  Gnorm:      0.054208  CPU:    0.499
  ** Hessian calculated **
  Cycle:     13 Energy:     -1530.415897  Gnorm:      0.053300  CPU:    0.559
  Cycle:     14 Energy:     -1530.430398  Gnorm:      0.051726  CPU:    0.606
  Cycle:     15 Energy:     -1530.452624  Gnorm:      0.049162  CPU:    0.653
  ** Hessian has wrong structure
  ** Imaginary eigenvectors =   2
  Cycle:     16 Energy:     -1530.455962  Gnorm:      0.063512  CPU:    0.743
  ** Hessian has wrong structure
  ** Imaginary eigenvectors =   2
  Cycle:     17 Energy:     -1530.467391  Gnorm:      0.063971  CPU:    0.879
  ** Hessian has wrong structure
  ** Imaginary eigenvectors =   2
  Cycle:     18 Energy:     -1530.486725  Gnorm:      0.068046  CPU:    1.004
  ** Hessian has wrong structure
  ** Imaginary eigenvectors =   1
  ** Hessian has wrong structure
  ** Imaginary eigenvectors =   1
  Cycle:     19 Energy:     -1530.499847  Gnorm:      0.073351  CPU:    1.154
  ** Hessian has wrong structure
  ** Imaginary eigenvectors =   1
  ** Hessian has required structure
  Cycle:     20 Energy:     -1530.612931  Gnorm:      0.053493  CPU:    1.291
  ** Hessian has required structure
  Cycle:     21 Energy:     -1530.682980  Gnorm:      0.034885  CPU:    1.338
  ** Hessian has required structure
  Cycle:     22 Energy:     -1530.703297  Gnorm:      0.027235  CPU:    1.378
  ** Hessian has required structure
  Cycle:     23 Energy:     -1530.717563  Gnorm:      0.020530  CPU:    1.418
  ** Hessian has required structure
  Cycle:     24 Energy:     -1530.724864  Gnorm:      0.016017  CPU:    1.459
  ** Hessian has required structure
  Cycle:     25 Energy:     -1530.730735  Gnorm:      0.015291  CPU:    1.505
  ** Hessian has required structure
  Cycle:     26 Energy:     -1530.734816  Gnorm:      0.009976  CPU:    1.545
  ** Hessian has required structure
  Cycle:     27 Energy:     -1530.737707  Gnorm:      0.010579  CPU:    1.591
  ** Hessian has required structure
  Cycle:     28 Energy:     -1530.739812  Gnorm:      0.006086  CPU:    1.638
  ** Hessian has required structure
  Cycle:     29 Energy:     -1530.740873  Gnorm:      0.006648  CPU:    1.678
  ** Hessian has required structure
  Cycle:     30 Energy:     -1530.742109  Gnorm:      0.003965  CPU:    1.744
  ** Hessian has required structure
  Cycle:     31 Energy:     -1530.742553  Gnorm:      0.002684  CPU:    1.791
  ** Hessian has required structure
  Cycle:     32 Energy:     -1530.742748  Gnorm:      0.001534  CPU:    1.839
  ** Hessian has required structure
  Cycle:     33 Energy:     -1530.742825  Gnorm:      0.000955  CPU:    1.886
  ** Hessian has required structure
  Cycle:     34 Energy:     -1530.742849  Gnorm:      0.000555  CPU:    1.926
  ** Hessian has required structure
  Cycle:     35 Energy:     -1530.742856  Gnorm:      0.000462  CPU:    1.960
  ** Hessian has required structure


  **** Optimisation achieved ****


  Final energy =   -1530.74286538 eV      
  Final Gnorm  =       0.00014721

  Components of energy : 

--------------------------------------------------------------------------------
  Interatomic potentials     =         406.12259128 eV    
  Three-body potentials      =           0.08990638 eV    
  Monopole - monopole (real) =        -925.69582866 eV    
  Monopole - monopole (recip)=       -1011.25953437 eV    
  Monopole - monopole (total)=       -1936.95536303 eV    
--------------------------------------------------------------------------------
  Total lattice energy       =       -1530.74286538 eV    
--------------------------------------------------------------------------------
  Total lattice energy       =         -147693.2870 kJ/(mole unit cells)
--------------------------------------------------------------------------------

  Final fractional coordinates of atoms :

--------------------------------------------------------------------------------
   No.  Atomic        x           y          z          Radius
        Label       (Frac)      (Frac)     (Frac)       (Angs) 
--------------------------------------------------------------------------------
     1  Ge    c     0.313820    0.296860    0.309830    0.000000
     2  Ge    c     0.906328    0.958685    0.353075    0.000000
     3  Si    c     0.714843    0.243438    0.705003    0.000000
     4  Si    c     0.735969    0.646565    0.716711    0.000000
     5  Si    c     0.349200    0.699672    0.327285    0.000000
     6  Si    c     0.356068    0.278527    0.632094    0.000000
     7  Si    c     0.678716    0.252708    0.394595    0.000000
     8  Si    c     0.704042    0.657930    0.407209    0.000000
     9  Si    c     0.380743    0.673499    0.643077    0.000000
    10  Si    c     0.160398    0.974267    0.658683    0.000000
    11  Si    c     0.108552    0.992021    0.162058    0.000000
    12  Si    c     0.948773    0.945649    0.846899    0.000000
    13  O3    c     0.299840    0.256064    0.469461    0.000000
    14  O2    c     0.722012    0.196583    0.555460    0.000000
    15  O2    c     0.745865    0.699200    0.568617    0.000000
    16  O2    c     0.344286    0.703548    0.481469    0.000000
    17  O3    c     0.282218    0.516758    0.264214    0.000000
    18  O2    c     0.773362    0.439802    0.747343    0.000000
    19  O3    c     0.497415    0.233159    0.314249    0.000000
    20  O2    c     0.538331    0.226008    0.700370    0.000000
    21  O2    c     0.564816    0.693333    0.721868    0.000000
    22  O2    c     0.525293    0.717327    0.328912    0.000000
    23  O3    c     0.168094    0.187973    0.190936    0.000000
    24  O2    c     0.823604    0.106398    0.816171    0.000000
    25  O2    c     0.861502    0.760996    0.828034    0.000000
    26  O2    c     0.254554    0.865934    0.244734    0.000000
    27  O2    c     0.329267    0.478910    0.668961    0.000000
    28  O2    c     0.725975    0.453050    0.386002    0.000000
    29  O2    c     0.255695    0.153776    0.694833    0.000000
    30  O3    c     0.776300    0.131628    0.329117    0.000000
    31  O3    c     0.816970    0.761637    0.349594    0.000000
    32  O2    c     0.283501    0.810675    0.699693    0.000000
    33  O3    c     0.065722    0.974735    0.497931    0.000000
    34  O3    c     0.963789    0.958796    0.210797    0.000000
    35  O2    c     0.047623    0.961175    0.746222    0.000000
    36  O2    c     0.063360    0.953056    0.001546    0.000000
    37  O3    s     0.306692    0.261685    0.472804    0.000000
    38  O2    s     0.716898    0.207180    0.554852    0.000000
    39  O2    s     0.740449    0.689374    0.567570    0.000000
    40  O2    s     0.348913    0.699776    0.482754    0.000000
    41  O3    s     0.291425    0.517785    0.274149    0.000000
    42  O2    s     0.763195    0.441207    0.739624    0.000000
    43  O3    s     0.500718    0.240370    0.322005    0.000000
    44  O2    s     0.538226    0.233595    0.693593    0.000000
    45  O2    s     0.563308    0.686202    0.712918    0.000000
    46  O2    s     0.525628    0.709114    0.337118    0.000000
    47  O3    s     0.174388    0.177658    0.198035    0.000000
    48  O2    s     0.824823    0.104551    0.807036    0.000000
    49  O2    s     0.856936    0.767930    0.817779    0.000000
    50  O2    s     0.249824    0.860273    0.245481    0.000000
    51  O2    s     0.337567    0.478329    0.662365    0.000000
    52  O2    s     0.718467    0.454078    0.389299    0.000000
    53  O2    s     0.256538    0.148466    0.684326    0.000000
    54  O3    s     0.776828    0.130011    0.338180    0.000000
    55  O3    s     0.812175    0.766741    0.356135    0.000000
    56  O2    s     0.281405    0.812586    0.689026    0.000000
    57  O3    s     0.061654    0.973286    0.501961    0.000000
    58  O3    s     0.973948    0.962217    0.217591    0.000000
    59  O2    s     0.049491    0.960945    0.747398    0.000000
    60  O2    s     0.055111    0.956567    0.001556    0.000000
--------------------------------------------------------------------------------

  Final Cartesian lattice vectors (Angstroms) :

        9.132787    0.094708   -0.080058
        0.079413    7.639691    0.074689
       -3.399920    0.061883    9.749289


  Final cell parameters and derivatives :

--------------------------------------------------------------------------------
       a            9.133629 Angstrom     dE/de1(xx)     0.009885 eV/strain
       b            7.640469 Angstrom     dE/de2(yy)     0.009604 eV/strain
       c           10.325305 Angstrom     dE/de3(zz)     0.009392 eV/strain
       alpha       89.323874 Degrees      dE/de4(yz)     0.000554 eV/strain
       beta       109.722443 Degrees      dE/de5(xz)     0.000405 eV/strain
       gamma       88.815311 Degrees      dE/de6(xy)     0.000285 eV/strain
--------------------------------------------------------------------------------

  Primitive cell volume =           678.004848 Angs**3

  Density of cell =      1.984141 g/cm**3

  Non-primitive cell volume =           678.004848 Angs**3


  Final internal derivatives :

--------------------------------------------------------------------------------
   No.  Atomic          a             b             c           Radius
        Label          (eV)          (eV)          (eV)        (eV/Angs)
--------------------------------------------------------------------------------
      1 Ge    c       0.000000      0.000000      0.000000      0.000000
      2 Ge    c      -0.000283     -0.000249     -0.000078      0.000000
      3 Si    c       0.000571      0.000133      0.001234      0.000000
      4 Si    c      -0.000282     -0.000801     -0.000211      0.000000
      5 Si    c      -0.002219      0.002661      0.001773      0.000000
      6 Si    c       0.000056     -0.000859      0.002523      0.000000
      7 Si    c       0.003977     -0.001244      0.000598      0.000000
      8 Si    c       0.001703      0.001483      0.000912      0.000000
      9 Si    c       0.000578      0.000145      0.001373      0.000000
     10 Si    c       0.000177     -0.000276      0.000165      0.000000
     11 Si    c       0.000199     -0.000129     -0.000861      0.000000
     12 Si    c      -0.000209      0.000093      0.000209      0.000000
     13 O3    c      -0.001919     -0.000898     -0.002867      0.000000
     14 O2    c       0.001189     -0.000787     -0.000185      0.000000
     15 O2    c      -0.000039      0.000387      0.002062      0.000000
     16 O2    c      -0.001733     -0.000673      0.002286      0.000000
     17 O3    c      -0.001808     -0.005345     -0.007323      0.000000
     18 O2    c       0.000449      0.001830      0.000384      0.000000
     19 O3    c      -0.003135     -0.004103     -0.002962      0.000000
     20 O2    c      -0.001016     -0.000617      0.000673      0.000000
     21 O2    c       0.000487      0.000366      0.000334      0.000000
     22 O2    c       0.003772      0.002955     -0.002724      0.000000
     23 O3    c       0.000431      0.000573      0.000366      0.000000
     24 O2    c      -0.000196      0.000222     -0.000372      0.000000
     25 O2    c      -0.000061     -0.000048      0.000022      0.000000
     26 O2    c       0.000235      0.000865     -0.000796      0.000000
     27 O2    c      -0.001424      0.001353      0.002152      0.000000
     28 O2    c       0.002022      0.000856     -0.002949      0.000000
     29 O2    c       0.000283      0.000338     -0.000218      0.000000
     30 O3    c      -0.000343      0.000258     -0.000528      0.000000
     31 O3    c      -0.000445     -0.000349      0.000219      0.000000
     32 O2    c      -0.000180      0.000175      0.000087      0.000000
     33 O3    c       0.000401     -0.000040     -0.000027      0.000000
     34 O3    c      -0.001203     -0.000235      0.000737      0.000000
     35 O2    c       0.000006     -0.000002     -0.000256      0.000000
     36 O2    c       0.000157     -0.000271      0.000054      0.000000
     37 O3    s      -0.001645     -0.000289      0.000776      0.000000
     38 O2    s       0.002380     -0.002669      0.000626      0.000000
     39 O2    s       0.002187      0.001632      0.001310      0.000000
     40 O2    s      -0.004115      0.002144      0.003427      0.000000
     41 O3    s      -0.000477     -0.000544     -0.001698      0.000000
     42 O2    s       0.001393      0.000149      0.001751      0.000000
     43 O3    s      -0.000086     -0.001184     -0.001711      0.000000
     44 O2    s      -0.000346     -0.002230      0.002418      0.000000
     45 O2    s       0.000162      0.001230      0.002537      0.000000
     46 O2    s       0.001807      0.003398     -0.004004      0.000000
     47 O3    s      -0.000461     -0.000063     -0.000561      0.000000
     48 O2    s       0.000418     -0.000628      0.000894      0.000000
     49 O2    s       0.000234      0.000085      0.000265      0.000000
     50 O2    s      -0.000857      0.002377     -0.000148      0.000000
     51 O2    s      -0.002465     -0.000229      0.002942      0.000000
     52 O2    s       0.002919      0.000157     -0.003429      0.000000
     53 O2    s      -0.000955     -0.000776      0.001208      0.000000
     54 O3    s       0.002213     -0.001267     -0.000706      0.000000
     55 O3    s       0.001754      0.000976     -0.001058      0.000000
     56 O2    s      -0.000616      0.000546      0.000560      0.000000
     57 O3    s      -0.000263      0.000140      0.000179      0.000000
     58 O3    s      -0.000287      0.000197     -0.000078      0.000000
     59 O2    s       0.000141     -0.000001     -0.000255      0.000000
     60 O2    s       0.000064      0.000286     -0.000630      0.000000
--------------------------------------------------------------------------------
  Maximum abs         0.004115      0.005345      0.007323      0.000000
--------------------------------------------------------------------------------


  Born effective charge tensors : 

-------------------------------------------------------------------------------
  Atom             x           y             z
-------------------------------------------------------------------------------
    1 Ge    x       3.7921      0.1727      0.2050
            y       0.3637      4.1879      0.2730
            z       0.2833      0.1676      3.5869
-------------------------------------------------------------------------------
    2 Ge    x       4.5129      0.1137     -0.1858
            y      -0.0600      3.9438     -0.0654
            z      -0.2522      0.0236      3.6977
-------------------------------------------------------------------------------
    3 Si    x       3.1169     -0.2728      0.2018
            y      -0.1256      3.4641     -0.2027
            z       0.1777     -0.1369      2.8352
-------------------------------------------------------------------------------
    4 Si    x       3.1364      0.2118      0.1616
            y       0.2277      3.4571      0.2682
            z       0.2033      0.1158      2.8303
-------------------------------------------------------------------------------
    5 Si    x       3.1386     -0.1877      0.1403
            y      -0.0329      3.7364      0.0502
            z       0.2118     -0.1514      2.9854
-------------------------------------------------------------------------------
    6 Si    x       3.3447      0.2747     -0.0146
            y       0.3076      3.4896      0.0073
            z       0.0580      0.0159      2.9990
-------------------------------------------------------------------------------
    7 Si    x       3.8122     -0.3954     -0.0235
            y      -0.3655      3.6148      0.2680
            z       0.0468      0.0936      2.9395
-------------------------------------------------------------------------------
    8 Si    x       3.6014      0.3449     -0.1617
            y       0.4872      3.4831     -0.1777
            z      -0.1269     -0.0563      2.7988
-------------------------------------------------------------------------------
    9 Si    x       3.2895     -0.3045     -0.0088
            y      -0.2048      3.3854      0.0478
            z       0.0070      0.0180      2.6834
-------------------------------------------------------------------------------
   10 Si    x       3.8107      0.0716      0.1967
            y      -0.0474      3.3133     -0.0048
            z      -0.3570     -0.0229      3.2058
-------------------------------------------------------------------------------
   11 Si    x       3.6716      0.3910      0.1474
            y       0.0162      3.5316     -0.0473
            z      -0.1489      0.2701      4.1297
-------------------------------------------------------------------------------
   12 Si    x       3.3138      0.1099     -0.1339
            y      -0.0428      3.2693      0.0033
            z       0.3594      0.0714      3.8039
-------------------------------------------------------------------------------
   13 O3    x      -1.3953     -0.1338      0.2724
            y      -0.1390     -1.4050     -0.0531
            z       0.2542     -0.0028     -2.5957
-------------------------------------------------------------------------------
   14 O2    x      -1.2544      0.1157      0.2464
            y       0.0911     -1.3178      0.0450
            z       0.2065      0.0541     -1.9774
-------------------------------------------------------------------------------
   15 O2    x      -1.2520     -0.1148      0.2162
            y      -0.1234     -1.2872     -0.0296
            z       0.2019     -0.0269     -1.9900
-------------------------------------------------------------------------------
   16 O2    x      -1.2614      0.0883      0.2410
            y       0.0562     -1.2497      0.0846
            z       0.2550      0.1091     -2.0530
-------------------------------------------------------------------------------
   17 O3    x      -1.2681     -0.1470     -0.1211
            y      -0.2152     -3.0960     -0.1994
            z      -0.1494     -0.1929     -1.3411
-------------------------------------------------------------------------------
   18 O2    x      -1.1365     -0.0364     -0.0813
            y      -0.0836     -2.5775     -0.0664
            z      -0.0920     -0.0247     -1.0881
-------------------------------------------------------------------------------
   19 O3    x      -2.8347      0.1044     -0.5093
            y       0.0261     -1.3937     -0.0849
            z      -0.5197     -0.0386     -1.3687
-------------------------------------------------------------------------------
   20 O2    x      -2.3737      0.0822     -0.2742
            y       0.0379     -1.2636      0.0603
            z      -0.2940      0.0601     -1.0879
-------------------------------------------------------------------------------
   21 O2    x      -2.3270      0.0784     -0.2865
            y       0.0507     -1.2355     -0.0549
            z      -0.3203     -0.0297     -1.1378
-------------------------------------------------------------------------------
   22 O2    x      -2.2628      0.1336     -0.2836
            y       0.0831     -1.2568      0.0831
            z      -0.3205      0.0962     -1.1693
-------------------------------------------------------------------------------
   23 O3    x      -1.6179     -0.6910     -0.4721
            y      -0.6633     -2.5821     -0.6467
            z      -0.4668     -0.6803     -1.8227
-------------------------------------------------------------------------------
   24 O2    x      -1.5381      0.6135     -0.3389
            y       0.6124     -1.9599      0.5055
            z      -0.3889      0.4836     -1.5181
-------------------------------------------------------------------------------
   25 O2    x      -1.4933     -0.6238     -0.3264
            y      -0.5930     -2.0165     -0.4757
            z      -0.4037     -0.4882     -1.5115
-------------------------------------------------------------------------------
   26 O2    x      -1.5224      0.5130     -0.4451
            y       0.5417     -1.8970      0.5436
            z      -0.4252      0.5291     -1.6185
-------------------------------------------------------------------------------
   27 O2    x      -1.2453     -0.0580      0.0415
            y      -0.1037     -2.4880     -0.0331
            z       0.0456     -0.0118     -1.0198
-------------------------------------------------------------------------------
   28 O2    x      -1.2341     -0.0285      0.0405
            y      -0.0669     -2.4796     -0.0612
            z       0.0398     -0.0381     -1.0363
-------------------------------------------------------------------------------
   29 O2    x      -1.8319     -0.7740      0.0956
            y      -0.7173     -2.0253      0.0764
            z       0.1591      0.0776     -1.0911
-------------------------------------------------------------------------------
   30 O3    x      -2.3537      1.0544      0.3372
            y       1.0513     -2.2945     -0.2663
            z       0.3273     -0.2504     -1.3056
-------------------------------------------------------------------------------
   31 O3    x      -2.3965     -1.0739      0.3598
            y      -1.0285     -2.3277      0.2763
            z       0.3407      0.2325     -1.2584
-------------------------------------------------------------------------------
   32 O2    x      -1.8780      0.7851      0.0898
            y       0.7627     -1.9675     -0.0847
            z       0.1672     -0.0973     -1.0890
-------------------------------------------------------------------------------
   33 O3    x      -1.8256     -0.0637     -0.7640
            y      -0.0152     -1.2738     -0.0628
            z      -0.4521     -0.0608     -2.5681
-------------------------------------------------------------------------------
   34 O3    x      -2.7375     -0.1859      0.9173
            y      -0.0699     -1.2320      0.0827
            z       0.9242      0.0608     -2.1153
-------------------------------------------------------------------------------
   35 O2    x      -2.3301     -0.1153      0.7507
            y      -0.0371     -1.1304      0.0396
            z       0.7357      0.0601     -1.6663
-------------------------------------------------------------------------------
   36 O2    x      -1.1703     -0.0526     -0.2306
            y       0.0195     -1.1195     -0.0982
            z      -0.2869     -0.2293     -3.0658
-------------------------------------------------------------------------------




  Elastic Constant Matrix: (Units=GPa)

-------------------------------------------------------------------------------
  Indices      1         2         3         4         5         6    
-------------------------------------------------------------------------------
       1     62.5033   37.1507   12.4687    1.9859   -0.8758   15.8859
       2     37.1507   79.8207   14.0444    4.3595    2.2292   19.8380
       3     12.4687   14.0444   28.4198    6.8094    6.6503    9.2489
       4      1.9859    4.3595    6.8094   13.9635    2.7662    7.3292
       5     -0.8758    2.2292    6.6503    2.7662   10.8001    4.9803
       6     15.8859   19.8380    9.2489    7.3292    4.9803   27.9652
-------------------------------------------------------------------------------


  Elastic Compliance Matrix: (Units=1/GPa)

-------------------------------------------------------------------------------
  Indices      1         2         3         4         5         6    
-------------------------------------------------------------------------------
       1    0.024915 -0.008642 -0.007683  0.005334  0.011267 -0.008886
       2   -0.008642  0.019039 -0.003498  0.000929  0.000903 -0.007844
       3   -0.007683 -0.003498  0.050798 -0.016920 -0.026476 -0.000805
       4    0.005334  0.000929 -0.016920  0.090555 -0.002690 -0.021347
       5    0.011267  0.000903 -0.026476 -0.002690  0.118964 -0.018765
       6   -0.008886 -0.007844 -0.000805 -0.021347 -0.018765  0.055574
-------------------------------------------------------------------------------

  Mechanical properties :

-------------------------------------------------------------------------------
  Convention :                    Reuss         Voigt         Hill
-------------------------------------------------------------------------------
  Bulk  Modulus (GPa)     =      18.14694      33.11905      25.63299
  Shear Modulus (GPa)     =      11.96571      17.68444      14.82508
-------------------------------------------------------------------------------
  Velocity S-wave (km/s)  =       2.45574       2.98545       2.73346
  Velocity P-wave (km/s)  =       4.14571       5.34563       4.78344
-------------------------------------------------------------------------------
  Compressibility (1/GPa) =    0.05510570
-------------------------------------------------------------------------------
  Stress axis :                     x             y             z
-------------------------------------------------------------------------------
  Youngs Moduli (GPa)     =      40.13583      52.52269      19.68593
-------------------------------------------------------------------------------
  Poissons Ratio (x)      =                     0.45389       0.15125
  Poissons Ratio (y)      =       0.34685                     0.06887
  Poissons Ratio (z)      =       0.30837       0.18375
-------------------------------------------------------------------------------


  Piezoelectric Strain Matrix: (Units=C/m**2)

-------------------------------------------------------------------------------
  Indices      1         2         3         4         5         6    
-------------------------------------------------------------------------------
       x     0.12799   0.16689   1.35898  -0.21519   0.27116  -0.27916
       y    -0.27571   0.07813  -0.80562   0.23848  -0.55420   0.01171
       z    -0.16885   0.79611   0.15576  -0.45604   1.07241  -0.08037
-------------------------------------------------------------------------------


  Piezoelectric Stress Matrix: (Units=10**-11 C/N)

-------------------------------------------------------------------------------
  Indices      1         2         3         4         5         6    
-------------------------------------------------------------------------------
       x    -0.43063  -0.04483   6.41523  -3.64126   0.36886  -1.95489
       y    -0.64312   0.63180  -2.84501   3.50692  -4.84975   0.84451
       z    -0.19190   1.72466  -1.41877  -4.52616  12.50049  -1.97255
-------------------------------------------------------------------------------


  Static dielectric constant tensor : 

-------------------------------------------------------------------------------
              x         y         z
-------------------------------------------------------------------------------
       x     4.21507   0.04404   0.06167
       y     0.04404   4.36887   0.05763
       z     0.06167   0.05763   3.24525
--------------------------------------------------------------------------------

  High frequency dielectric constant tensor : 

-------------------------------------------------------------------------------
              x         y         z
-------------------------------------------------------------------------------
       x     1.66146   0.00274   0.00826
       y     0.00274   1.67156   0.00187
       z     0.00826   0.00187   1.60830
-------------------------------------------------------------------------------

  Static refractive indices : 

-------------------------------------------------------------------------------
    1 =    1.79964      2 =    2.05070      3 =    2.09407
-------------------------------------------------------------------------------

  High frequency refractive indices : 

-------------------------------------------------------------------------------
    1 =    1.26768      2 =    1.28911      3 =    1.29325
-------------------------------------------------------------------------------


  Time to end of optimisation =       2.0550 seconds


  Peak dynamic memory used =       2.76 MB 


  Timing analysis for GULP :

--------------------------------------------------------------------------------
  Task / Subroutine                                          Time (Seconds)
--------------------------------------------------------------------------------
  Calculation of reciprocal space energy and derivatives          0.1397
  Calculation of real space energy and derivatives                1.6782
  Calculation of three-body energy and derivatives                0.0769
  Calculation and manipulation of Hessian matrix                  0.3904
  Calculation of matrix inversion                                 0.0026
--------------------------------------------------------------------------------
  Total CPU time                                                  2.0550
--------------------------------------------------------------------------------


  Dump file written as c00008.vasp.grs
  CIF file written as c00008.vasp.cif


  Job Finished at 21:23.24  6th October    2025                               

