********************************************************************************
*                       GENERAL UTILITY LATTICE PROGRAM                        *
*                                 Julian Gale                                  *
*                       Curtin Institute for Computation                       *
*                    School of Molecular and Life Sciences                     *
*                    Curtin University, Western Australia                      *
********************************************************************************
* Version = 6.1.2 * Last modified =   3rd November 2022                        *
********************************************************************************
*  optimise     - perform optimisation run                                     *
*  conp         - constant pressure calculation                                *
*  property     - calculate properties for final geometry                      *
********************************************************************************

  Job Started  at 21:23.59  6th October    2025                               

  Number of CPUs =     1


  Total number of configurations input =      1

********************************************************************************
*  Input for Configuration =   1 : c00022.vasp                                 *
********************************************************************************

  Formula = Ge2Si10O24                                                  

  Number of irreducible atoms/shells =      60


  Total number atoms/shells =      60

  Dimensionality = 3               :  Bulk   



  Cartesian lattice vectors (Angstroms) :

        9.086940    0.000000    0.000000
        0.000000    7.554810    0.000000
       -3.295144    0.000000    9.944380

  Cell parameters (Angstroms/Degrees):

  a =       9.0869    alpha =  90.0000
  b =       7.5548    beta  = 108.3330
  c =      10.4761    gamma =  90.0000

  Initial cell volume =         682.682735 Angs**3

  Temperature of configuration =   0.00     K 

  Pressure of configuration =         0.000 GPa 

  Fractional coordinates of asymmetric unit :

--------------------------------------------------------------------------------
   No.  Atomic       x           y          z         Charge      Occupancy
        Label      (Frac)      (Frac)     (Frac)        (e)         (Frac)  
--------------------------------------------------------------------------------
      1 Ge    c    0.093070    0.000000    0.158230     4.00000    1.000000    
      2 Ge    c    0.906930 *  0.000000 *  0.841770 *   4.00000    1.000000    
      3 Si    c    0.313820 *  0.296860 *  0.309830 *   4.00000    1.000000    
      4 Si    c    0.686180 *  0.296860 *  0.690170 *   4.00000    1.000000    
      5 Si    c    0.686180 *  0.703140 *  0.690170 *   4.00000    1.000000    
      6 Si    c    0.313820 *  0.703140 *  0.309830 *   4.00000    1.000000    
      7 Si    c    0.331050 *  0.296920 *  0.607380 *   4.00000    1.000000    
      8 Si    c    0.668950 *  0.296920 *  0.392620 *   4.00000    1.000000    
      9 Si    c    0.668950 *  0.703080 *  0.392620 *   4.00000    1.000000    
     10 Si    c    0.331050 *  0.703080 *  0.607380 *   4.00000    1.000000    
     11 Si    c    0.879680 *  0.000000 *  0.350160 *   4.00000    1.000000    
     12 Si    c    0.120320 *  0.000000 *  0.649840 *   4.00000    1.000000    
     13 O2    c    0.268740 *  0.279030 *  0.446100 *   0.87073    1.000000    
     14 O2    c    0.731260 *  0.279030 *  0.553900 *   0.87073    1.000000    
     15 O2    c    0.731260 *  0.720970 *  0.553900 *   0.87073    1.000000    
     16 O2    c    0.268740 *  0.720970 *  0.446100 *   0.87073    1.000000    
     17 O2    c    0.295480 *  0.500000 *  0.260860 *   0.87073    1.000000    
     18 O2    c    0.704520 *  0.500000 *  0.739140 *   0.87073    1.000000    
     19 O2    c    0.490600 *  0.234690 *  0.337530 *   0.87073    1.000000    
     20 O2    c    0.509400 *  0.234690 *  0.662470 *   0.87073    1.000000    
     21 O2    c    0.509400 *  0.765310 *  0.662470 *   0.87073    1.000000    
     22 O2    c    0.490600 *  0.765310 *  0.337530 *   0.87073    1.000000    
     23 O3    c    0.200440 *  0.174000 *  0.194980 *   1.33043    1.000000    
     24 O3    c    0.799560 *  0.174000 *  0.805020 *   1.33043    1.000000    
     25 O3    c    0.799560 *  0.826000 *  0.805020 *   1.33043    1.000000    
     26 O3    c    0.200440 *  0.826000 *  0.194980 *   1.33043    1.000000    
     27 O2    c    0.317860 *  0.500000 *  0.649090 *   0.87073    1.000000    
     28 O2    c    0.682140 *  0.500000 *  0.350910 *   0.87073    1.000000    
     29 O2    c    0.227920 *  0.173870 *  0.671620 *   0.87073    1.000000    
     30 O2    c    0.772080 *  0.173870 *  0.328380 *   0.87073    1.000000    
     31 O2    c    0.772080 *  0.826130 *  0.328380 *   0.87073    1.000000    
     32 O2    c    0.227920 *  0.826130 *  0.671620 *   0.87073    1.000000    
     33 O2    c    0.000000 *  0.000000 *  0.500000 *   0.87073    1.000000    
     34 O3    c    0.971960 *  0.000000 *  0.241930 *   1.33043    1.000000    
     35 O3    c    0.028040 *  0.000000 *  0.758070 *   1.33043    1.000000    
     36 O1    c    0.000000 *  0.000000 *  0.000000 *   1.73396    1.000000    
     37 O2    s    0.268740 *  0.279030 *  0.446100 *  -2.87073    1.000000    
     38 O2    s    0.731260 *  0.279030 *  0.553900 *  -2.87073    1.000000    
     39 O2    s    0.731260 *  0.720970 *  0.553900 *  -2.87073    1.000000    
     40 O2    s    0.268740 *  0.720970 *  0.446100 *  -2.87073    1.000000    
     41 O2    s    0.295480 *  0.500000 *  0.260860 *  -2.87073    1.000000    
     42 O2    s    0.704520 *  0.500000 *  0.739140 *  -2.87073    1.000000    
     43 O2    s    0.490600 *  0.234690 *  0.337530 *  -2.87073    1.000000    
     44 O2    s    0.509400 *  0.234690 *  0.662470 *  -2.87073    1.000000    
     45 O2    s    0.509400 *  0.765310 *  0.662470 *  -2.87073    1.000000    
     46 O2    s    0.490600 *  0.765310 *  0.337530 *  -2.87073    1.000000    
     47 O3    s    0.200440 *  0.174000 *  0.194980 *  -3.33043    1.000000    
     48 O3    s    0.799560 *  0.174000 *  0.805020 *  -3.33043    1.000000    
     49 O3    s    0.799560 *  0.826000 *  0.805020 *  -3.33043    1.000000    
     50 O3    s    0.200440 *  0.826000 *  0.194980 *  -3.33043    1.000000    
     51 O2    s    0.317860 *  0.500000 *  0.649090 *  -2.87073    1.000000    
     52 O2    s    0.682140 *  0.500000 *  0.350910 *  -2.87073    1.000000    
     53 O2    s    0.227920 *  0.173870 *  0.671620 *  -2.87073    1.000000    
     54 O2    s    0.772080 *  0.173870 *  0.328380 *  -2.87073    1.000000    
     55 O2    s    0.772080 *  0.826130 *  0.328380 *  -2.87073    1.000000    
     56 O2    s    0.227920 *  0.826130 *  0.671620 *  -2.87073    1.000000    
     57 O2    s    0.000000 *  0.000000 *  0.500000 *  -2.87073    1.000000    
     58 O3    s    0.971960 *  0.000000 *  0.241930 *  -3.33043    1.000000    
     59 O3    s    0.028040 *  0.000000 *  0.758070 *  -3.33043    1.000000    
     60 O1    s    0.000000 *  0.000000 *  0.000000 *  -3.73396    1.000000    
--------------------------------------------------------------------------------



********************************************************************************
*  General input information                                                   *
********************************************************************************

  Species output for all configurations : 

--------------------------------------------------------------------------------
  Species    Type    Atomic    Atomic    Charge       Radii (Angs)     Library
                     Number     Mass       (e)     Cova   Ionic  VDW   Symbol
--------------------------------------------------------------------------------
    Ge       Core       32      72.61   4.000000   1.170  0.000  1.750 Ge       
    Si       Core       14      28.09   4.000000   1.200  0.000  2.100 Si       
    O1       Core        8      16.00   1.733957   0.730  0.000  1.360 O1       
    O2       Core        8      16.00   0.870733   0.730  0.000  1.360 O2       
    O3       Core        8      16.00   1.330431   0.730  0.000  1.360 O3       
    O1       Shell       8       0.00  -3.733957   0.730  0.000  0.000 O1       
    O2       Shell       8       0.00  -2.870733   0.730  0.000  0.000 O2       
    O3       Shell       8       0.00  -3.330431   0.730  0.000  0.000 O3       
--------------------------------------------------------------------------------


  Lattice summation method               =    Ewald          (3-D)
                                         =    Parry          (2-D)
                                         =    Saunders et al (1-D)
  Accuracy factor for lattice sums       =   12.000


  Analytic derivatives to be used

  Time limit = Infinity

  Maximum range for interatomic potentials =    100000.000000 Angstroms

  General interatomic potentials :

--------------------------------------------------------------------------------
Atom  Types   Potential      Parameter       Value         Units   Cutoffs(Ang)
  1     2                                                            Min /  Max 
--------------------------------------------------------------------------------
Si   c O1   s Buckingham    Buckingham A     1315.2478    eV        0.000 16.000
                            Buckingham rho  0.31775900    Ang       
                            Buckingham C     10.141118    eV*Ang^6  
--------------------------------------------------------------------------------
Si   c O2   s Buckingham    Buckingham A     1315.2478    eV        0.000 16.000
                            Buckingham rho  0.31775900    Ang       
                            Buckingham C     10.141118    eV*Ang^6  
--------------------------------------------------------------------------------
Si   c O3   s Buckingham    Buckingham A     1315.2478    eV        0.000 16.000
                            Buckingham rho  0.31775900    Ang       
                            Buckingham C     10.141118    eV*Ang^6  
--------------------------------------------------------------------------------
Ge   c O1   s Buckingham    Buckingham A     1497.3996    eV        0.000 16.000
                            Buckingham rho  0.32564600    Ang       
                            Buckingham C     16.808599    eV*Ang^6  
--------------------------------------------------------------------------------
Ge   c O2   s Buckingham    Buckingham A     1497.3996    eV        0.000 16.000
                            Buckingham rho  0.32564600    Ang       
                            Buckingham C     16.808599    eV*Ang^6  
--------------------------------------------------------------------------------
Ge   c O3   s Buckingham    Buckingham A     1497.3996    eV        0.000 16.000
                            Buckingham rho  0.32564600    Ang       
                            Buckingham C     16.808599    eV*Ang^6  
--------------------------------------------------------------------------------
O1   s O1   s Buckingham    Buckingham A     22764.000    eV        0.000 16.000
                            Buckingham rho  0.14900000    Ang       
                            Buckingham C     10.937044    eV*Ang^6  
--------------------------------------------------------------------------------
O1   s O2   s Buckingham    Buckingham A     22764.000    eV        0.000 16.000
                            Buckingham rho  0.14900000    Ang       
                            Buckingham C     10.937044    eV*Ang^6  
--------------------------------------------------------------------------------
O1   s O3   s Buckingham    Buckingham A     22764.000    eV        0.000 16.000
                            Buckingham rho  0.14900000    Ang       
                            Buckingham C     10.937044    eV*Ang^6  
--------------------------------------------------------------------------------
O2   s O2   s Buckingham    Buckingham A     22764.000    eV        0.000 16.000
                            Buckingham rho  0.14900000    Ang       
                            Buckingham C     10.937044    eV*Ang^6  
--------------------------------------------------------------------------------
O2   s O3   s Buckingham    Buckingham A     22764.000    eV        0.000 16.000
                            Buckingham rho  0.14900000    Ang       
                            Buckingham C     10.937044    eV*Ang^6  
--------------------------------------------------------------------------------
O3   s O3   s Buckingham    Buckingham A     22764.000    eV        0.000 16.000
                            Buckingham rho  0.14900000    Ang       
                            Buckingham C     10.937044    eV*Ang^6  
--------------------------------------------------------------------------------
O1   c O1   s Spring (c-s)  Spring k 2       180.31577    eV*Ang^-2 0.000  0.800
                            Spring k 4       0.0000000    eV*Ang^-4 
--------------------------------------------------------------------------------
O2   c O2   s Spring (c-s)  Spring k 2       75.969800    eV*Ang^-2 0.000  0.800
                            Spring k 4       0.0000000    eV*Ang^-4 
--------------------------------------------------------------------------------
O3   c O3   s Spring (c-s)  Spring k 2       128.14270    eV*Ang^-2 0.000  0.800
                            Spring k 4       0.0000000    eV*Ang^-4 
--------------------------------------------------------------------------------

  General Three-body potentials :

--------------------------------------------------------------------------------
  Atoms       Potential      Parameter       Value         Units   Cutoffs(Ang)
  1 / 2 / 3                                                          Min /  Max 
--------------------------------------------------------------------------------
Si    core    Harmonic      Three-body cnst  1.2614000    eV*rad^-2 0.000  1.900
O1    shel                  Three-body angl  109.47000    degrees   0.000  1.900
O1    shel                  Three-body k4    0.0000000    eV*rad^-4 0.000  3.500
                            Three-body k3    0.0000000    eV*rad^-3 
--------------------------------------------------------------------------------
Si    core    Harmonic      Three-body cnst  1.2614000    eV*rad^-2 0.000  1.900
O1    shel                  Three-body angl  109.47000    degrees   0.000  1.900
õ(1   shel                  Three-body k4    0.0000000    eV*rad^-4 0.000  3.500
                            Three-body k3    0.0000000    eV*rad^-3 
--------------------------------------------------------------------------------
Si    core    Harmonic      Three-body cnst  1.2614000    eV*rad^-2 0.000  1.900
õ(1   shel                  Three-body angl  109.47000    degrees   0.000  1.900
õ(1   shel                  Three-body k4    0.0000000    eV*rad^-4 0.000  3.500
                            Three-body k3    0.0000000    eV*rad^-3 
--------------------------------------------------------------------------------
Si    core    Harmonic      Three-body cnst  1.2614000    eV*rad^-2 0.000  1.900
O1    shel                  Three-body angl  109.47000    degrees   0.000  1.900
O2    shel                  Three-body k4    0.0000000    eV*rad^-4 0.000  3.500
                            Three-body k3    0.0000000    eV*rad^-3 
--------------------------------------------------------------------------------
Si    core    Harmonic      Three-body cnst  1.2614000    eV*rad^-2 0.000  1.900
O1    shel                  Three-body angl  109.47000    degrees   0.000  1.900
õ(2   shel                  Three-body k4    0.0000000    eV*rad^-4 0.000  3.500
                            Three-body k3    0.0000000    eV*rad^-3 
--------------------------------------------------------------------------------
Si    core    Harmonic      Three-body cnst  1.2614000    eV*rad^-2 0.000  1.900
O2    shel                  Three-body angl  109.47000    degrees   0.000  1.900
õ(1   shel                  Three-body k4    0.0000000    eV*rad^-4 0.000  3.500
                            Three-body k3    0.0000000    eV*rad^-3 
--------------------------------------------------------------------------------
Si    core    Harmonic      Three-body cnst  1.2614000    eV*rad^-2 0.000  1.900
õ(1   shel                  Three-body angl  109.47000    degrees   0.000  1.900
õ(2   shel                  Three-body k4    0.0000000    eV*rad^-4 0.000  3.500
                            Three-body k3    0.0000000    eV*rad^-3 
--------------------------------------------------------------------------------
Si    core    Harmonic      Three-body cnst  1.2614000    eV*rad^-2 0.000  1.900
O2    shel                  Three-body angl  109.47000    degrees   0.000  1.900
O2    shel                  Three-body k4    0.0000000    eV*rad^-4 0.000  3.500
                            Three-body k3    0.0000000    eV*rad^-3 
--------------------------------------------------------------------------------
Si    core    Harmonic      Three-body cnst  1.2614000    eV*rad^-2 0.000  1.900
O2    shel                  Three-body angl  109.47000    degrees   0.000  1.900
õ(2   shel                  Three-body k4    0.0000000    eV*rad^-4 0.000  3.500
                            Three-body k3    0.0000000    eV*rad^-3 
--------------------------------------------------------------------------------
Si    core    Harmonic      Three-body cnst  1.2614000    eV*rad^-2 0.000  1.900
õ(2   shel                  Three-body angl  109.47000    degrees   0.000  1.900
õ(2   shel                  Three-body k4    0.0000000    eV*rad^-4 0.000  3.500
                            Three-body k3    0.0000000    eV*rad^-3 
--------------------------------------------------------------------------------

********************************************************************************
*  Output for configuration   1 : c00022.vasp                                  *
********************************************************************************


  Components of energy : 

--------------------------------------------------------------------------------
  Interatomic potentials     =         384.29869517 eV    
  Three-body potentials      =           0.00003201 eV    
  Monopole - monopole (real) =       -1236.99964305 eV    
  Monopole - monopole (recip)=        -659.26603192 eV    
  Monopole - monopole (total)=       -1896.26567496 eV    
--------------------------------------------------------------------------------
  Total lattice energy       =       -1511.96694778 eV    
--------------------------------------------------------------------------------
  Total lattice energy       =         -145881.6979 kJ/(mole unit cells)
--------------------------------------------------------------------------------


  Number of variables =      183

  Maximum number of calculations  =          1000
  Maximum Hessian update interval =            10
  Maximum step size               =   0.100000000
  Maximum parameter tolerance     =   0.000010000
  Maximum function  tolerance     =   0.000010000
  Maximum gradient  tolerance     =   0.001000000
  Maximum gradient  component     =   0.010000000

  Symmetry not applied to optimisation

  Cell parameters to be optimised using strains

  Newton-Raphson optimiser to be used

  BFGS hessian update to be used

  Lower half triangular hessian to be used

  Minimiser to switch to RFO
  When gradient norm is less than     0.050000

  Dumpfile to be written after every cycle

  Start of bulk optimisation :

  Cycle:      0 Energy:     -1511.966948  Gnorm:      5.026634  CPU:    0.031
  ** Hessian calculated **
  Cycle:      1 Energy:     -1520.114284  Gnorm:      3.733755  CPU:    0.100
  ** Hessian calculated **
  Cycle:      2 Energy:     -1528.045619  Gnorm:      1.073360  CPU:    0.165
  Cycle:      3 Energy:     -1529.053652  Gnorm:      0.421991  CPU:    0.205
  Cycle:      4 Energy:     -1529.310554  Gnorm:      0.298014  CPU:    0.245
  Cycle:      5 Energy:     -1529.595212  Gnorm:      0.241918  CPU:    0.292
  Cycle:      6 Energy:     -1529.870906  Gnorm:      0.250811  CPU:    0.339
  Cycle:      7 Energy:     -1530.044102  Gnorm:      0.203443  CPU:    0.379
  Cycle:      8 Energy:     -1530.156942  Gnorm:      0.172846  CPU:    0.419
  Cycle:      9 Energy:     -1530.230399  Gnorm:      0.130379  CPU:    0.459
  Cycle:     10 Energy:     -1530.271578  Gnorm:      0.101863  CPU:    0.499
  Cycle:     11 Energy:     -1530.301578  Gnorm:      0.087267  CPU:    0.539
  ** Hessian calculated **
  Cycle:     12 Energy:     -1530.344797  Gnorm:      0.081046  CPU:    0.611
  Cycle:     13 Energy:     -1530.411967  Gnorm:      0.070558  CPU:    0.666
  Cycle:     14 Energy:     -1530.487918  Gnorm:      0.057035  CPU:    0.714
  Cycle:     15 Energy:     -1530.572082  Gnorm:      0.038807  CPU:    0.762
  ** Hessian has wrong structure
  ** Imaginary eigenvectors =   2
  Cycle:     16 Energy:     -1530.575978  Gnorm:      0.066905  CPU:    0.854
  ** Hessian has wrong structure
  ** Imaginary eigenvectors =   1
  Cycle:     17 Energy:     -1530.582604  Gnorm:      0.070635  CPU:    0.969
  ** Hessian has required structure
  Cycle:     18 Energy:     -1530.655509  Gnorm:      0.062199  CPU:    1.039
  ** Hessian has required structure
  Cycle:     19 Energy:     -1530.694758  Gnorm:      0.021796  CPU:    1.078
  ** Hessian has required structure
  Cycle:     20 Energy:     -1530.724692  Gnorm:      0.041227  CPU:    1.132
  ** Hessian has required structure
  Cycle:     21 Energy:     -1530.739079  Gnorm:      0.048171  CPU:    1.180
  ** Hessian has required structure
  Cycle:     22 Energy:     -1530.751234  Gnorm:      0.029599  CPU:    1.227
  ** Hessian has required structure
  Cycle:     23 Energy:     -1530.758883  Gnorm:      0.024425  CPU:    1.281
  ** Hessian has required structure
  Cycle:     24 Energy:     -1530.761912  Gnorm:      0.015181  CPU:    1.328
  ** Hessian has required structure
  Cycle:     25 Energy:     -1530.763508  Gnorm:      0.007057  CPU:    1.375
  ** Hessian has required structure
  Cycle:     26 Energy:     -1530.764138  Gnorm:      0.007157  CPU:    1.421
  ** Hessian has required structure
  Cycle:     27 Energy:     -1530.764356  Gnorm:      0.003258  CPU:    1.468
  ** Hessian has required structure
  Cycle:     28 Energy:     -1530.764458  Gnorm:      0.001640  CPU:    1.545
  ** Hessian has required structure
  Cycle:     29 Energy:     -1530.764483  Gnorm:      0.000829  CPU:    1.598
  ** Hessian has required structure
  Cycle:     30 Energy:     -1530.764490  Gnorm:      0.000417  CPU:    1.653
  ** Hessian has required structure
  Cycle:     31 Energy:     -1530.764491  Gnorm:      0.000292  CPU:    1.692
  ** Hessian has required structure
  Cycle:     32 Energy:     -1530.764491  Gnorm:      0.000204  CPU:    1.731
  ** Hessian has required structure
  Cycle:     33 Energy:     -1530.764491  Gnorm:      0.000143  CPU:    1.770
  ** Hessian has required structure


  **** Optimisation achieved ****


  Final energy =   -1530.76449162 eV      
  Final Gnorm  =       0.00010021

  Components of energy : 

--------------------------------------------------------------------------------
  Interatomic potentials     =         407.38584665 eV    
  Three-body potentials      =           0.09255276 eV    
  Monopole - monopole (real) =        -927.93381405 eV    
  Monopole - monopole (recip)=       -1010.30907698 eV    
  Monopole - monopole (total)=       -1938.24289103 eV    
--------------------------------------------------------------------------------
  Total lattice energy       =       -1530.76449162 eV    
--------------------------------------------------------------------------------
  Total lattice energy       =         -147695.3736 kJ/(mole unit cells)
--------------------------------------------------------------------------------

  Final fractional coordinates of atoms :

--------------------------------------------------------------------------------
   No.  Atomic        x           y          z          Radius
        Label       (Frac)      (Frac)     (Frac)       (Angs) 
--------------------------------------------------------------------------------
     1  Ge    c     0.093070    0.000000    0.158230    0.000000
     2  Ge    c     0.890028    1.000000    0.838390    0.000000
     3  Si    c     0.315352    0.299335    0.316270    0.000000
     4  Si    c     0.666555    0.299494    0.714260    0.000000
     5  Si    c     0.666555    0.700506    0.714260    0.000000
     6  Si    c     0.315352    0.700665    0.316270    0.000000
     7  Si    c     0.313018    0.300480    0.622662    0.000000
     8  Si    c     0.668133    0.298169    0.407961    0.000000
     9  Si    c     0.668133    0.701831    0.407961    0.000000
    10  Si    c     0.313018    0.699520    0.622662    0.000000
    11  Si    c     0.872480    1.000000    0.344746    0.000000
    12  Si    c     0.099380    0.000000    0.632706    0.000000
    13  O2    c     0.291084    0.256356    0.463881    0.000000
    14  O2    c     0.692127    0.251479    0.566913    0.000000
    15  O2    c     0.692127    0.748521    0.566913    0.000000
    16  O2    c     0.291084    0.743644    0.463881    0.000000
    17  O2    c     0.274901    0.500000    0.278065    0.000000
    18  O2    c     0.710475    0.500000    0.749792    0.000000
    19  O2    c     0.492626    0.263831    0.323234    0.000000
    20  O2    c     0.488685    0.268961    0.707315    0.000000
    21  O2    c     0.488685    0.731039    0.707315    0.000000
    22  O2    c     0.492626    0.736169    0.323234    0.000000
    23  O3    c     0.204392    0.183260    0.203753    0.000000
    24  O3    c     0.773093    0.180997    0.828562    0.000000
    25  O3    c     0.773093    0.819003    0.828562    0.000000
    26  O3    c     0.204392    0.816740    0.203753    0.000000
    27  O2    c     0.265227    0.500000    0.640865    0.000000
    28  O2    c     0.712455    0.500000    0.392560    0.000000
    29  O2    c     0.204836    0.171989    0.678751    0.000000
    30  O2    c     0.774692    0.174492    0.347090    0.000000
    31  O2    c     0.774692    0.825508    0.347090    0.000000
    32  O2    c     0.204836    0.828011    0.678751    0.000000
    33  O2    c     0.028024    1.000000    0.468376    0.000000
    34  O3    c     0.926448    1.000000    0.208459    0.000000
    35  O3    c     0.963442    0.000000    0.699737    0.000000
    36  O1    c     0.035286    1.000000    0.983245    0.000000
    37  O2    s     0.296057    0.265622    0.465271    0.000000
    38  O2    s     0.686947    0.261316    0.565158    0.000000
    39  O2    s     0.686947    0.738684    0.565158    0.000000
    40  O2    s     0.296057    0.734378    0.465271    0.000000
    41  O2    s     0.283735    0.500000    0.286390    0.000000
    42  O2    s     0.700887    0.500000    0.742044    0.000000
    43  O2    s     0.492756    0.271262    0.331589    0.000000
    44  O2    s     0.488464    0.275644    0.698869    0.000000
    45  O2    s     0.488464    0.724356    0.698869    0.000000
    46  O2    s     0.492756    0.728738    0.331589    0.000000
    47  O3    s     0.207143    0.180506    0.212253    0.000000
    48  O3    s     0.771060    0.179282    0.817252    0.000000
    49  O3    s     0.771060    0.820718    0.817252    0.000000
    50  O3    s     0.207143    0.819494    0.212253    0.000000
    51  O2    s     0.275325    0.500000    0.637046    0.000000
    52  O2    s     0.703184    0.500000    0.395795    0.000000
    53  O2    s     0.205754    0.168304    0.667896    0.000000
    54  O2    s     0.773249    0.169579    0.353698    0.000000
    55  O2    s     0.773249    0.830421    0.353698    0.000000
    56  O2    s     0.205754    0.831696    0.667896    0.000000
    57  O2    s     0.019019    1.000000    0.472323    0.000000
    58  O3    s     0.934384    1.000000    0.218195    0.000000
    59  O3    s     0.972430    0.000000    0.703976    0.000000
    60  O1    s     0.027486    1.000000    0.984761    0.000000
--------------------------------------------------------------------------------

  Final Cartesian lattice vectors (Angstroms) :

        9.081786    0.000000    0.213038
        0.000000    7.674901   -0.000000
       -3.050842   -0.000000    9.699027


  Final cell parameters and derivatives :

--------------------------------------------------------------------------------
       a            9.084285 Angstrom     dE/de1(xx)     0.000509 eV/strain
       b            7.674901 Angstrom     dE/de2(yy)     0.002469 eV/strain
       c           10.167534 Angstrom     dE/de3(zz)     0.001523 eV/strain
       alpha       90.000000 Degrees      dE/de4(yz)    -0.000000 eV/strain
       beta       106.117257 Degrees      dE/de5(xz)     0.000282 eV/strain
       gamma       90.000000 Degrees      dE/de6(xy)     0.000000 eV/strain
--------------------------------------------------------------------------------

  Primitive cell volume =           681.028000 Angs**3

  Density of cell =      1.975333 g/cm**3

  Non-primitive cell volume =           681.028000 Angs**3


  Final internal derivatives :

--------------------------------------------------------------------------------
   No.  Atomic          a             b             c           Radius
        Label          (eV)          (eV)          (eV)        (eV/Angs)
--------------------------------------------------------------------------------
      1 Ge    c       0.000000      0.000000      0.000000      0.000000
      2 Ge    c       0.001161      0.000000     -0.002937      0.000000
      3 Si    c      -0.000228     -0.001666     -0.000963      0.000000
      4 Si    c       0.000161     -0.000517     -0.000713      0.000000
      5 Si    c       0.000161      0.000517     -0.000713      0.000000
      6 Si    c      -0.000228      0.001666     -0.000963      0.000000
      7 Si    c      -0.002215     -0.001562      0.001902      0.000000
      8 Si    c       0.000658     -0.000198      0.000202      0.000000
      9 Si    c       0.000658      0.000198      0.000202      0.000000
     10 Si    c      -0.002215      0.001562      0.001902      0.000000
     11 Si    c       0.000396     -0.000000     -0.001104      0.000000
     12 Si    c       0.002919      0.000000     -0.003883      0.000000
     13 O2    c       0.000077      0.000176     -0.000728      0.000000
     14 O2    c      -0.000562      0.000205      0.000900      0.000000
     15 O2    c      -0.000562     -0.000205      0.000900      0.000000
     16 O2    c       0.000077     -0.000176     -0.000728      0.000000
     17 O2    c       0.000029     -0.000000     -0.001638      0.000000
     18 O2    c       0.000376     -0.000000      0.000325      0.000000
     19 O2    c      -0.001079     -0.000055     -0.000049      0.000000
     20 O2    c       0.002119     -0.000006      0.000167      0.000000
     21 O2    c       0.002119      0.000006      0.000167      0.000000
     22 O2    c      -0.001079      0.000055     -0.000049      0.000000
     23 O3    c      -0.000157      0.000459      0.002430      0.000000
     24 O3    c      -0.000588      0.000936     -0.000508      0.000000
     25 O3    c      -0.000588     -0.000936     -0.000508      0.000000
     26 O3    c      -0.000157     -0.000459      0.002430      0.000000
     27 O2    c      -0.000337      0.000000      0.001244      0.000000
     28 O2    c       0.000281     -0.000000     -0.000623      0.000000
     29 O2    c       0.001344      0.000720     -0.002013      0.000000
     30 O2    c      -0.000232      0.000014      0.000381      0.000000
     31 O2    c      -0.000232     -0.000014      0.000381      0.000000
     32 O2    c       0.001344     -0.000720     -0.002013      0.000000
     33 O2    c       0.000208     -0.000000      0.000178      0.000000
     34 O3    c       0.001754      0.000000     -0.001538      0.000000
     35 O3    c      -0.006665      0.000000      0.007700      0.000000
     36 O1    c       0.001269     -0.000000      0.005958      0.000000
     37 O2    s      -0.000617     -0.001353     -0.000357      0.000000
     38 O2    s       0.000333     -0.001157      0.000235      0.000000
     39 O2    s       0.000333      0.001157      0.000235      0.000000
     40 O2    s      -0.000617      0.001353     -0.000357      0.000000
     41 O2    s      -0.000144     -0.000000     -0.001197      0.000000
     42 O2    s       0.000104      0.000000      0.000623      0.000000
     43 O2    s       0.000127     -0.001244     -0.000727      0.000000
     44 O2    s      -0.000249     -0.001096      0.000922      0.000000
     45 O2    s      -0.000249      0.001096      0.000922      0.000000
     46 O2    s       0.000127      0.001244     -0.000727      0.000000
     47 O3    s      -0.000304     -0.000570     -0.000185      0.000000
     48 O3    s       0.000100     -0.000598     -0.000562      0.000000
     49 O3    s       0.000100      0.000598     -0.000562      0.000000
     50 O3    s      -0.000304      0.000570     -0.000185      0.000000
     51 O2    s      -0.001906     -0.000000      0.001826      0.000000
     52 O2    s       0.001369      0.000000     -0.001689      0.000000
     53 O2    s      -0.000143     -0.000089      0.000781      0.000000
     54 O2    s       0.000221     -0.000194      0.000223      0.000000
     55 O2    s       0.000221      0.000194      0.000223      0.000000
     56 O2    s      -0.000143      0.000089      0.000781      0.000000
     57 O2    s      -0.000532     -0.000000     -0.000646      0.000000
     58 O3    s      -0.000307     -0.000000     -0.000037      0.000000
     59 O3    s       0.002974     -0.000000     -0.003941      0.000000
     60 O1    s      -0.000720     -0.000000     -0.002594      0.000000
--------------------------------------------------------------------------------
  Maximum abs         0.006665      0.001666      0.007700      0.000000
--------------------------------------------------------------------------------


  Born effective charge tensors : 

-------------------------------------------------------------------------------
  Atom             x           y             z
-------------------------------------------------------------------------------
    1 Ge    x       4.0835      0.0000      0.2439
            y      -0.0000      3.9516     -0.0000
            z       0.0639     -0.0000      4.8871
-------------------------------------------------------------------------------
    2 Ge    x       4.0783      0.0000     -0.1562
            y      -0.0000      3.9159     -0.0000
            z       0.8371     -0.0000      4.7325
-------------------------------------------------------------------------------
    3 Si    x       3.2489      0.3116      0.3130
            y       0.2908      3.5453      0.4101
            z       0.3277      0.2915      3.1285
-------------------------------------------------------------------------------
    4 Si    x       3.2340     -0.3459      0.3045
            y      -0.2642      3.5446     -0.4228
            z       0.2975     -0.2808      3.1199
-------------------------------------------------------------------------------
    5 Si    x       3.2340      0.3459      0.3045
            y       0.2642      3.5446      0.4228
            z       0.2975      0.2808      3.1199
-------------------------------------------------------------------------------
    6 Si    x       3.2489     -0.3116      0.3130
            y      -0.2908      3.5453     -0.4101
            z       0.3277     -0.2915      3.1285
-------------------------------------------------------------------------------
    7 Si    x       3.2317      0.2786      0.0413
            y       0.2650      3.4163     -0.0650
            z       0.0554      0.0512      2.6196
-------------------------------------------------------------------------------
    8 Si    x       3.2630     -0.2533      0.0024
            y      -0.2791      3.4547      0.1152
            z       0.0003     -0.0082      2.6603
-------------------------------------------------------------------------------
    9 Si    x       3.2630      0.2533      0.0024
            y       0.2791      3.4547     -0.1152
            z       0.0003      0.0082      2.6603
-------------------------------------------------------------------------------
   10 Si    x       3.2317     -0.2786      0.0413
            y      -0.2650      3.4163      0.0650
            z       0.0554     -0.0512      2.6196
-------------------------------------------------------------------------------
   11 Si    x       3.9016      0.0000     -0.4057
            y      -0.0000      3.3631     -0.0000
            z      -0.3453     -0.0000      3.2423
-------------------------------------------------------------------------------
   12 Si    x       4.0827      0.0000      0.1716
            y      -0.0000      3.3285      0.0000
            z      -0.5177      0.0000      2.8567
-------------------------------------------------------------------------------
   13 O2    x      -1.3065     -0.1348      0.2936
            y      -0.1146     -1.2825     -0.0225
            z       0.2767     -0.0215     -1.8979
-------------------------------------------------------------------------------
   14 O2    x      -1.3038      0.1344      0.2850
            y       0.1138     -1.2920      0.0270
            z       0.2760      0.0246     -1.9250
-------------------------------------------------------------------------------
   15 O2    x      -1.3038     -0.1344      0.2850
            y      -0.1138     -1.2920     -0.0270
            z       0.2760     -0.0246     -1.9250
-------------------------------------------------------------------------------
   16 O2    x      -1.3065      0.1348      0.2936
            y       0.1146     -1.2825      0.0225
            z       0.2767      0.0215     -1.8979
-------------------------------------------------------------------------------
   17 O2    x      -1.1372     -0.0000     -0.0767
            y      -0.0000     -2.4592      0.0000
            z      -0.0937     -0.0000     -1.1323
-------------------------------------------------------------------------------
   18 O2    x      -1.1389     -0.0000     -0.0814
            y      -0.0000     -2.4374      0.0000
            z      -0.1005      0.0000     -1.1299
-------------------------------------------------------------------------------
   19 O2    x      -2.2571      0.0319     -0.3652
            y       0.0426     -1.2452     -0.0658
            z      -0.3566     -0.0426     -1.1762
-------------------------------------------------------------------------------
   20 O2    x      -2.2476     -0.0253     -0.3608
            y      -0.0320     -1.2367      0.0625
            z      -0.3699      0.0369     -1.1791
-------------------------------------------------------------------------------
   21 O2    x      -2.2476      0.0253     -0.3608
            y       0.0320     -1.2367     -0.0625
            z      -0.3699     -0.0369     -1.1791
-------------------------------------------------------------------------------
   22 O2    x      -2.2571     -0.0319     -0.3652
            y      -0.0426     -1.2452      0.0658
            z      -0.3566      0.0426     -1.1762
-------------------------------------------------------------------------------
   23 O3    x      -1.7265     -0.7634     -0.5765
            y      -0.7817     -2.3588     -0.8186
            z      -0.5811     -0.7909     -1.9497
-------------------------------------------------------------------------------
   24 O3    x      -1.7573      0.7927     -0.4359
            y       0.8004     -2.3373      0.6970
            z      -0.5544      0.6862     -1.8734
-------------------------------------------------------------------------------
   25 O3    x      -1.7573     -0.7927     -0.4359
            y      -0.8004     -2.3373     -0.6970
            z      -0.5544     -0.6862     -1.8734
-------------------------------------------------------------------------------
   26 O3    x      -1.7265      0.7634     -0.5765
            y       0.7817     -2.3588      0.8186
            z      -0.5811      0.7909     -1.9497
-------------------------------------------------------------------------------
   27 O2    x      -1.2285     -0.0000      0.0174
            y      -0.0000     -2.5202      0.0000
            z       0.0279      0.0000     -0.9788
-------------------------------------------------------------------------------
   28 O2    x      -1.2248     -0.0000      0.0156
            y      -0.0000     -2.5953      0.0000
            z       0.0294      0.0000     -0.9819
-------------------------------------------------------------------------------
   29 O2    x      -1.8260     -0.7671      0.0100
            y      -0.7274     -1.9926      0.0036
            z       0.1153      0.0066     -1.0871
-------------------------------------------------------------------------------
   30 O2    x      -1.8942      0.8031      0.2131
            y       0.7770     -2.0177     -0.1917
            z       0.1829     -0.1429     -1.0910
-------------------------------------------------------------------------------
   31 O2    x      -1.8942     -0.8031      0.2131
            y      -0.7770     -2.0177      0.1917
            z       0.1829      0.1429     -1.0910
-------------------------------------------------------------------------------
   32 O2    x      -1.8260      0.7671      0.0100
            y       0.7274     -1.9926     -0.0036
            z       0.1153     -0.0066     -1.0871
-------------------------------------------------------------------------------
   33 O2    x      -1.6787     -0.0000     -0.5438
            y      -0.0000     -1.1681     -0.0000
            z      -0.3018     -0.0000     -1.8896
-------------------------------------------------------------------------------
   34 O3    x      -2.6306     -0.0000      0.9158
            y      -0.0000     -1.2233      0.0000
            z       0.9187      0.0000     -2.2079
-------------------------------------------------------------------------------
   35 O3    x      -2.8521     -0.0000      0.9494
            y      -0.0000     -1.2603      0.0000
            z       0.9047      0.0000     -1.9307
-------------------------------------------------------------------------------
   36 O1    x      -1.5726     -0.0000     -0.4989
            y       0.0000     -1.2915     -0.0000
            z      -0.7625     -0.0000     -4.1652
-------------------------------------------------------------------------------




  Elastic Constant Matrix: (Units=GPa)

-------------------------------------------------------------------------------
  Indices      1         2         3         4         5         6    
-------------------------------------------------------------------------------
       1     74.7652   57.9982   15.5284    0.0000   10.2486    0.0000
       2     57.9982  117.4543   25.5853    0.0000   16.9732    0.0000
       3     15.5284   25.5853   35.3976    0.0000   17.6530    0.0000
       4      0.0000    0.0000    0.0000   11.3829    0.0000    3.5889
       5     10.2486   16.9732   17.6530    0.0000   17.7434    0.0000
       6      0.0000    0.0000    0.0000    3.5889    0.0000    9.2976
-------------------------------------------------------------------------------


  Elastic Compliance Matrix: (Units=1/GPa)

-------------------------------------------------------------------------------
  Indices      1         2         3         4         5         6    
-------------------------------------------------------------------------------
       1    0.021827 -0.010262 -0.001520  0.000000 -0.001278 -0.000000
       2   -0.010262  0.015137 -0.004315  0.000000 -0.004259 -0.000000
       3   -0.001520 -0.004315  0.058630 -0.000000 -0.053326  0.000000
       4    0.000000  0.000000 -0.000000  0.100025  0.000000 -0.038610
       5   -0.001278 -0.004259 -0.053326  0.000000  0.114226 -0.000000
       6   -0.000000 -0.000000  0.000000 -0.038610 -0.000000  0.122459
-------------------------------------------------------------------------------

  Mechanical properties :

-------------------------------------------------------------------------------
  Convention :                    Reuss         Voigt         Hill
-------------------------------------------------------------------------------
  Bulk  Modulus (GPa)     =      15.77302      47.31567      31.54434
  Shear Modulus (GPa)     =      10.29588      16.25178      13.27383
-------------------------------------------------------------------------------
  Velocity S-wave (km/s)  =       2.28303       2.86834       2.59226
  Velocity P-wave (km/s)  =       3.86453       5.90957       4.99288
-------------------------------------------------------------------------------
  Compressibility (1/GPa) =    0.06339939
-------------------------------------------------------------------------------
  Stress axis :                     x             y             z
-------------------------------------------------------------------------------
  Youngs Moduli (GPa)     =      45.81515      66.06449      17.05610
-------------------------------------------------------------------------------
  Poissons Ratio (x)      =                     0.67796       0.02593
  Poissons Ratio (y)      =       0.47016                     0.07359
  Poissons Ratio (z)      =       0.06965       0.28505
-------------------------------------------------------------------------------


  Piezoelectric Strain Matrix: (Units=C/m**2)

-------------------------------------------------------------------------------
  Indices      1         2         3         4         5         6    
-------------------------------------------------------------------------------
       x    -0.63255  -0.29657   0.45866  -0.00000   0.16027  -0.00000
       y     0.00000   0.00000   0.00000   0.39475   0.00000  -0.72140
       z     0.01483   0.00366  -0.35970  -0.00000   0.71586   0.00000
-------------------------------------------------------------------------------


  Piezoelectric Stress Matrix: (Units=10**-11 C/N)

-------------------------------------------------------------------------------
  Indices      1         2         3         4         5         6    
-------------------------------------------------------------------------------
       x    -1.16653  -0.06595   2.05862  -0.00000  -0.40800  -0.00000
       y     0.00000   0.00000  -0.00000   6.73384   0.00000 -10.35836
       z    -0.00820  -0.15939  -5.93019   0.00000  10.09174  -0.00000
-------------------------------------------------------------------------------


  Static dielectric constant tensor : 

-------------------------------------------------------------------------------
              x         y         z
-------------------------------------------------------------------------------
       x     3.87109   0.00000   0.20731
       y     0.00000   4.07230   0.00000
       z     0.20731   0.00000   3.80134
--------------------------------------------------------------------------------

  High frequency dielectric constant tensor : 

-------------------------------------------------------------------------------
              x         y         z
-------------------------------------------------------------------------------
       x     1.65981   0.00000   0.01365
       y     0.00000   1.67027  -0.00000
       z     0.01365  -0.00000   1.59432
-------------------------------------------------------------------------------

  Static refractive indices : 

-------------------------------------------------------------------------------
    1 =    1.90420      2 =    2.01158      3 =    2.01799
-------------------------------------------------------------------------------

  High frequency refractive indices : 

-------------------------------------------------------------------------------
    1 =    1.26158      2 =    1.28940      3 =    1.29239
-------------------------------------------------------------------------------


  Time to end of optimisation =       1.8584 seconds


  Peak dynamic memory used =       2.76 MB 


  Timing analysis for GULP :

--------------------------------------------------------------------------------
  Task / Subroutine                                          Time (Seconds)
--------------------------------------------------------------------------------
  Calculation of reciprocal space energy and derivatives          0.1228
  Calculation of real space energy and derivatives                1.4934
  Calculation of three-body energy and derivatives                0.0800
  Calculation and manipulation of Hessian matrix                  0.2396
  Calculation of matrix inversion                                 0.0023
--------------------------------------------------------------------------------
  Total CPU time                                                  1.8585
--------------------------------------------------------------------------------


  Dump file written as c00022.vasp.grs
  CIF file written as c00022.vasp.cif


  Job Finished at 21:24.01  6th October    2025                               

