********************************************************************************
*                       GENERAL UTILITY LATTICE PROGRAM                        *
*                                 Julian Gale                                  *
*                       Curtin Institute for Computation                       *
*                    School of Molecular and Life Sciences                     *
*                    Curtin University, Western Australia                      *
********************************************************************************
* Version = 6.1.2 * Last modified =   3rd November 2022                        *
********************************************************************************
*  optimise     - perform optimisation run                                     *
*  conp         - constant pressure calculation                                *
*  property     - calculate properties for final geometry                      *
********************************************************************************

  Job Started  at 11:27.43  7th October    2025                               

  Number of CPUs =     1


  Total number of configurations input =      1

********************************************************************************
*  Input for Configuration =   1 : c00011.vasp                                 *
********************************************************************************

  Formula = Ge3Si21O48                                                  

  Number of irreducible atoms/shells =     120


  Total number atoms/shells =     120

  Dimensionality = 3               :  Bulk   



  Cartesian lattice vectors (Angstroms) :

       17.182800    0.000000    0.000000
        0.000000    7.513760    0.000000
        0.000000    0.000000   10.447700

  Cell parameters (Angstroms/Degrees):

  a =      17.1828    alpha =  90.0000
  b =       7.5138    beta  =  90.0000
  c =      10.4477    gamma =  90.0000

  Initial cell volume =        1348.875752 Angs**3

  Temperature of configuration =   0.00     K 

  Pressure of configuration =         0.000 GPa 

  Fractional coordinates of asymmetric unit :

--------------------------------------------------------------------------------
   No.  Atomic       x           y          z         Charge      Occupancy
        Label      (Frac)      (Frac)     (Frac)        (e)         (Frac)  
--------------------------------------------------------------------------------
      1 Ge    c    0.052090    0.000000    0.372270     4.00000    1.000000    
      2 Ge    c    0.947910 *  0.000000 *  0.627730 *   4.00000    1.000000    
      3 Ge    c    0.339810 *  0.706090 *  0.273440 *   4.00000    1.000000    
      4 Si    c    0.447910 *  0.000000 *  0.372270 *   4.00000    1.000000    
      5 Si    c    0.552090 *  0.000000 *  0.627730 *   4.00000    1.000000    
      6 Si    c    0.556730 *  0.000000 *  0.122130 *   4.00000    1.000000    
      7 Si    c    0.943270 *  0.000000 *  0.122130 *   4.00000    1.000000    
      8 Si    c    0.443270 *  0.000000 *  0.877870 *   4.00000    1.000000    
      9 Si    c    0.056730 *  0.000000 *  0.877870 *   4.00000    1.000000    
     10 Si    c    0.160190 *  0.293910 *  0.273440 *   4.00000    1.000000    
     11 Si    c    0.839810 *  0.293910 *  0.726560 *   4.00000    1.000000    
     12 Si    c    0.660190 *  0.706090 *  0.726560 *   4.00000    1.000000    
     13 Si    c    0.839810 *  0.706090 *  0.726560 *   4.00000    1.000000    
     14 Si    c    0.660190 *  0.293910 *  0.726560 *   4.00000    1.000000    
     15 Si    c    0.160190 *  0.706090 *  0.273440 *   4.00000    1.000000    
     16 Si    c    0.339810 *  0.293910 *  0.273440 *   4.00000    1.000000    
     17 Si    c    0.660660 *  0.294090 *  0.017440 *   4.00000    1.000000    
     18 Si    c    0.839340 *  0.705910 *  0.017440 *   4.00000    1.000000    
     19 Si    c    0.339340 *  0.294090 *  0.982560 *   4.00000    1.000000    
     20 Si    c    0.160660 *  0.705910 *  0.982560 *   4.00000    1.000000    
     21 Si    c    0.339340 *  0.705910 *  0.982560 *   4.00000    1.000000    
     22 Si    c    0.160660 *  0.294090 *  0.982560 *   4.00000    1.000000    
     23 Si    c    0.660660 *  0.705910 *  0.017440 *   4.00000    1.000000    
     24 Si    c    0.839340 *  0.294090 *  0.017440 *   4.00000    1.000000    
     25 O3    c    0.106570 *  0.174340 *  0.366200 *   1.33043    1.000000    
     26 O3    c    0.393430 *  0.825660 *  0.366200 *   1.33043    1.000000    
     27 O3    c    0.893430 *  0.174340 *  0.633800 *   1.33043    1.000000    
     28 O2    c    0.606570 *  0.825660 *  0.633800 *   0.87073    1.000000    
     29 O3    c    0.893430 *  0.825660 *  0.633800 *   1.33043    1.000000    
     30 O2    c    0.606570 *  0.174340 *  0.633800 *   0.87073    1.000000    
     31 O3    c    0.106570 *  0.825660 *  0.366200 *   1.33043    1.000000    
     32 O2    c    0.393430 *  0.174340 *  0.366200 *   0.87073    1.000000    
     33 O1    c    0.000000 *  0.000000 *  0.500000 *   1.73396    1.000000    
     34 O2    c    0.500000 *  0.000000 *  0.500000 *   0.87073    1.000000    
     35 O3    c    0.994520 *  0.000000 *  0.250840 *   1.33043    1.000000    
     36 O2    c    0.505480 *  0.000000 *  0.250840 *   0.87073    1.000000    
     37 O3    c    0.005480 *  0.000000 *  0.749160 *   1.33043    1.000000    
     38 O2    c    0.494520 *  0.000000 *  0.749160 *   0.87073    1.000000    
     39 O2    c    0.610230 *  0.175520 *  0.115390 *   0.87073    1.000000    
     40 O2    c    0.889770 *  0.824480 *  0.115390 *   0.87073    1.000000    
     41 O2    c    0.389770 *  0.175520 *  0.884610 *   0.87073    1.000000    
     42 O2    c    0.110230 *  0.824480 *  0.884610 *   0.87073    1.000000    
     43 O2    c    0.389770 *  0.824480 *  0.884610 *   0.87073    1.000000    
     44 O2    c    0.110230 *  0.175520 *  0.884610 *   0.87073    1.000000    
     45 O2    c    0.610230 *  0.824480 *  0.115390 *   0.87073    1.000000    
     46 O2    c    0.889770 *  0.175520 *  0.115390 *   0.87073    1.000000    
     47 O2    c    0.500000 *  0.000000 *  0.000000 *   0.87073    1.000000    
     48 O2    c    0.000000 *  0.000000 *  0.000000 *   0.87073    1.000000    
     49 O2    c    0.151750 *  0.500000 *  0.313330 *   0.87073    1.000000    
     50 O3    c    0.348250 *  0.500000 *  0.313330 *   1.33043    1.000000    
     51 O2    c    0.848250 *  0.500000 *  0.686670 *   0.87073    1.000000    
     52 O2    c    0.651750 *  0.500000 *  0.686670 *   0.87073    1.000000    
     53 O2    c    0.250000 *  0.234950 *  0.285720 *   0.87073    1.000000    
     54 O3    c    0.250000 *  0.765050 *  0.285720 *   1.33043    1.000000    
     55 O2    c    0.750000 *  0.234950 *  0.714280 *   0.87073    1.000000    
     56 O2    c    0.750000 *  0.765050 *  0.714280 *   0.87073    1.000000    
     57 O2    c    0.131410 *  0.268650 *  0.127790 *   0.87073    1.000000    
     58 O3    c    0.368590 *  0.731350 *  0.127790 *   1.33043    1.000000    
     59 O2    c    0.868590 *  0.268650 *  0.872210 *   0.87073    1.000000    
     60 O2    c    0.631410 *  0.731350 *  0.872210 *   0.87073    1.000000    
     61 O2    c    0.868590 *  0.731350 *  0.872210 *   0.87073    1.000000    
     62 O2    c    0.631410 *  0.268650 *  0.872210 *   0.87073    1.000000    
     63 O2    c    0.131410 *  0.731350 *  0.127790 *   0.87073    1.000000    
     64 O2    c    0.368590 *  0.268650 *  0.127790 *   0.87073    1.000000    
     65 O2    c    0.653920 *  0.500000 *  0.058200 *   0.87073    1.000000    
     66 O2    c    0.846080 *  0.500000 *  0.058200 *   0.87073    1.000000    
     67 O2    c    0.346080 *  0.500000 *  0.941800 *   0.87073    1.000000    
     68 O2    c    0.153920 *  0.500000 *  0.941800 *   0.87073    1.000000    
     69 O2    c    0.750000 *  0.231060 *  0.027050 *   0.87073    1.000000    
     70 O2    c    0.750000 *  0.768940 *  0.027050 *   0.87073    1.000000    
     71 O2    c    0.250000 *  0.231060 *  0.972950 *   0.87073    1.000000    
     72 O2    c    0.250000 *  0.768940 *  0.972950 *   0.87073    1.000000    
     73 O3    s    0.106570 *  0.174340 *  0.366200 *  -3.33043    1.000000    
     74 O3    s    0.393430 *  0.825660 *  0.366200 *  -3.33043    1.000000    
     75 O3    s    0.893430 *  0.174340 *  0.633800 *  -3.33043    1.000000    
     76 O2    s    0.606570 *  0.825660 *  0.633800 *  -2.87073    1.000000    
     77 O3    s    0.893430 *  0.825660 *  0.633800 *  -3.33043    1.000000    
     78 O2    s    0.606570 *  0.174340 *  0.633800 *  -2.87073    1.000000    
     79 O3    s    0.106570 *  0.825660 *  0.366200 *  -3.33043    1.000000    
     80 O2    s    0.393430 *  0.174340 *  0.366200 *  -2.87073    1.000000    
     81 O1    s    0.000000 *  0.000000 *  0.500000 *  -3.73396    1.000000    
     82 O2    s    0.500000 *  0.000000 *  0.500000 *  -2.87073    1.000000    
     83 O3    s    0.994520 *  0.000000 *  0.250840 *  -3.33043    1.000000    
     84 O2    s    0.505480 *  0.000000 *  0.250840 *  -2.87073    1.000000    
     85 O3    s    0.005480 *  0.000000 *  0.749160 *  -3.33043    1.000000    
     86 O2    s    0.494520 *  0.000000 *  0.749160 *  -2.87073    1.000000    
     87 O2    s    0.610230 *  0.175520 *  0.115390 *  -2.87073    1.000000    
     88 O2    s    0.889770 *  0.824480 *  0.115390 *  -2.87073    1.000000    
     89 O2    s    0.389770 *  0.175520 *  0.884610 *  -2.87073    1.000000    
     90 O2    s    0.110230 *  0.824480 *  0.884610 *  -2.87073    1.000000    
     91 O2    s    0.389770 *  0.824480 *  0.884610 *  -2.87073    1.000000    
     92 O2    s    0.110230 *  0.175520 *  0.884610 *  -2.87073    1.000000    
     93 O2    s    0.610230 *  0.824480 *  0.115390 *  -2.87073    1.000000    
     94 O2    s    0.889770 *  0.175520 *  0.115390 *  -2.87073    1.000000    
     95 O2    s    0.500000 *  0.000000 *  0.000000 *  -2.87073    1.000000    
     96 O2    s    0.000000 *  0.000000 *  0.000000 *  -2.87073    1.000000    
     97 O2    s    0.151750 *  0.500000 *  0.313330 *  -2.87073    1.000000    
     98 O3    s    0.348250 *  0.500000 *  0.313330 *  -3.33043    1.000000    
     99 O2    s    0.848250 *  0.500000 *  0.686670 *  -2.87073    1.000000    
    100 O2    s    0.651750 *  0.500000 *  0.686670 *  -2.87073    1.000000    
    101 O2    s    0.250000 *  0.234950 *  0.285720 *  -2.87073    1.000000    
    102 O3    s    0.250000 *  0.765050 *  0.285720 *  -3.33043    1.000000    
    103 O2    s    0.750000 *  0.234950 *  0.714280 *  -2.87073    1.000000    
    104 O2    s    0.750000 *  0.765050 *  0.714280 *  -2.87073    1.000000    
    105 O2    s    0.131410 *  0.268650 *  0.127790 *  -2.87073    1.000000    
    106 O3    s    0.368590 *  0.731350 *  0.127790 *  -3.33043    1.000000    
    107 O2    s    0.868590 *  0.268650 *  0.872210 *  -2.87073    1.000000    
    108 O2    s    0.631410 *  0.731350 *  0.872210 *  -2.87073    1.000000    
    109 O2    s    0.868590 *  0.731350 *  0.872210 *  -2.87073    1.000000    
    110 O2    s    0.631410 *  0.268650 *  0.872210 *  -2.87073    1.000000    
    111 O2    s    0.131410 *  0.731350 *  0.127790 *  -2.87073    1.000000    
    112 O2    s    0.368590 *  0.268650 *  0.127790 *  -2.87073    1.000000    
    113 O2    s    0.653920 *  0.500000 *  0.058200 *  -2.87073    1.000000    
    114 O2    s    0.846080 *  0.500000 *  0.058200 *  -2.87073    1.000000    
    115 O2    s    0.346080 *  0.500000 *  0.941800 *  -2.87073    1.000000    
    116 O2    s    0.153920 *  0.500000 *  0.941800 *  -2.87073    1.000000    
    117 O2    s    0.750000 *  0.231060 *  0.027050 *  -2.87073    1.000000    
    118 O2    s    0.750000 *  0.768940 *  0.027050 *  -2.87073    1.000000    
    119 O2    s    0.250000 *  0.231060 *  0.972950 *  -2.87073    1.000000    
    120 O2    s    0.250000 *  0.768940 *  0.972950 *  -2.87073    1.000000    
--------------------------------------------------------------------------------



********************************************************************************
*  General input information                                                   *
********************************************************************************

  Species output for all configurations : 

--------------------------------------------------------------------------------
  Species    Type    Atomic    Atomic    Charge       Radii (Angs)     Library
                     Number     Mass       (e)     Cova   Ionic  VDW   Symbol
--------------------------------------------------------------------------------
    Ge       Core       32      72.61   4.000000   1.170  0.000  1.750 Ge       
    Si       Core       14      28.09   4.000000   1.200  0.000  2.100 Si       
    O1       Core        8      16.00   1.733957   0.730  0.000  1.360 O1       
    O2       Core        8      16.00   0.870733   0.730  0.000  1.360 O2       
    O3       Core        8      16.00   1.330431   0.730  0.000  1.360 O3       
    O1       Shell       8       0.00  -3.733957   0.730  0.000  0.000 O1       
    O2       Shell       8       0.00  -2.870733   0.730  0.000  0.000 O2       
    O3       Shell       8       0.00  -3.330431   0.730  0.000  0.000 O3       
--------------------------------------------------------------------------------


  Lattice summation method               =    Ewald          (3-D)
                                         =    Parry          (2-D)
                                         =    Saunders et al (1-D)
  Accuracy factor for lattice sums       =   12.000


  Analytic derivatives to be used

  Time limit = Infinity

  Maximum range for interatomic potentials =    100000.000000 Angstroms

  General interatomic potentials :

--------------------------------------------------------------------------------
Atom  Types   Potential      Parameter       Value         Units   Cutoffs(Ang)
  1     2                                                            Min /  Max 
--------------------------------------------------------------------------------
Si   c O1   s Buckingham    Buckingham A     1315.2478    eV        0.000 16.000
                            Buckingham rho  0.31775900    Ang       
                            Buckingham C     10.141118    eV*Ang^6  
--------------------------------------------------------------------------------
Si   c O2   s Buckingham    Buckingham A     1315.2478    eV        0.000 16.000
                            Buckingham rho  0.31775900    Ang       
                            Buckingham C     10.141118    eV*Ang^6  
--------------------------------------------------------------------------------
Si   c O3   s Buckingham    Buckingham A     1315.2478    eV        0.000 16.000
                            Buckingham rho  0.31775900    Ang       
                            Buckingham C     10.141118    eV*Ang^6  
--------------------------------------------------------------------------------
Ge   c O1   s Buckingham    Buckingham A     1497.3996    eV        0.000 16.000
                            Buckingham rho  0.32564600    Ang       
                            Buckingham C     16.808599    eV*Ang^6  
--------------------------------------------------------------------------------
Ge   c O2   s Buckingham    Buckingham A     1497.3996    eV        0.000 16.000
                            Buckingham rho  0.32564600    Ang       
                            Buckingham C     16.808599    eV*Ang^6  
--------------------------------------------------------------------------------
Ge   c O3   s Buckingham    Buckingham A     1497.3996    eV        0.000 16.000
                            Buckingham rho  0.32564600    Ang       
                            Buckingham C     16.808599    eV*Ang^6  
--------------------------------------------------------------------------------
O1   s O1   s Buckingham    Buckingham A     22764.000    eV        0.000 16.000
                            Buckingham rho  0.14900000    Ang       
                            Buckingham C     10.937044    eV*Ang^6  
--------------------------------------------------------------------------------
O1   s O2   s Buckingham    Buckingham A     22764.000    eV        0.000 16.000
                            Buckingham rho  0.14900000    Ang       
                            Buckingham C     10.937044    eV*Ang^6  
--------------------------------------------------------------------------------
O1   s O3   s Buckingham    Buckingham A     22764.000    eV        0.000 16.000
                            Buckingham rho  0.14900000    Ang       
                            Buckingham C     10.937044    eV*Ang^6  
--------------------------------------------------------------------------------
O2   s O2   s Buckingham    Buckingham A     22764.000    eV        0.000 16.000
                            Buckingham rho  0.14900000    Ang       
                            Buckingham C     10.937044    eV*Ang^6  
--------------------------------------------------------------------------------
O2   s O3   s Buckingham    Buckingham A     22764.000    eV        0.000 16.000
                            Buckingham rho  0.14900000    Ang       
                            Buckingham C     10.937044    eV*Ang^6  
--------------------------------------------------------------------------------
O3   s O3   s Buckingham    Buckingham A     22764.000    eV        0.000 16.000
                            Buckingham rho  0.14900000    Ang       
                            Buckingham C     10.937044    eV*Ang^6  
--------------------------------------------------------------------------------
O1   c O1   s Spring (c-s)  Spring k 2       180.31577    eV*Ang^-2 0.000  0.800
                            Spring k 4       0.0000000    eV*Ang^-4 
--------------------------------------------------------------------------------
O2   c O2   s Spring (c-s)  Spring k 2       75.969800    eV*Ang^-2 0.000  0.800
                            Spring k 4       0.0000000    eV*Ang^-4 
--------------------------------------------------------------------------------
O3   c O3   s Spring (c-s)  Spring k 2       128.14270    eV*Ang^-2 0.000  0.800
                            Spring k 4       0.0000000    eV*Ang^-4 
--------------------------------------------------------------------------------

  General Three-body potentials :

--------------------------------------------------------------------------------
  Atoms       Potential      Parameter       Value         Units   Cutoffs(Ang)
  1 / 2 / 3                                                          Min /  Max 
--------------------------------------------------------------------------------
Si    core    Harmonic      Three-body cnst  1.2614000    eV*rad^-2 0.000  1.900
O1    shel                  Three-body angl  109.47000    degrees   0.000  1.900
O1    shel                  Three-body k4    0.0000000    eV*rad^-4 0.000  3.500
                            Three-body k3    0.0000000    eV*rad^-3 
--------------------------------------------------------------------------------
Si    core    Harmonic      Three-body cnst  1.2614000    eV*rad^-2 0.000  1.900
O1    shel                  Three-body angl  109.47000    degrees   0.000  1.900
õ(1   shel                  Three-body k4    0.0000000    eV*rad^-4 0.000  3.500
                            Three-body k3    0.0000000    eV*rad^-3 
--------------------------------------------------------------------------------
Si    core    Harmonic      Three-body cnst  1.2614000    eV*rad^-2 0.000  1.900
õ(1   shel                  Three-body angl  109.47000    degrees   0.000  1.900
õ(1   shel                  Three-body k4    0.0000000    eV*rad^-4 0.000  3.500
                            Three-body k3    0.0000000    eV*rad^-3 
--------------------------------------------------------------------------------
Si    core    Harmonic      Three-body cnst  1.2614000    eV*rad^-2 0.000  1.900
O1    shel                  Three-body angl  109.47000    degrees   0.000  1.900
O2    shel                  Three-body k4    0.0000000    eV*rad^-4 0.000  3.500
                            Three-body k3    0.0000000    eV*rad^-3 
--------------------------------------------------------------------------------
Si    core    Harmonic      Three-body cnst  1.2614000    eV*rad^-2 0.000  1.900
O1    shel                  Three-body angl  109.47000    degrees   0.000  1.900
õ(2   shel                  Three-body k4    0.0000000    eV*rad^-4 0.000  3.500
                            Three-body k3    0.0000000    eV*rad^-3 
--------------------------------------------------------------------------------
Si    core    Harmonic      Three-body cnst  1.2614000    eV*rad^-2 0.000  1.900
O2    shel                  Three-body angl  109.47000    degrees   0.000  1.900
õ(1   shel                  Three-body k4    0.0000000    eV*rad^-4 0.000  3.500
                            Three-body k3    0.0000000    eV*rad^-3 
--------------------------------------------------------------------------------
Si    core    Harmonic      Three-body cnst  1.2614000    eV*rad^-2 0.000  1.900
õ(1   shel                  Three-body angl  109.47000    degrees   0.000  1.900
õ(2   shel                  Three-body k4    0.0000000    eV*rad^-4 0.000  3.500
                            Three-body k3    0.0000000    eV*rad^-3 
--------------------------------------------------------------------------------
Si    core    Harmonic      Three-body cnst  1.2614000    eV*rad^-2 0.000  1.900
O2    shel                  Three-body angl  109.47000    degrees   0.000  1.900
O2    shel                  Three-body k4    0.0000000    eV*rad^-4 0.000  3.500
                            Three-body k3    0.0000000    eV*rad^-3 
--------------------------------------------------------------------------------
Si    core    Harmonic      Three-body cnst  1.2614000    eV*rad^-2 0.000  1.900
O2    shel                  Three-body angl  109.47000    degrees   0.000  1.900
õ(2   shel                  Three-body k4    0.0000000    eV*rad^-4 0.000  3.500
                            Three-body k3    0.0000000    eV*rad^-3 
--------------------------------------------------------------------------------
Si    core    Harmonic      Three-body cnst  1.2614000    eV*rad^-2 0.000  1.900
õ(2   shel                  Three-body angl  109.47000    degrees   0.000  1.900
õ(2   shel                  Three-body k4    0.0000000    eV*rad^-4 0.000  3.500
                            Three-body k3    0.0000000    eV*rad^-3 
--------------------------------------------------------------------------------

********************************************************************************
*  Output for configuration   1 : c00011.vasp                                  *
********************************************************************************


  Components of energy : 

--------------------------------------------------------------------------------
  Interatomic potentials     =         760.29927153 eV    
  Three-body potentials      =           0.01556745 eV    
  Monopole - monopole (real) =       -2676.00317478 eV    
  Monopole - monopole (recip)=       -1115.35404472 eV    
  Monopole - monopole (total)=       -3791.35721950 eV    
--------------------------------------------------------------------------------
  Total lattice energy       =       -3031.04238052 eV    
--------------------------------------------------------------------------------
  Total lattice energy       =         -292449.2560 kJ/(mole unit cells)
--------------------------------------------------------------------------------


  Number of variables =      363

  Maximum number of calculations  =          1000
  Maximum Hessian update interval =            10
  Maximum step size               =   0.100000000
  Maximum parameter tolerance     =   0.000010000
  Maximum function  tolerance     =   0.000010000
  Maximum gradient  tolerance     =   0.001000000
  Maximum gradient  component     =   0.010000000

  Symmetry not applied to optimisation

  Cell parameters to be optimised using strains

  Newton-Raphson optimiser to be used

  BFGS hessian update to be used

  Lower half triangular hessian to be used

  Minimiser to switch to RFO
  When gradient norm is less than     0.050000

  Dumpfile to be written after every cycle

  Start of bulk optimisation :

  Cycle:      0 Energy:     -3031.042381  Gnorm:      4.331566  CPU:    0.118
  ** Hessian calculated **
  Cycle:      1 Energy:     -3061.842384  Gnorm:      0.964015  CPU:    0.257
  ** Hessian calculated **
  Cycle:      2 Energy:     -3064.277344  Gnorm:      0.524378  CPU:    0.470
  Cycle:      3 Energy:     -3065.018396  Gnorm:      0.336386  CPU:    0.581
  Cycle:      4 Energy:     -3065.658506  Gnorm:      0.271909  CPU:    0.712
  Cycle:      5 Energy:     -3066.308486  Gnorm:      0.216567  CPU:    0.838
  Cycle:      6 Energy:     -3066.823328  Gnorm:      0.187453  CPU:    0.956
  Cycle:      7 Energy:     -3067.048332  Gnorm:      0.134731  CPU:    1.060
  Cycle:      8 Energy:     -3067.174483  Gnorm:      0.101037  CPU:    1.164
  Cycle:      9 Energy:     -3067.250531  Gnorm:      0.082311  CPU:    1.287
  Cycle:     10 Energy:     -3067.305764  Gnorm:      0.076673  CPU:    1.407
  Cycle:     11 Energy:     -3067.367889  Gnorm:      0.083502  CPU:    1.530
  ** Hessian calculated **
  Cycle:     12 Energy:     -3067.436176  Gnorm:      0.079541  CPU:    1.747
  Cycle:     13 Energy:     -3067.546883  Gnorm:      0.072564  CPU:    1.889
  Cycle:     14 Energy:     -3067.674455  Gnorm:      0.063466  CPU:    2.013
  Cycle:     15 Energy:     -3067.776459  Gnorm:      0.055592  CPU:    2.138
  ** Hessian calculated **
  Cycle:     16 Energy:     -3067.929209  Gnorm:      0.043808  CPU:    2.357
  ** Hessian has wrong structure
  ** Imaginary eigenvectors =   2
  Cycle:     17 Energy:     -3067.960417  Gnorm:      0.070780  CPU:    2.686
  ** Hessian has wrong structure
  ** Imaginary eigenvectors =   1
  ** Hessian has required structure
  Cycle:     18 Energy:     -3068.192715  Gnorm:      0.040761  CPU:    3.289
  ** Hessian has required structure
  Cycle:     19 Energy:     -3068.264837  Gnorm:      0.026594  CPU:    3.480
  ** Hessian has required structure
  Cycle:     20 Energy:     -3068.300445  Gnorm:      0.018689  CPU:    3.673
  ** Hessian has required structure
  Cycle:     21 Energy:     -3068.313427  Gnorm:      0.019492  CPU:    3.844
  ** Hessian has required structure
  Cycle:     22 Energy:     -3068.329765  Gnorm:      0.012561  CPU:    4.027
  ** Hessian has required structure
  Cycle:     23 Energy:     -3068.334910  Gnorm:      0.016409  CPU:    4.197
  ** Hessian has required structure
  Cycle:     24 Energy:     -3068.339304  Gnorm:      0.009865  CPU:    4.393
  ** Hessian has required structure
  Cycle:     25 Energy:     -3068.342412  Gnorm:      0.008462  CPU:    4.596
  ** Hessian has required structure
  Cycle:     26 Energy:     -3068.344710  Gnorm:      0.005547  CPU:    4.800
  ** Hessian has required structure
  Cycle:     27 Energy:     -3068.345938  Gnorm:      0.003744  CPU:    4.999
  ** Hessian has required structure
  Cycle:     28 Energy:     -3068.347253  Gnorm:      0.003177  CPU:    5.316
  ** Hessian has required structure
  Cycle:     29 Energy:     -3068.348491  Gnorm:      0.002838  CPU:    5.506
  ** Hessian has required structure
  Cycle:     30 Energy:     -3068.349000  Gnorm:      0.001444  CPU:    5.719
  ** Hessian has required structure
  Cycle:     31 Energy:     -3068.349107  Gnorm:      0.002005  CPU:    5.931
  ** Hessian has required structure
  Cycle:     32 Energy:     -3068.349210  Gnorm:      0.001030  CPU:    6.120
  ** Hessian has required structure
  Cycle:     33 Energy:     -3068.349238  Gnorm:      0.000907  CPU:    6.311
  ** Hessian has required structure
  Cycle:     34 Energy:     -3068.349254  Gnorm:      0.000649  CPU:    6.501
  ** Hessian has required structure
  Cycle:     35 Energy:     -3068.349267  Gnorm:      0.000483  CPU:    6.714
  ** Hessian has required structure
  Cycle:     36 Energy:     -3068.349269  Gnorm:      0.000444  CPU:    6.883
  ** Hessian has required structure
  Cycle:     37 Energy:     -3068.349269  Gnorm:      0.000441  CPU:    7.077
  ** Hessian has required structure
  Cycle:     38 Energy:     -3068.349273  Gnorm:      0.000279  CPU:    7.370
  ** Hessian has required structure
  Cycle:     39 Energy:     -3068.349273  Gnorm:      0.000229  CPU:    7.533
  ** Hessian has required structure
  Cycle:     40 Energy:     -3068.349274  Gnorm:      0.000215  CPU:    7.693
  ** Hessian has required structure
  Cycle:     41 Energy:     -3068.349274  Gnorm:      0.000188  CPU:    7.856
  ** Hessian has required structure
  Cycle:     42 Energy:     -3068.349275  Gnorm:      0.000156  CPU:    8.020
  ** Hessian has required structure
  Cycle:     43 Energy:     -3068.349278  Gnorm:      0.000125  CPU:    8.183
  ** Hessian has required structure
  Cycle:     44 Energy:     -3068.349278  Gnorm:      0.000124  CPU:    8.391
  ** Hessian has required structure
  Cycle:     45 Energy:     -3068.349278  Gnorm:      0.000123  CPU:    8.545
  ** Hessian has required structure
  Cycle:     46 Energy:     -3068.349278  Gnorm:      0.000123  CPU:    8.701
  ** Hessian has required structure
  Cycle:     47 Energy:     -3068.349278  Gnorm:      0.000121  CPU:    8.859
  ** Hessian has required structure
  Cycle:     48 Energy:     -3068.349278  Gnorm:      0.000121  CPU:    9.131
  ** Hessian has required structure
  Cycle:     49 Energy:     -3068.349277  Gnorm:      0.000120  CPU:    9.428
  ** Hessian has required structure
  Cycle:     50 Energy:     -3068.349278  Gnorm:      0.000085  CPU:    9.676
  ** Hessian has required structure


  **** Optimisation achieved ****


  Final energy =   -3068.34927788 eV      
  Final Gnorm  =       0.00006027

  Components of energy : 

--------------------------------------------------------------------------------
  Interatomic potentials     =         814.64200471 eV    
  Three-body potentials      =           0.19743999 eV    
  Monopole - monopole (real) =       -2210.57814370 eV    
  Monopole - monopole (recip)=       -1672.61057889 eV    
  Monopole - monopole (total)=       -3883.18872259 eV    
--------------------------------------------------------------------------------
  Total lattice energy       =       -3068.34927788 eV    
--------------------------------------------------------------------------------
  Total lattice energy       =         -296048.8013 kJ/(mole unit cells)
--------------------------------------------------------------------------------

  Final fractional coordinates of atoms :

--------------------------------------------------------------------------------
   No.  Atomic        x           y          z          Radius
        Label       (Frac)      (Frac)     (Frac)       (Angs) 
--------------------------------------------------------------------------------
     1  Ge    c     0.052090    0.000000    0.372270    0.000000
     2  Ge    c     0.948821    0.004880    0.638631    0.000000
     3  Ge    c     0.349101    0.692197    0.306220    0.000000
     4  Si    c     0.456892    0.991746    0.384658    0.000000
     5  Si    c     0.550037    0.012088    0.647540    0.000000
     6  Si    c     0.558238    0.005352    0.128854    0.000000
     7  Si    c     0.947709    0.000456    0.111822    0.000000
     8  Si    c     0.442194    0.002985    0.888454    0.000000
     9  Si    c     0.060753    0.010668    0.881336    0.000000
    10  Si    c     0.164146    0.298764    0.300535    0.000000
    11  Si    c     0.835289    0.302077    0.739752    0.000000
    12  Si    c     0.659193    0.710616    0.742073    0.000000
    13  Si    c     0.836276    0.706848    0.738636    0.000000
    14  Si    c     0.658389    0.308427    0.743618    0.000000
    15  Si    c     0.167397    0.703720    0.307033    0.000000
    16  Si    c     0.343202    0.283281    0.298191    0.000000
    17  Si    c     0.662271    0.307795    0.050862    0.000000
    18  Si    c     0.841012    0.701128    0.044086    0.000000
    19  Si    c     0.339118    0.300216    0.992138    0.000000
    20  Si    c     0.164735    0.710960    0.000485    0.000000
    21  Si    c     0.343558    0.700877    0.993986    0.000000
    22  Si    c     0.160096    0.309874    0.996349    0.000000
    23  Si    c     0.663302    0.704318    0.049227    0.000000
    24  Si    c     0.839898    0.302145    0.045454    0.000000
    25  O3    c     0.110207    0.182319    0.388805    0.000000
    26  O3    c     0.413538    0.809607    0.398467    0.000000
    27  O3    c     0.891573    0.187522    0.655602    0.000000
    28  O2    c     0.602444    0.838683    0.662060    0.000000
    29  O3    c     0.893483    0.820087    0.654798    0.000000
    30  O2    c     0.600810    0.185001    0.665168    0.000000
    31  O3    c     0.110832    0.817635    0.392602    0.000000
    32  O2    c     0.391593    0.142478    0.382040    0.000000
    33  O1    c     0.979083    0.004499    0.479763    0.000000
    34  O2    c     0.516727    0.020451    0.501651    0.000000
    35  O3    c     0.015185    0.996651    0.215016    0.000000
    36  O2    c     0.503268    0.999714    0.250677    0.000000
    37  O3    c     0.032598    0.005964    0.732277    0.000000
    38  O2    c     0.478421    0.007537    0.745340    0.000000
    39  O2    c     0.610408    0.178744    0.136296    0.000000
    40  O2    c     0.895383    0.827066    0.128180    0.000000
    41  O2    c     0.386989    0.171809    0.900754    0.000000
    42  O2    c     0.113965    0.842048    0.912122    0.000000
    43  O2    c     0.393630    0.825200    0.900811    0.000000
    44  O2    c     0.107032    0.189939    0.905360    0.000000
    45  O2    c     0.612640    0.833960    0.134880    0.000000
    46  O2    c     0.893805    0.171961    0.130447    0.000000
    47  O2    c     0.510119    0.008365    0.994826    0.000000
    48  O2    c     0.983342    0.005297    0.966433    0.000000
    49  O2    c     0.146763    0.500945    0.327381    0.000000
    50  O3    c     0.370199    0.475089    0.333400    0.000000
    51  O2    c     0.854420    0.504242    0.713190    0.000000
    52  O2    c     0.637717    0.510294    0.711016    0.000000
    53  O2    c     0.253615    0.258233    0.333281    0.000000
    54  O3    c     0.255299    0.736131    0.349046    0.000000
    55  O2    c     0.745921    0.266433    0.701681    0.000000
    56  O2    c     0.747062    0.748414    0.700535    0.000000
    57  O2    c     0.147532    0.255764    0.147437    0.000000
    58  O3    c     0.361021    0.747537    0.143147    0.000000
    59  O2    c     0.848116    0.255338    0.893009    0.000000
    60  O2    c     0.649843    0.746805    0.896004    0.000000
    61  O2    c     0.849531    0.750303    0.891493    0.000000
    62  O2    c     0.649354    0.269655    0.897708    0.000000
    63  O2    c     0.156500    0.756758    0.153158    0.000000
    64  O2    c     0.354736    0.249566    0.143476    0.000000
    65  O2    c     0.637736    0.506470    0.081898    0.000000
    66  O2    c     0.866423    0.500672    0.071473    0.000000
    67  O2    c     0.365875    0.499114    0.966679    0.000000
    68  O2    c     0.136817    0.512948    0.973599    0.000000
    69  O2    c     0.751732    0.277502    0.089338    0.000000
    70  O2    c     0.752859    0.729230    0.087159    0.000000
    71  O2    c     0.248871    0.280540    0.957464    0.000000
    72  O2    c     0.253465    0.731351    0.960029    0.000000
    73  O3    s     0.111311    0.180255    0.378200    0.000000
    74  O3    s     0.412556    0.818243    0.389444    0.000000
    75  O3    s     0.890258    0.184673    0.663338    0.000000
    76  O2    s     0.603189    0.843029    0.669611    0.000000
    77  O3    s     0.891878    0.823184    0.662608    0.000000
    78  O2    s     0.601818    0.180044    0.672275    0.000000
    79  O3    s     0.112013    0.820295    0.382162    0.000000
    80  O2    s     0.393171    0.142162    0.372850    0.000000
    81  O1    s     0.982869    0.004160    0.483231    0.000000
    82  O2    s     0.513622    0.016097    0.504976    0.000000
    83  O3    s     0.010656    0.997365    0.216591    0.000000
    84  O2    s     0.504635    0.999502    0.251151    0.000000
    85  O3    s     0.028746    0.006348    0.739887    0.000000
    86  O2    s     0.482277    0.007516    0.750679    0.000000
    87  O2    s     0.610639    0.174677    0.125892    0.000000
    88  O2    s     0.894803    0.831097    0.117211    0.000000
    89  O2    s     0.387566    0.167996    0.909740    0.000000
    90  O2    s     0.113932    0.845554    0.918818    0.000000
    91  O2    s     0.393366    0.830734    0.909759    0.000000
    92  O2    s     0.108019    0.184198    0.912961    0.000000
    93  O2    s     0.612518    0.837721    0.124522    0.000000
    94  O2    s     0.893465    0.168562    0.119202    0.000000
    95  O2    s     0.507851    0.007409    0.997953    0.000000
    96  O2    s     0.987859    0.005363    0.972507    0.000000
    97  O2    s     0.150908    0.500679    0.322209    0.000000
    98  O3    s     0.365649    0.473271    0.327517    0.000000
    99  O2    s     0.850343    0.504310    0.718857    0.000000
   100  O2    s     0.642214    0.510140    0.717787    0.000000
   101  O2    s     0.253624    0.265284    0.325953    0.000000
   102  O3    s     0.254266    0.729313    0.341368    0.000000
   103  O2    s     0.745973    0.274621    0.710117    0.000000
   104  O2    s     0.747041    0.740062    0.708919    0.000000
   105  O2    s     0.150561    0.265833    0.146985    0.000000
   106  O3    s     0.358306    0.738435    0.141162    0.000000
   107  O2    s     0.845868    0.265234    0.893179    0.000000
   108  O2    s     0.652314    0.738342    0.895966    0.000000
   109  O2    s     0.847198    0.740472    0.891776    0.000000
   110  O2    s     0.651748    0.277967    0.897638    0.000000
   111  O2    s     0.158469    0.746552    0.152405    0.000000
   112  O2    s     0.351845    0.258467    0.143320    0.000000
   113  O2    s     0.643073    0.506339    0.075107    0.000000
   114  O2    s     0.860913    0.500881    0.065819    0.000000
   115  O2    s     0.360690    0.499130    0.972238    0.000000
   116  O2    s     0.142163    0.512274    0.978798    0.000000
   117  O2    s     0.751603    0.283518    0.080416    0.000000
   118  O2    s     0.752687    0.723403    0.078356    0.000000
   119  O2    s     0.249062    0.285930    0.965463    0.000000
   120  O2    s     0.253458    0.725756    0.968110    0.000000
--------------------------------------------------------------------------------

  Final Cartesian lattice vectors (Angstroms) :

       17.328672    0.053865   -0.104345
        0.023609    7.657650    0.041415
       -0.063504    0.058222   10.204126


  Final cell parameters and derivatives :

--------------------------------------------------------------------------------
       a           17.329070 Angstrom     dE/de1(xx)     0.006119 eV/strain
       b            7.657799 Angstrom     dE/de2(yy)     0.006352 eV/strain
       c           10.204490 Angstrom     dE/de3(zz)     0.003325 eV/strain
       alpha       89.364331 Degrees      dE/de4(yz)    -0.000030 eV/strain
       beta        90.700541 Degrees      dE/de5(xz)     0.000262 eV/strain
       gamma       89.647129 Degrees      dE/de6(xy)     0.000513 eV/strain
--------------------------------------------------------------------------------

  Primitive cell volume =          1353.950191 Angs**3

  Density of cell =      1.932557 g/cm**3

  Non-primitive cell volume =          1353.950191 Angs**3


  Final internal derivatives :

--------------------------------------------------------------------------------
   No.  Atomic          a             b             c           Radius
        Label          (eV)          (eV)          (eV)        (eV/Angs)
--------------------------------------------------------------------------------
      1 Ge    c       0.000000      0.000000      0.000000      0.000000
      2 Ge    c       0.000563      0.000040      0.000185      0.000000
      3 Ge    c      -0.000531     -0.000395     -0.000434      0.000000
      4 Si    c       0.001932      0.000314      0.000147      0.000000
      5 Si    c      -0.000448     -0.000060      0.000360      0.000000
      6 Si    c      -0.000598      0.000083      0.000157      0.000000
      7 Si    c       0.000231      0.000070     -0.000434      0.000000
      8 Si    c       0.000385      0.000255     -0.001380      0.000000
      9 Si    c      -0.000737     -0.000146     -0.000545      0.000000
     10 Si    c       0.000314      0.000225     -0.000144      0.000000
     11 Si    c      -0.000097      0.000076      0.000041      0.000000
     12 Si    c      -0.000042     -0.000024     -0.000096      0.000000
     13 Si    c      -0.000027     -0.000092      0.000002      0.000000
     14 Si    c      -0.000180      0.000028      0.000011      0.000000
     15 Si    c      -0.002679      0.001242     -0.001433      0.000000
     16 Si    c       0.002011     -0.000906     -0.001997      0.000000
     17 Si    c       0.000182      0.000058     -0.000252      0.000000
     18 Si    c      -0.000072     -0.000080     -0.000116      0.000000
     19 Si    c       0.001230     -0.000649      0.000673      0.000000
     20 Si    c      -0.001137      0.000736      0.000556      0.000000
     21 Si    c       0.000024      0.000005      0.000877      0.000000
     22 Si    c      -0.000069     -0.000257      0.000366      0.000000
     23 Si    c       0.000041     -0.000057     -0.000153      0.000000
     24 Si    c       0.000006      0.000016     -0.000077      0.000000
     25 O3    c       0.002021      0.001209      0.000572      0.000000
     26 O3    c      -0.003626     -0.003044      0.001078      0.000000
     27 O3    c       0.000153     -0.000009     -0.000174      0.000000
     28 O2    c      -0.000058     -0.000049     -0.000146      0.000000
     29 O3    c      -0.000163     -0.000138     -0.000095      0.000000
     30 O2    c       0.000098      0.000119     -0.000068      0.000000
     31 O3    c       0.002092     -0.001799      0.001155      0.000000
     32 O2    c      -0.004315      0.001493      0.001093      0.000000
     33 O1    c      -0.000883      0.000003      0.000476      0.000000
     34 O2    c       0.001669      0.000155      0.000981      0.000000
     35 O3    c       0.000645     -0.000141     -0.001460      0.000000
     36 O2    c       0.000958     -0.000039     -0.002227      0.000000
     37 O3    c       0.000242     -0.000033     -0.000392      0.000000
     38 O2    c      -0.000815      0.000022      0.000153      0.000000
     39 O2    c       0.000363      0.000346      0.000233      0.000000
     40 O2    c      -0.000338     -0.000291      0.000272      0.000000
     41 O2    c      -0.002178      0.001418     -0.000082      0.000000
     42 O2    c       0.001785     -0.001390      0.000174      0.000000
     43 O2    c      -0.001493     -0.001315     -0.000169      0.000000
     44 O2    c       0.001111      0.001303      0.000037      0.000000
     45 O2    c       0.000692     -0.000482      0.000190      0.000000
     46 O2    c      -0.000380      0.000317      0.000195      0.000000
     47 O2    c       0.003128     -0.000025      0.001437      0.000000
     48 O2    c      -0.001922      0.000031      0.000767      0.000000
     49 O2    c      -0.001225     -0.003312      0.000296      0.000000
     50 O3    c       0.002231      0.003821      0.000803      0.000000
     51 O2    c      -0.000031     -0.000012      0.000091      0.000000
     52 O2    c       0.000009      0.000026      0.000070      0.000000
     53 O2    c      -0.006985     -0.000496      0.000693      0.000000
     54 O3    c       0.009146      0.000639      0.001068      0.000000
     55 O2    c       0.000286     -0.000023     -0.000026      0.000000
     56 O2    c      -0.000010      0.000022     -0.000024      0.000000
     57 O2    c      -0.000170     -0.000118     -0.000236      0.000000
     58 O3    c      -0.000506     -0.000019     -0.000757      0.000000
     59 O2    c       0.000134     -0.000056     -0.000020      0.000000
     60 O2    c      -0.000097      0.000060      0.000141      0.000000
     61 O2    c       0.000064      0.000046     -0.000045      0.000000
     62 O2    c      -0.000055     -0.000057      0.000054      0.000000
     63 O2    c       0.000225      0.000067      0.000272      0.000000
     64 O2    c      -0.000158     -0.000009      0.000692      0.000000
     65 O2    c      -0.000055      0.000030     -0.000015      0.000000
     66 O2    c       0.000058     -0.000034     -0.000037      0.000000
     67 O2    c       0.000732      0.001440     -0.000212      0.000000
     68 O2    c      -0.001001     -0.000978     -0.000353      0.000000
     69 O2    c       0.000043     -0.000052      0.000011      0.000000
     70 O2    c      -0.000302      0.000061      0.000032      0.000000
     71 O2    c      -0.002606     -0.000210     -0.000376      0.000000
     72 O2    c       0.003325      0.000143     -0.000396      0.000000
     73 O3    s       0.000586      0.000320      0.000114      0.000000
     74 O3    s      -0.000165     -0.000774     -0.000015      0.000000
     75 O3    s      -0.000197      0.000100      0.000033      0.000000
     76 O2    s       0.000500     -0.000197      0.000055      0.000000
     77 O3    s      -0.000052     -0.000023      0.000024      0.000000
     78 O2    s       0.000438      0.000145     -0.000074      0.000000
     79 O3    s      -0.002144      0.000852      0.000084      0.000000
     80 O2    s       0.000315      0.000487      0.000522      0.000000
     81 O1    s      -0.001105      0.000042     -0.000034      0.000000
     82 O2    s       0.002519      0.000235      0.000363      0.000000
     83 O3    s      -0.001242      0.000237      0.000427      0.000000
     84 O2    s       0.003036     -0.000161     -0.000198      0.000000
     85 O3    s      -0.001144      0.000063     -0.000410      0.000000
     86 O2    s       0.001188     -0.000143     -0.000580      0.000000
     87 O2    s       0.000313      0.000355      0.000163      0.000000
     88 O2    s      -0.000049     -0.000253     -0.000026      0.000000
     89 O2    s      -0.000346      0.000228     -0.000397      0.000000
     90 O2    s      -0.000253     -0.000087     -0.000194      0.000000
     91 O2    s      -0.001261     -0.000755     -0.000475      0.000000
     92 O2    s       0.000721      0.000452     -0.000301      0.000000
     93 O2    s       0.000497     -0.000238      0.000026      0.000000
     94 O2    s      -0.000306      0.000208     -0.000025      0.000000
     95 O2    s       0.001501     -0.000145     -0.000322      0.000000
     96 O2    s      -0.001449      0.000035     -0.000258      0.000000
     97 O2    s       0.000418     -0.000545      0.000081      0.000000
     98 O3    s      -0.000588     -0.000315     -0.000394      0.000000
     99 O2    s      -0.000081     -0.000007      0.000037      0.000000
    100 O2    s       0.000130      0.000013      0.000018      0.000000
    101 O2    s      -0.001452      0.000341     -0.000105      0.000000
    102 O3    s      -0.001456     -0.000033     -0.000183      0.000000
    103 O2    s       0.000033      0.000112      0.000039      0.000000
    104 O2    s       0.000083     -0.000115      0.000059      0.000000
    105 O2    s       0.000871      0.000422      0.000461      0.000000
    106 O3    s      -0.000557     -0.000479      0.000522      0.000000
    107 O2    s      -0.000205      0.000117     -0.000039      0.000000
    108 O2    s       0.000150     -0.000106     -0.000036      0.000000
    109 O2    s       0.000014     -0.000102     -0.000065      0.000000
    110 O2    s       0.000079      0.000138     -0.000011      0.000000
    111 O2    s      -0.001012      0.000632     -0.000648      0.000000
    112 O2    s       0.001238     -0.000307     -0.000754      0.000000
    113 O2    s       0.000132      0.000005     -0.000013      0.000000
    114 O2    s      -0.000099     -0.000008      0.000047      0.000000
    115 O2    s      -0.000139      0.000392      0.000116      0.000000
    116 O2    s      -0.000168     -0.000311     -0.000009      0.000000
    117 O2    s       0.000034      0.000100     -0.000015      0.000000
    118 O2    s      -0.000020     -0.000083     -0.000069      0.000000
    119 O2    s      -0.000673     -0.000028     -0.000019      0.000000
    120 O2    s       0.000751     -0.000075      0.000032      0.000000
--------------------------------------------------------------------------------
  Maximum abs         0.009146      0.003821      0.002227      0.000000
--------------------------------------------------------------------------------


  Born effective charge tensors : 

-------------------------------------------------------------------------------
  Atom             x           y             z
-------------------------------------------------------------------------------
    1 Ge    x       4.3394      0.0136      0.0169
            y      -0.0053      3.8951      0.0076
            z      -0.9792      0.0347      4.5011
-------------------------------------------------------------------------------
    2 Ge    x       4.2885      0.0171     -0.4441
            y       0.0022      3.9460      0.0250
            z      -0.3054      0.0257      4.7248
-------------------------------------------------------------------------------
    3 Ge    x       3.9250      0.2796      0.1409
            y       0.3552      4.1783      0.2272
            z       0.1697      0.0648      3.4504
-------------------------------------------------------------------------------
    4 Si    x       3.5426      0.2783      0.0203
            y       0.0778      3.4771     -0.0559
            z       0.6111      0.1138      3.8273
-------------------------------------------------------------------------------
    5 Si    x       3.4064      0.0031      0.2872
            y       0.0012      3.2843      0.0247
            z       0.2582     -0.0261      3.8000
-------------------------------------------------------------------------------
    6 Si    x       3.4984      0.0135     -0.0585
            y      -0.0067      3.2857      0.0105
            z      -0.5680     -0.0166      3.0540
-------------------------------------------------------------------------------
    7 Si    x       3.8845      0.0095      0.1613
            y      -0.0023      3.3189     -0.0004
            z       0.8230     -0.0095      3.0836
-------------------------------------------------------------------------------
    8 Si    x       3.5429      0.0217     -0.2875
            y      -0.0356      3.2728      0.0067
            z      -0.3986      0.0130      3.1272
-------------------------------------------------------------------------------
    9 Si    x       3.6639      0.0526      0.5309
            y      -0.0251      3.3438      0.0001
            z       0.4567      0.0418      3.5062
-------------------------------------------------------------------------------
   10 Si    x       3.4037      0.3713     -0.2558
            y       0.3694      3.5215     -0.3172
            z      -0.2135     -0.1609      2.9898
-------------------------------------------------------------------------------
   11 Si    x       3.4230     -0.3781     -0.2367
            y      -0.4071      3.5524      0.3095
            z      -0.2629      0.1794      2.9688
-------------------------------------------------------------------------------
   12 Si    x       3.1660     -0.2518      0.0914
            y      -0.2676      3.4526     -0.1415
            z       0.1342     -0.0854      2.8091
-------------------------------------------------------------------------------
   13 Si    x       3.4336      0.3694     -0.2379
            y       0.4179      3.5455     -0.2996
            z      -0.2684     -0.1722      2.9611
-------------------------------------------------------------------------------
   14 Si    x       3.1652      0.2422      0.0884
            y       0.2763      3.4552      0.1425
            z       0.1433      0.0907      2.8080
-------------------------------------------------------------------------------
   15 Si    x       3.7471     -0.3396     -0.1433
            y      -0.3323      3.5990      0.3314
            z      -0.1550      0.1599      3.0367
-------------------------------------------------------------------------------
   16 Si    x       3.2478     -0.2120      0.1528
            y      -0.0731      3.7386     -0.0470
            z       0.1316     -0.0055      2.9027
-------------------------------------------------------------------------------
   17 Si    x       3.2348      0.2913     -0.1397
            y       0.2194      3.4166     -0.1555
            z      -0.1382     -0.0679      2.7115
-------------------------------------------------------------------------------
   18 Si    x       3.2541      0.2926      0.1233
            y       0.2118      3.4101      0.1645
            z       0.1171      0.0351      2.6379
-------------------------------------------------------------------------------
   19 Si    x       3.2677     -0.2953     -0.1744
            y      -0.1779      3.4252      0.1853
            z      -0.1320      0.0659      2.7318
-------------------------------------------------------------------------------
   20 Si    x       3.2543     -0.2923      0.1282
            y      -0.1700      3.4616     -0.1946
            z       0.1273     -0.0677      2.7053
-------------------------------------------------------------------------------
   21 Si    x       3.3374      0.3085     -0.1067
            y       0.2447      3.5350     -0.1130
            z      -0.0806      0.0029      3.0224
-------------------------------------------------------------------------------
   22 Si    x       3.2792      0.2567      0.1461
            y       0.2079      3.4417      0.2195
            z       0.1255      0.0622      2.7034
-------------------------------------------------------------------------------
   23 Si    x       3.2250     -0.2941     -0.1410
            y      -0.2034      3.4136      0.1579
            z      -0.1343      0.0763      2.7151
-------------------------------------------------------------------------------
   24 Si    x       3.2573     -0.3008      0.1158
            y      -0.2042      3.4079     -0.1556
            z       0.1135     -0.0256      2.6362
-------------------------------------------------------------------------------
   25 O3    x      -2.0710     -0.9645      0.4027
            y      -0.9581     -2.3096      0.4291
            z       0.5104      0.4204     -1.5945
-------------------------------------------------------------------------------
   26 O3    x      -1.9772     -0.9386     -0.3144
            y      -0.9466     -2.4939     -0.3075
            z      -0.4227     -0.3083     -1.5393
-------------------------------------------------------------------------------
   27 O3    x      -2.0993      0.9606      0.5439
            y       0.9982     -2.3427     -0.5510
            z       0.5600     -0.5283     -1.6081
-------------------------------------------------------------------------------
   28 O2    x      -1.6955      0.7345     -0.3423
            y       0.7395     -2.0060      0.3451
            z      -0.3588      0.3507     -1.3405
-------------------------------------------------------------------------------
   29 O3    x      -2.1052     -0.9663      0.5369
            y      -0.9989     -2.3418      0.5259
            z       0.5627      0.5148     -1.5963
-------------------------------------------------------------------------------
   30 O2    x      -1.6962     -0.7340     -0.3540
            y      -0.7411     -2.0058     -0.3653
            z      -0.3737     -0.3634     -1.3440
-------------------------------------------------------------------------------
   31 O3    x      -2.0666      0.9439      0.3811
            y       0.9624     -2.3049     -0.4058
            z       0.4983     -0.3925     -1.5906
-------------------------------------------------------------------------------
   32 O2    x      -1.7691      0.6792     -0.2906
            y       0.7154     -1.8674      0.3169
            z      -0.3574      0.2840     -1.3668
-------------------------------------------------------------------------------
   33 O1    x      -2.1964      0.0151      1.1415
            y       0.0074     -1.2874     -0.0134
            z       1.4234     -0.0370     -3.5674
-------------------------------------------------------------------------------
   34 O2    x      -1.5799     -0.0493     -0.7673
            y      -0.0196     -1.0956     -0.0350
            z      -0.9486     -0.0653     -2.7322
-------------------------------------------------------------------------------
   35 O3    x      -2.2241     -0.0049     -1.0568
            y       0.0033     -1.2575     -0.0047
            z      -0.9843     -0.0094     -2.5699
-------------------------------------------------------------------------------
   36 O2    x      -1.7023     -0.0232      0.7269
            y       0.0075     -1.1283      0.0090
            z       0.7161      0.0084     -2.2558
-------------------------------------------------------------------------------
   37 O3    x      -2.0827     -0.0323     -0.8834
            y      -0.0099     -1.2205     -0.0261
            z      -0.8741     -0.0486     -2.7664
-------------------------------------------------------------------------------
   38 O2    x      -1.7748     -0.0223      0.7042
            y      -0.0041     -1.1040      0.0091
            z       0.7064      0.0215     -2.1858
-------------------------------------------------------------------------------
   39 O2    x      -1.7065     -0.7353      0.2699
            y      -0.6932     -1.9940      0.2916
            z       0.3391      0.2962     -1.2178
-------------------------------------------------------------------------------
   40 O2    x      -1.7355     -0.7354     -0.2235
            y      -0.6785     -1.9858     -0.2392
            z      -0.3151     -0.2417     -1.1867
-------------------------------------------------------------------------------
   41 O2    x      -1.7160      0.7339      0.3887
            y       0.6782     -1.9760     -0.3999
            z       0.3626     -0.3692     -1.2789
-------------------------------------------------------------------------------
   42 O2    x      -1.7246      0.7301     -0.4089
            y       0.6777     -2.0121      0.4346
            z      -0.3564      0.3732     -1.2708
-------------------------------------------------------------------------------
   43 O2    x      -1.6983     -0.7277      0.3637
            y      -0.6607     -2.0142      0.3709
            z       0.3498      0.3472     -1.2568
-------------------------------------------------------------------------------
   44 O2    x      -1.7044     -0.7197     -0.4106
            y      -0.6497     -2.0160     -0.4187
            z      -0.3578     -0.3720     -1.2816
-------------------------------------------------------------------------------
   45 O2    x      -1.7023      0.7281      0.2797
            y       0.6891     -1.9842     -0.3104
            z       0.3478     -0.3121     -1.2262
-------------------------------------------------------------------------------
   46 O2    x      -1.7351      0.7299     -0.2101
            y       0.6786     -1.9780      0.2264
            z      -0.3023      0.2285     -1.1875
-------------------------------------------------------------------------------
   47 O2    x      -1.8578     -0.0145     -0.6344
            y      -0.0030     -1.1508     -0.0143
            z      -0.3704     -0.0103     -1.7300
-------------------------------------------------------------------------------
   48 O2    x      -1.9520     -0.0271      0.5410
            y      -0.0059     -1.1693      0.0145
            z       0.2954      0.0146     -1.6249
-------------------------------------------------------------------------------
   49 O2    x      -1.1759      0.0154      0.0629
            y       0.0007     -2.4713     -0.0329
            z       0.0727     -0.0280     -1.0993
-------------------------------------------------------------------------------
   50 O3    x      -1.3167     -0.1155     -0.1008
            y      -0.1391     -3.1773     -0.1196
            z      -0.1152     -0.1214     -1.2160
-------------------------------------------------------------------------------
   51 O2    x      -1.1790     -0.0065      0.0600
            y      -0.0104     -2.4858     -0.0024
            z       0.0806     -0.0022     -1.0841
-------------------------------------------------------------------------------
   52 O2    x      -1.1435     -0.0059     -0.0593
            y      -0.0093     -2.5712      0.0009
            z      -0.0812     -0.0036     -1.0730
-------------------------------------------------------------------------------
   53 O2    x      -2.3891      0.0917      0.0048
            y       0.0756     -1.2398      0.0620
            z      -0.0040      0.0403     -1.0921
-------------------------------------------------------------------------------
   54 O3    x      -2.9793     -0.0187     -0.0780
            y      -0.0678     -1.3841     -0.0962
            z      -0.0970     -0.0612     -1.2382
-------------------------------------------------------------------------------
   55 O2    x      -2.3417     -0.0004      0.0060
            y      -0.0128     -1.2521     -0.0749
            z       0.0058     -0.0580     -1.0886
-------------------------------------------------------------------------------
   56 O2    x      -2.3459      0.0241      0.0061
            y       0.0261     -1.2520      0.0729
            z       0.0086      0.0557     -1.0881
-------------------------------------------------------------------------------
   57 O2    x      -1.2192     -0.1370     -0.0413
            y      -0.1152     -1.2890      0.0134
            z      -0.0524      0.0051     -2.0301
-------------------------------------------------------------------------------
   58 O3    x      -1.3405     -0.1591     -0.0710
            y      -0.1467     -1.4460     -0.0705
            z      -0.0545     -0.0362     -2.6048
-------------------------------------------------------------------------------
   59 O2    x      -1.2045      0.1365     -0.0635
            y       0.1124     -1.2881      0.0092
            z      -0.0606      0.0159     -2.0069
-------------------------------------------------------------------------------
   60 O2    x      -1.1751      0.1236      0.0006
            y       0.1082     -1.2689      0.0028
            z       0.0032      0.0013     -2.0679
-------------------------------------------------------------------------------
   61 O2    x      -1.2030     -0.1346     -0.0625
            y      -0.1143     -1.2874     -0.0096
            z      -0.0612     -0.0149     -2.0040
-------------------------------------------------------------------------------
   62 O2    x      -1.1737     -0.1210      0.0013
            y      -0.1092     -1.2683     -0.0031
            z       0.0038      0.0037     -2.0674
-------------------------------------------------------------------------------
   63 O2    x      -1.2021      0.1302     -0.0004
            y       0.0968     -1.3124      0.0115
            z      -0.0187      0.0249     -2.0500
-------------------------------------------------------------------------------
   64 O2    x      -1.2036      0.1275     -0.0027
            y       0.1001     -1.2648      0.0500
            z       0.0080      0.0555     -2.0792
-------------------------------------------------------------------------------
   65 O2    x      -1.2046     -0.0056      0.0855
            y      -0.0117     -2.4975      0.0000
            z       0.1010     -0.0052     -1.0307
-------------------------------------------------------------------------------
   66 O2    x      -1.2239     -0.0061     -0.0772
            y      -0.0115     -2.5113     -0.0019
            z      -0.0907     -0.0039     -0.9993
-------------------------------------------------------------------------------
   67 O2    x      -1.2299     -0.0245      0.0795
            y      -0.0382     -2.5546      0.0109
            z       0.0892      0.0161     -1.0189
-------------------------------------------------------------------------------
   68 O2    x      -1.2296     -0.0121     -0.0732
            y      -0.0389     -2.5737     -0.0294
            z      -0.0840     -0.0104     -1.0064
-------------------------------------------------------------------------------
   69 O2    x      -2.4076      0.0130      0.0326
            y       0.0044     -1.2291      0.0628
            z       0.0244      0.0354     -1.0432
-------------------------------------------------------------------------------
   70 O2    x      -2.4068      0.0068      0.0292
            y       0.0085     -1.2303     -0.0650
            z       0.0245     -0.0384     -1.0416
-------------------------------------------------------------------------------
   71 O2    x      -2.4654      0.0292      0.0298
            y       0.0214     -1.2289     -0.0687
            z       0.0192     -0.0344     -1.0357
-------------------------------------------------------------------------------
   72 O2    x      -2.4547      0.0316      0.0696
            y       0.0093     -1.2492      0.0635
            z       0.0530      0.0335     -1.0304
-------------------------------------------------------------------------------




  Elastic Constant Matrix: (Units=GPa)

-------------------------------------------------------------------------------
  Indices      1         2         3         4         5         6    
-------------------------------------------------------------------------------
       1     75.0766   54.5924   20.6516    2.0151   -3.7773    9.8399
       2     54.5924  105.8209   22.2957    2.3620   -5.6645   14.4413
       3     20.6516   22.2957   23.3629    0.6511    1.4128    0.5341
       4      2.0151    2.3620    0.6511   10.4584    0.7925    0.2923
       5     -3.7773   -5.6645    1.4128    0.7925   20.0407    5.6302
       6      9.8399   14.4413    0.5341    0.2923    5.6302   14.9753
-------------------------------------------------------------------------------


  Elastic Compliance Matrix: (Units=1/GPa)

-------------------------------------------------------------------------------
  Indices      1         2         3         4         5         6    
-------------------------------------------------------------------------------
       1    0.024839 -0.007917 -0.014490 -0.002295  0.006528 -0.010579
       2   -0.007917  0.018435 -0.010717 -0.002213  0.008916 -0.015502
       3   -0.014490 -0.010717  0.066286  0.001722 -0.017225  0.023935
       4   -0.002295 -0.002213  0.001722  0.096805 -0.006130  0.003995
       5    0.006528  0.008916 -0.017225 -0.006130  0.065431 -0.036754
       6   -0.010579 -0.015502  0.023935  0.003995 -0.036754  0.101564
-------------------------------------------------------------------------------

  Mechanical properties :

-------------------------------------------------------------------------------
  Convention :                    Reuss         Voigt         Hill
-------------------------------------------------------------------------------
  Bulk  Modulus (GPa)     =      23.08919      44.37110      33.73014
  Shear Modulus (GPa)     =      11.01214      16.20959      13.61087
-------------------------------------------------------------------------------
  Velocity S-wave (km/s)  =       2.38709       2.89614       2.65385
  Velocity P-wave (km/s)  =       4.42098       5.84323       5.18114
-------------------------------------------------------------------------------
  Compressibility (1/GPa) =    0.04331032
-------------------------------------------------------------------------------
  Stress axis :                     x             y             z
-------------------------------------------------------------------------------
  Youngs Moduli (GPa)     =      40.25924      54.24595      15.08624
-------------------------------------------------------------------------------
  Poissons Ratio (x)      =                     0.42946       0.21860
  Poissons Ratio (y)      =       0.31873                     0.16169
  Poissons Ratio (z)      =       0.58336       0.58138
-------------------------------------------------------------------------------


  Piezoelectric Strain Matrix: (Units=C/m**2)

-------------------------------------------------------------------------------
  Indices      1         2         3         4         5         6    
-------------------------------------------------------------------------------
       x    -0.26090  -0.42268   0.20301   0.18687   0.34486   0.54670
       y     0.55856   0.54311  -0.11865   0.35013   0.52268  -0.34218
       z    -0.06418  -0.23596  -1.27147   0.13948   0.04394   0.04414
-------------------------------------------------------------------------------


  Piezoelectric Stress Matrix: (Units=10**-11 C/N)

-------------------------------------------------------------------------------
  Indices      1         2         3         4         5         6    
-------------------------------------------------------------------------------
       x    -1.00370  -1.37158   2.92337   2.00444  -0.76435   5.77685
       y     1.75221   1.60517  -3.83693   2.66347   5.51628  -6.97332
       z     1.81973   0.91840  -8.02811   1.18896   1.97762  -2.26701
-------------------------------------------------------------------------------


  Static dielectric constant tensor : 

-------------------------------------------------------------------------------
              x         y         z
-------------------------------------------------------------------------------
       x     3.92153   0.01092  -0.12461
       y     0.01092   4.05166   0.04155
       z    -0.12461   0.04155   3.38861
--------------------------------------------------------------------------------

  High frequency dielectric constant tensor : 

-------------------------------------------------------------------------------
              x         y         z
-------------------------------------------------------------------------------
       x     1.67211   0.00040   0.00056
       y     0.00040   1.67957   0.00099
       z     0.00056   0.00099   1.60715
-------------------------------------------------------------------------------

  Static refractive indices : 

-------------------------------------------------------------------------------
    1 =    1.83255      2 =    1.98726      3 =    2.01354
-------------------------------------------------------------------------------

  High frequency refractive indices : 

-------------------------------------------------------------------------------
    1 =    1.26773      2 =    1.29309      3 =    1.29600
-------------------------------------------------------------------------------


  Time to end of optimisation =      10.0350 seconds


  Peak dynamic memory used =       5.01 MB 


  Timing analysis for GULP :

--------------------------------------------------------------------------------
  Task / Subroutine                                          Time (Seconds)
--------------------------------------------------------------------------------
  Calculation of reciprocal space energy and derivatives          0.5758
  Calculation of real space energy and derivatives                6.2797
  Calculation of three-body energy and derivatives                0.6153
  Calculation and manipulation of Hessian matrix                  2.7746
  Calculation of matrix inversion                                 0.0308
  Global summation overhead                                       0.0001
--------------------------------------------------------------------------------
  Total CPU time                                                 10.0350
--------------------------------------------------------------------------------


  Dump file written as c00011.vasp.grs
  CIF file written as c00011.vasp.cif


  Job Finished at 11:27.53  7th October    2025                               

