********************************************************************************
*                       GENERAL UTILITY LATTICE PROGRAM                        *
*                                 Julian Gale                                  *
*                       Curtin Institute for Computation                       *
*                    School of Molecular and Life Sciences                     *
*                    Curtin University, Western Australia                      *
********************************************************************************
* Version = 6.1.2 * Last modified =   3rd November 2022                        *
********************************************************************************
*  optimise     - perform optimisation run                                     *
*  conp         - constant pressure calculation                                *
*  property     - calculate properties for final geometry                      *
********************************************************************************

  Job Started  at 11:33.26  7th October    2025                               

  Number of CPUs =     1


  Total number of configurations input =      1

********************************************************************************
*  Input for Configuration =   1 : c00042.vasp                                 *
********************************************************************************

  Formula = Ge3Si21O48                                                  

  Number of irreducible atoms/shells =     120


  Total number atoms/shells =     120

  Dimensionality = 3               :  Bulk   



  Cartesian lattice vectors (Angstroms) :

       17.182800    0.000000    0.000000
        0.000000    7.513760    0.000000
        0.000000    0.000000   10.447700

  Cell parameters (Angstroms/Degrees):

  a =      17.1828    alpha =  90.0000
  b =       7.5138    beta  =  90.0000
  c =      10.4477    gamma =  90.0000

  Initial cell volume =        1348.875752 Angs**3

  Temperature of configuration =   0.00     K 

  Pressure of configuration =         0.000 GPa 

  Fractional coordinates of asymmetric unit :

--------------------------------------------------------------------------------
   No.  Atomic       x           y          z         Charge      Occupancy
        Label      (Frac)      (Frac)     (Frac)        (e)         (Frac)  
--------------------------------------------------------------------------------
      1 Ge    c    0.052090    0.000000    0.372270     4.00000    1.000000    
      2 Ge    c    0.443270 *  0.000000 *  0.877870 *   4.00000    1.000000    
      3 Ge    c    0.160190 *  0.293910 *  0.273440 *   4.00000    1.000000    
      4 Si    c    0.447910 *  0.000000 *  0.372270 *   4.00000    1.000000    
      5 Si    c    0.947910 *  0.000000 *  0.627730 *   4.00000    1.000000    
      6 Si    c    0.552090 *  0.000000 *  0.627730 *   4.00000    1.000000    
      7 Si    c    0.556730 *  0.000000 *  0.122130 *   4.00000    1.000000    
      8 Si    c    0.943270 *  0.000000 *  0.122130 *   4.00000    1.000000    
      9 Si    c    0.056730 *  0.000000 *  0.877870 *   4.00000    1.000000    
     10 Si    c    0.339810 *  0.706090 *  0.273440 *   4.00000    1.000000    
     11 Si    c    0.839810 *  0.293910 *  0.726560 *   4.00000    1.000000    
     12 Si    c    0.660190 *  0.706090 *  0.726560 *   4.00000    1.000000    
     13 Si    c    0.839810 *  0.706090 *  0.726560 *   4.00000    1.000000    
     14 Si    c    0.660190 *  0.293910 *  0.726560 *   4.00000    1.000000    
     15 Si    c    0.160190 *  0.706090 *  0.273440 *   4.00000    1.000000    
     16 Si    c    0.339810 *  0.293910 *  0.273440 *   4.00000    1.000000    
     17 Si    c    0.660660 *  0.294090 *  0.017440 *   4.00000    1.000000    
     18 Si    c    0.839340 *  0.705910 *  0.017440 *   4.00000    1.000000    
     19 Si    c    0.339340 *  0.294090 *  0.982560 *   4.00000    1.000000    
     20 Si    c    0.160660 *  0.705910 *  0.982560 *   4.00000    1.000000    
     21 Si    c    0.339340 *  0.705910 *  0.982560 *   4.00000    1.000000    
     22 Si    c    0.160660 *  0.294090 *  0.982560 *   4.00000    1.000000    
     23 Si    c    0.660660 *  0.705910 *  0.017440 *   4.00000    1.000000    
     24 Si    c    0.839340 *  0.294090 *  0.017440 *   4.00000    1.000000    
     25 O1    c    0.106570 *  0.174340 *  0.366200 *   1.73396    1.000000    
     26 O2    c    0.393430 *  0.825660 *  0.366200 *   0.87073    1.000000    
     27 O2    c    0.893430 *  0.174340 *  0.633800 *   0.87073    1.000000    
     28 O2    c    0.606570 *  0.825660 *  0.633800 *   0.87073    1.000000    
     29 O2    c    0.893430 *  0.825660 *  0.633800 *   0.87073    1.000000    
     30 O2    c    0.606570 *  0.174340 *  0.633800 *   0.87073    1.000000    
     31 O3    c    0.106570 *  0.825660 *  0.366200 *   1.33043    1.000000    
     32 O2    c    0.393430 *  0.174340 *  0.366200 *   0.87073    1.000000    
     33 O3    c    0.000000 *  0.000000 *  0.500000 *   1.33043    1.000000    
     34 O2    c    0.500000 *  0.000000 *  0.500000 *   0.87073    1.000000    
     35 O3    c    0.994520 *  0.000000 *  0.250840 *   1.33043    1.000000    
     36 O2    c    0.505480 *  0.000000 *  0.250840 *   0.87073    1.000000    
     37 O2    c    0.005480 *  0.000000 *  0.749160 *   0.87073    1.000000    
     38 O3    c    0.494520 *  0.000000 *  0.749160 *   1.33043    1.000000    
     39 O2    c    0.610230 *  0.175520 *  0.115390 *   0.87073    1.000000    
     40 O2    c    0.889770 *  0.824480 *  0.115390 *   0.87073    1.000000    
     41 O3    c    0.389770 *  0.175520 *  0.884610 *   1.33043    1.000000    
     42 O2    c    0.110230 *  0.824480 *  0.884610 *   0.87073    1.000000    
     43 O3    c    0.389770 *  0.824480 *  0.884610 *   1.33043    1.000000    
     44 O2    c    0.110230 *  0.175520 *  0.884610 *   0.87073    1.000000    
     45 O2    c    0.610230 *  0.824480 *  0.115390 *   0.87073    1.000000    
     46 O2    c    0.889770 *  0.175520 *  0.115390 *   0.87073    1.000000    
     47 O3    c    0.500000 *  0.000000 *  0.000000 *   1.33043    1.000000    
     48 O2    c    0.000000 *  0.000000 *  0.000000 *   0.87073    1.000000    
     49 O3    c    0.151750 *  0.500000 *  0.313330 *   1.33043    1.000000    
     50 O2    c    0.348250 *  0.500000 *  0.313330 *   0.87073    1.000000    
     51 O2    c    0.848250 *  0.500000 *  0.686670 *   0.87073    1.000000    
     52 O2    c    0.651750 *  0.500000 *  0.686670 *   0.87073    1.000000    
     53 O3    c    0.250000 *  0.234950 *  0.285720 *   1.33043    1.000000    
     54 O2    c    0.250000 *  0.765050 *  0.285720 *   0.87073    1.000000    
     55 O2    c    0.750000 *  0.234950 *  0.714280 *   0.87073    1.000000    
     56 O2    c    0.750000 *  0.765050 *  0.714280 *   0.87073    1.000000    
     57 O3    c    0.131410 *  0.268650 *  0.127790 *   1.33043    1.000000    
     58 O2    c    0.368590 *  0.731350 *  0.127790 *   0.87073    1.000000    
     59 O2    c    0.868590 *  0.268650 *  0.872210 *   0.87073    1.000000    
     60 O2    c    0.631410 *  0.731350 *  0.872210 *   0.87073    1.000000    
     61 O2    c    0.868590 *  0.731350 *  0.872210 *   0.87073    1.000000    
     62 O2    c    0.631410 *  0.268650 *  0.872210 *   0.87073    1.000000    
     63 O2    c    0.131410 *  0.731350 *  0.127790 *   0.87073    1.000000    
     64 O2    c    0.368590 *  0.268650 *  0.127790 *   0.87073    1.000000    
     65 O2    c    0.653920 *  0.500000 *  0.058200 *   0.87073    1.000000    
     66 O2    c    0.846080 *  0.500000 *  0.058200 *   0.87073    1.000000    
     67 O2    c    0.346080 *  0.500000 *  0.941800 *   0.87073    1.000000    
     68 O2    c    0.153920 *  0.500000 *  0.941800 *   0.87073    1.000000    
     69 O2    c    0.750000 *  0.231060 *  0.027050 *   0.87073    1.000000    
     70 O2    c    0.750000 *  0.768940 *  0.027050 *   0.87073    1.000000    
     71 O2    c    0.250000 *  0.231060 *  0.972950 *   0.87073    1.000000    
     72 O2    c    0.250000 *  0.768940 *  0.972950 *   0.87073    1.000000    
     73 O1    s    0.106570 *  0.174340 *  0.366200 *  -3.73396    1.000000    
     74 O2    s    0.393430 *  0.825660 *  0.366200 *  -2.87073    1.000000    
     75 O2    s    0.893430 *  0.174340 *  0.633800 *  -2.87073    1.000000    
     76 O2    s    0.606570 *  0.825660 *  0.633800 *  -2.87073    1.000000    
     77 O2    s    0.893430 *  0.825660 *  0.633800 *  -2.87073    1.000000    
     78 O2    s    0.606570 *  0.174340 *  0.633800 *  -2.87073    1.000000    
     79 O3    s    0.106570 *  0.825660 *  0.366200 *  -3.33043    1.000000    
     80 O2    s    0.393430 *  0.174340 *  0.366200 *  -2.87073    1.000000    
     81 O3    s    0.000000 *  0.000000 *  0.500000 *  -3.33043    1.000000    
     82 O2    s    0.500000 *  0.000000 *  0.500000 *  -2.87073    1.000000    
     83 O3    s    0.994520 *  0.000000 *  0.250840 *  -3.33043    1.000000    
     84 O2    s    0.505480 *  0.000000 *  0.250840 *  -2.87073    1.000000    
     85 O2    s    0.005480 *  0.000000 *  0.749160 *  -2.87073    1.000000    
     86 O3    s    0.494520 *  0.000000 *  0.749160 *  -3.33043    1.000000    
     87 O2    s    0.610230 *  0.175520 *  0.115390 *  -2.87073    1.000000    
     88 O2    s    0.889770 *  0.824480 *  0.115390 *  -2.87073    1.000000    
     89 O3    s    0.389770 *  0.175520 *  0.884610 *  -3.33043    1.000000    
     90 O2    s    0.110230 *  0.824480 *  0.884610 *  -2.87073    1.000000    
     91 O3    s    0.389770 *  0.824480 *  0.884610 *  -3.33043    1.000000    
     92 O2    s    0.110230 *  0.175520 *  0.884610 *  -2.87073    1.000000    
     93 O2    s    0.610230 *  0.824480 *  0.115390 *  -2.87073    1.000000    
     94 O2    s    0.889770 *  0.175520 *  0.115390 *  -2.87073    1.000000    
     95 O3    s    0.500000 *  0.000000 *  0.000000 *  -3.33043    1.000000    
     96 O2    s    0.000000 *  0.000000 *  0.000000 *  -2.87073    1.000000    
     97 O3    s    0.151750 *  0.500000 *  0.313330 *  -3.33043    1.000000    
     98 O2    s    0.348250 *  0.500000 *  0.313330 *  -2.87073    1.000000    
     99 O2    s    0.848250 *  0.500000 *  0.686670 *  -2.87073    1.000000    
    100 O2    s    0.651750 *  0.500000 *  0.686670 *  -2.87073    1.000000    
    101 O3    s    0.250000 *  0.234950 *  0.285720 *  -3.33043    1.000000    
    102 O2    s    0.250000 *  0.765050 *  0.285720 *  -2.87073    1.000000    
    103 O2    s    0.750000 *  0.234950 *  0.714280 *  -2.87073    1.000000    
    104 O2    s    0.750000 *  0.765050 *  0.714280 *  -2.87073    1.000000    
    105 O3    s    0.131410 *  0.268650 *  0.127790 *  -3.33043    1.000000    
    106 O2    s    0.368590 *  0.731350 *  0.127790 *  -2.87073    1.000000    
    107 O2    s    0.868590 *  0.268650 *  0.872210 *  -2.87073    1.000000    
    108 O2    s    0.631410 *  0.731350 *  0.872210 *  -2.87073    1.000000    
    109 O2    s    0.868590 *  0.731350 *  0.872210 *  -2.87073    1.000000    
    110 O2    s    0.631410 *  0.268650 *  0.872210 *  -2.87073    1.000000    
    111 O2    s    0.131410 *  0.731350 *  0.127790 *  -2.87073    1.000000    
    112 O2    s    0.368590 *  0.268650 *  0.127790 *  -2.87073    1.000000    
    113 O2    s    0.653920 *  0.500000 *  0.058200 *  -2.87073    1.000000    
    114 O2    s    0.846080 *  0.500000 *  0.058200 *  -2.87073    1.000000    
    115 O2    s    0.346080 *  0.500000 *  0.941800 *  -2.87073    1.000000    
    116 O2    s    0.153920 *  0.500000 *  0.941800 *  -2.87073    1.000000    
    117 O2    s    0.750000 *  0.231060 *  0.027050 *  -2.87073    1.000000    
    118 O2    s    0.750000 *  0.768940 *  0.027050 *  -2.87073    1.000000    
    119 O2    s    0.250000 *  0.231060 *  0.972950 *  -2.87073    1.000000    
    120 O2    s    0.250000 *  0.768940 *  0.972950 *  -2.87073    1.000000    
--------------------------------------------------------------------------------



********************************************************************************
*  General input information                                                   *
********************************************************************************

  Species output for all configurations : 

--------------------------------------------------------------------------------
  Species    Type    Atomic    Atomic    Charge       Radii (Angs)     Library
                     Number     Mass       (e)     Cova   Ionic  VDW   Symbol
--------------------------------------------------------------------------------
    Ge       Core       32      72.61   4.000000   1.170  0.000  1.750 Ge       
    Si       Core       14      28.09   4.000000   1.200  0.000  2.100 Si       
    O1       Core        8      16.00   1.733957   0.730  0.000  1.360 O1       
    O2       Core        8      16.00   0.870733   0.730  0.000  1.360 O2       
    O3       Core        8      16.00   1.330431   0.730  0.000  1.360 O3       
    O1       Shell       8       0.00  -3.733957   0.730  0.000  0.000 O1       
    O2       Shell       8       0.00  -2.870733   0.730  0.000  0.000 O2       
    O3       Shell       8       0.00  -3.330431   0.730  0.000  0.000 O3       
--------------------------------------------------------------------------------


  Lattice summation method               =    Ewald          (3-D)
                                         =    Parry          (2-D)
                                         =    Saunders et al (1-D)
  Accuracy factor for lattice sums       =   12.000


  Analytic derivatives to be used

  Time limit = Infinity

  Maximum range for interatomic potentials =    100000.000000 Angstroms

  General interatomic potentials :

--------------------------------------------------------------------------------
Atom  Types   Potential      Parameter       Value         Units   Cutoffs(Ang)
  1     2                                                            Min /  Max 
--------------------------------------------------------------------------------
Si   c O1   s Buckingham    Buckingham A     1315.2478    eV        0.000 16.000
                            Buckingham rho  0.31775900    Ang       
                            Buckingham C     10.141118    eV*Ang^6  
--------------------------------------------------------------------------------
Si   c O2   s Buckingham    Buckingham A     1315.2478    eV        0.000 16.000
                            Buckingham rho  0.31775900    Ang       
                            Buckingham C     10.141118    eV*Ang^6  
--------------------------------------------------------------------------------
Si   c O3   s Buckingham    Buckingham A     1315.2478    eV        0.000 16.000
                            Buckingham rho  0.31775900    Ang       
                            Buckingham C     10.141118    eV*Ang^6  
--------------------------------------------------------------------------------
Ge   c O1   s Buckingham    Buckingham A     1497.3996    eV        0.000 16.000
                            Buckingham rho  0.32564600    Ang       
                            Buckingham C     16.808599    eV*Ang^6  
--------------------------------------------------------------------------------
Ge   c O2   s Buckingham    Buckingham A     1497.3996    eV        0.000 16.000
                            Buckingham rho  0.32564600    Ang       
                            Buckingham C     16.808599    eV*Ang^6  
--------------------------------------------------------------------------------
Ge   c O3   s Buckingham    Buckingham A     1497.3996    eV        0.000 16.000
                            Buckingham rho  0.32564600    Ang       
                            Buckingham C     16.808599    eV*Ang^6  
--------------------------------------------------------------------------------
O1   s O1   s Buckingham    Buckingham A     22764.000    eV        0.000 16.000
                            Buckingham rho  0.14900000    Ang       
                            Buckingham C     10.937044    eV*Ang^6  
--------------------------------------------------------------------------------
O1   s O2   s Buckingham    Buckingham A     22764.000    eV        0.000 16.000
                            Buckingham rho  0.14900000    Ang       
                            Buckingham C     10.937044    eV*Ang^6  
--------------------------------------------------------------------------------
O1   s O3   s Buckingham    Buckingham A     22764.000    eV        0.000 16.000
                            Buckingham rho  0.14900000    Ang       
                            Buckingham C     10.937044    eV*Ang^6  
--------------------------------------------------------------------------------
O2   s O2   s Buckingham    Buckingham A     22764.000    eV        0.000 16.000
                            Buckingham rho  0.14900000    Ang       
                            Buckingham C     10.937044    eV*Ang^6  
--------------------------------------------------------------------------------
O2   s O3   s Buckingham    Buckingham A     22764.000    eV        0.000 16.000
                            Buckingham rho  0.14900000    Ang       
                            Buckingham C     10.937044    eV*Ang^6  
--------------------------------------------------------------------------------
O3   s O3   s Buckingham    Buckingham A     22764.000    eV        0.000 16.000
                            Buckingham rho  0.14900000    Ang       
                            Buckingham C     10.937044    eV*Ang^6  
--------------------------------------------------------------------------------
O1   c O1   s Spring (c-s)  Spring k 2       180.31577    eV*Ang^-2 0.000  0.800
                            Spring k 4       0.0000000    eV*Ang^-4 
--------------------------------------------------------------------------------
O2   c O2   s Spring (c-s)  Spring k 2       75.969800    eV*Ang^-2 0.000  0.800
                            Spring k 4       0.0000000    eV*Ang^-4 
--------------------------------------------------------------------------------
O3   c O3   s Spring (c-s)  Spring k 2       128.14270    eV*Ang^-2 0.000  0.800
                            Spring k 4       0.0000000    eV*Ang^-4 
--------------------------------------------------------------------------------

  General Three-body potentials :

--------------------------------------------------------------------------------
  Atoms       Potential      Parameter       Value         Units   Cutoffs(Ang)
  1 / 2 / 3                                                          Min /  Max 
--------------------------------------------------------------------------------
Si    core    Harmonic      Three-body cnst  1.2614000    eV*rad^-2 0.000  1.900
O1    shel                  Three-body angl  109.47000    degrees   0.000  1.900
O1    shel                  Three-body k4    0.0000000    eV*rad^-4 0.000  3.500
                            Three-body k3    0.0000000    eV*rad^-3 
--------------------------------------------------------------------------------
Si    core    Harmonic      Three-body cnst  1.2614000    eV*rad^-2 0.000  1.900
O1    shel                  Three-body angl  109.47000    degrees   0.000  1.900
õ(1   shel                  Three-body k4    0.0000000    eV*rad^-4 0.000  3.500
                            Three-body k3    0.0000000    eV*rad^-3 
--------------------------------------------------------------------------------
Si    core    Harmonic      Three-body cnst  1.2614000    eV*rad^-2 0.000  1.900
õ(1   shel                  Three-body angl  109.47000    degrees   0.000  1.900
õ(1   shel                  Three-body k4    0.0000000    eV*rad^-4 0.000  3.500
                            Three-body k3    0.0000000    eV*rad^-3 
--------------------------------------------------------------------------------
Si    core    Harmonic      Three-body cnst  1.2614000    eV*rad^-2 0.000  1.900
O1    shel                  Three-body angl  109.47000    degrees   0.000  1.900
O2    shel                  Three-body k4    0.0000000    eV*rad^-4 0.000  3.500
                            Three-body k3    0.0000000    eV*rad^-3 
--------------------------------------------------------------------------------
Si    core    Harmonic      Three-body cnst  1.2614000    eV*rad^-2 0.000  1.900
O1    shel                  Three-body angl  109.47000    degrees   0.000  1.900
õ(2   shel                  Three-body k4    0.0000000    eV*rad^-4 0.000  3.500
                            Three-body k3    0.0000000    eV*rad^-3 
--------------------------------------------------------------------------------
Si    core    Harmonic      Three-body cnst  1.2614000    eV*rad^-2 0.000  1.900
O2    shel                  Three-body angl  109.47000    degrees   0.000  1.900
õ(1   shel                  Three-body k4    0.0000000    eV*rad^-4 0.000  3.500
                            Three-body k3    0.0000000    eV*rad^-3 
--------------------------------------------------------------------------------
Si    core    Harmonic      Three-body cnst  1.2614000    eV*rad^-2 0.000  1.900
õ(1   shel                  Three-body angl  109.47000    degrees   0.000  1.900
õ(2   shel                  Three-body k4    0.0000000    eV*rad^-4 0.000  3.500
                            Three-body k3    0.0000000    eV*rad^-3 
--------------------------------------------------------------------------------
Si    core    Harmonic      Three-body cnst  1.2614000    eV*rad^-2 0.000  1.900
O2    shel                  Three-body angl  109.47000    degrees   0.000  1.900
O2    shel                  Three-body k4    0.0000000    eV*rad^-4 0.000  3.500
                            Three-body k3    0.0000000    eV*rad^-3 
--------------------------------------------------------------------------------
Si    core    Harmonic      Three-body cnst  1.2614000    eV*rad^-2 0.000  1.900
O2    shel                  Three-body angl  109.47000    degrees   0.000  1.900
õ(2   shel                  Three-body k4    0.0000000    eV*rad^-4 0.000  3.500
                            Three-body k3    0.0000000    eV*rad^-3 
--------------------------------------------------------------------------------
Si    core    Harmonic      Three-body cnst  1.2614000    eV*rad^-2 0.000  1.900
õ(2   shel                  Three-body angl  109.47000    degrees   0.000  1.900
õ(2   shel                  Three-body k4    0.0000000    eV*rad^-4 0.000  3.500
                            Three-body k3    0.0000000    eV*rad^-3 
--------------------------------------------------------------------------------

********************************************************************************
*  Output for configuration   1 : c00042.vasp                                  *
********************************************************************************


  Components of energy : 

--------------------------------------------------------------------------------
  Interatomic potentials     =         760.33974970 eV    
  Three-body potentials      =           0.01261982 eV    
  Monopole - monopole (real) =       -2676.00317478 eV    
  Monopole - monopole (recip)=       -1115.35404472 eV    
  Monopole - monopole (total)=       -3791.35721950 eV    
--------------------------------------------------------------------------------
  Total lattice energy       =       -3031.00484999 eV    
--------------------------------------------------------------------------------
  Total lattice energy       =         -292445.6349 kJ/(mole unit cells)
--------------------------------------------------------------------------------


  Number of variables =      363

  Maximum number of calculations  =          1000
  Maximum Hessian update interval =            10
  Maximum step size               =   0.100000000
  Maximum parameter tolerance     =   0.000010000
  Maximum function  tolerance     =   0.000010000
  Maximum gradient  tolerance     =   0.001000000
  Maximum gradient  component     =   0.010000000

  Symmetry not applied to optimisation

  Cell parameters to be optimised using strains

  Newton-Raphson optimiser to be used

  BFGS hessian update to be used

  Lower half triangular hessian to be used

  Minimiser to switch to RFO
  When gradient norm is less than     0.050000

  Dumpfile to be written after every cycle

  Start of bulk optimisation :

  Cycle:      0 Energy:     -3031.004850  Gnorm:      4.341960  CPU:    0.103
  ** Hessian calculated **
  Cycle:      1 Energy:     -3061.777452  Gnorm:      0.965907  CPU:    0.228
  ** Hessian calculated **
  Cycle:      2 Energy:     -3063.804854  Gnorm:      0.774353  CPU:    0.434
  ** Hessian calculated **
  Cycle:      3 Energy:     -3065.373924  Gnorm:      0.422367  CPU:    0.624
  Cycle:      4 Energy:     -3065.855910  Gnorm:      0.273638  CPU:    0.723
  Cycle:      5 Energy:     -3066.261326  Gnorm:      0.218985  CPU:    0.841
  Cycle:      6 Energy:     -3066.664586  Gnorm:      0.173879  CPU:    0.959
  Cycle:      7 Energy:     -3066.941553  Gnorm:      0.147746  CPU:    1.058
  Cycle:      8 Energy:     -3067.117000  Gnorm:      0.111732  CPU:    1.157
  Cycle:      9 Energy:     -3067.215789  Gnorm:      0.089119  CPU:    1.256
  Cycle:     10 Energy:     -3067.271189  Gnorm:      0.066817  CPU:    1.373
  Cycle:     11 Energy:     -3067.306410  Gnorm:      0.059966  CPU:    1.489
  Cycle:     12 Energy:     -3067.344021  Gnorm:      0.062539  CPU:    1.606
  ** Hessian calculated **
  Cycle:     13 Energy:     -3067.378756  Gnorm:      0.060481  CPU:    1.813
  Cycle:     14 Energy:     -3067.434923  Gnorm:      0.056985  CPU:    1.949
  Cycle:     15 Energy:     -3067.501245  Gnorm:      0.052547  CPU:    2.066
  Cycle:     16 Energy:     -3067.596734  Gnorm:      0.045425  CPU:    2.201
  ** Hessian has wrong structure
  ** Imaginary eigenvectors =   4
  Cycle:     17 Energy:     -3067.606148  Gnorm:      0.081301  CPU:    2.480
  ** Hessian has wrong structure
  ** Imaginary eigenvectors =   3
  ** Hessian has wrong structure
  ** Imaginary eigenvectors =   2
  Cycle:     18 Energy:     -3067.651033  Gnorm:      0.092697  CPU:    2.964
  ** Hessian has wrong structure
  ** Imaginary eigenvectors =   1
  ** Hessian has required structure
  Cycle:     19 Energy:     -3067.910062  Gnorm:      0.058378  CPU:    3.403
  ** Hessian has required structure
  Cycle:     20 Energy:     -3067.998319  Gnorm:      0.046316  CPU:    3.579
  ** Hessian has required structure
  Cycle:     21 Energy:     -3068.058753  Gnorm:      0.041435  CPU:    3.735
  ** Hessian has required structure
  Cycle:     22 Energy:     -3068.080773  Gnorm:      0.041507  CPU:    3.892
  ** Hessian has required structure
  Cycle:     23 Energy:     -3068.101145  Gnorm:      0.027148  CPU:    4.048
  ** Hessian has required structure
  Cycle:     24 Energy:     -3068.115374  Gnorm:      0.023615  CPU:    4.205
  ** Hessian has required structure
  Cycle:     25 Energy:     -3068.126085  Gnorm:      0.016229  CPU:    4.363
  ** Hessian has required structure
  Cycle:     26 Energy:     -3068.134063  Gnorm:      0.021891  CPU:    4.520
  ** Hessian has required structure
  Cycle:     27 Energy:     -3068.139363  Gnorm:      0.016058  CPU:    4.676
  ** Hessian has required structure
  Cycle:     28 Energy:     -3068.144268  Gnorm:      0.012852  CPU:    4.852
  ** Hessian has required structure
  Cycle:     29 Energy:     -3068.149094  Gnorm:      0.010650  CPU:    5.110
  ** Hessian has required structure
  Cycle:     30 Energy:     -3068.154283  Gnorm:      0.008849  CPU:    5.286
  ** Hessian has required structure
  Cycle:     31 Energy:     -3068.157304  Gnorm:      0.006289  CPU:    5.442
  ** Hessian has required structure
  Cycle:     32 Energy:     -3068.158586  Gnorm:      0.007100  CPU:    5.599
  ** Hessian has required structure
  Cycle:     33 Energy:     -3068.159638  Gnorm:      0.003702  CPU:    5.755
  ** Hessian has required structure
  Cycle:     34 Energy:     -3068.160167  Gnorm:      0.004714  CPU:    5.931
  ** Hessian has required structure
  Cycle:     35 Energy:     -3068.160634  Gnorm:      0.004602  CPU:    6.105
  ** Hessian has required structure
  Cycle:     36 Energy:     -3068.161114  Gnorm:      0.004489  CPU:    6.281
  ** Hessian has required structure
  Cycle:     37 Energy:     -3068.161764  Gnorm:      0.004756  CPU:    6.456
  ** Hessian has required structure
  Cycle:     38 Energy:     -3068.162429  Gnorm:      0.004524  CPU:    6.631
  ** Hessian has required structure
  Cycle:     39 Energy:     -3068.163509  Gnorm:      0.005579  CPU:    6.888
  ** Hessian has required structure
  Cycle:     40 Energy:     -3068.164475  Gnorm:      0.009736  CPU:    7.043
  ** Hessian has required structure
  Cycle:     41 Energy:     -3068.165751  Gnorm:      0.008757  CPU:    7.217
  ** Hessian has required structure
  Cycle:     42 Energy:     -3068.167368  Gnorm:      0.007848  CPU:    7.393
  ** Hessian has required structure
  Cycle:     43 Energy:     -3068.169794  Gnorm:      0.007807  CPU:    7.569
  ** Hessian has required structure
  Cycle:     44 Energy:     -3068.174409  Gnorm:      0.008129  CPU:    7.743
  ** Hessian has required structure
  Cycle:     45 Energy:     -3068.175820  Gnorm:      0.010087  CPU:    7.880
  ** Hessian has required structure
  Cycle:     46 Energy:     -3068.177630  Gnorm:      0.009581  CPU:    8.036
  ** Hessian has required structure
  Cycle:     47 Energy:     -3068.180005  Gnorm:      0.008450  CPU:    8.210
  ** Hessian has required structure
  Cycle:     48 Energy:     -3068.182698  Gnorm:      0.005197  CPU:    8.366
  ** Hessian has required structure
  Cycle:     49 Energy:     -3068.185649  Gnorm:      0.004785  CPU:    8.604
  ** Hessian has required structure
  Cycle:     50 Energy:     -3068.187037  Gnorm:      0.004213  CPU:    8.779
  ** Hessian has required structure
  Cycle:     51 Energy:     -3068.187559  Gnorm:      0.002294  CPU:    8.934
  ** Hessian has required structure
  Cycle:     52 Energy:     -3068.187832  Gnorm:      0.001707  CPU:    9.107
  ** Hessian has required structure
  Cycle:     53 Energy:     -3068.187938  Gnorm:      0.000689  CPU:    9.281
  ** Hessian has required structure
  Cycle:     54 Energy:     -3068.187964  Gnorm:      0.000500  CPU:    9.436
  ** Hessian has required structure
  Cycle:     55 Energy:     -3068.187977  Gnorm:      0.000302  CPU:    9.591
  ** Hessian has required structure
  Cycle:     56 Energy:     -3068.187985  Gnorm:      0.000207  CPU:    9.745
  ** Hessian has required structure
  Cycle:     57 Energy:     -3068.187988  Gnorm:      0.000150  CPU:    9.883
  ** Hessian has required structure
  Cycle:     58 Energy:     -3068.187989  Gnorm:      0.000112  CPU:   10.021
  ** Hessian has required structure
  Cycle:     59 Energy:     -3068.187990  Gnorm:      0.000079  CPU:   10.243
  ** Hessian has required structure


  **** Optimisation achieved ****


  Final energy =   -3068.18799139 eV      
  Final Gnorm  =       0.00005626

  Components of energy : 

--------------------------------------------------------------------------------
  Interatomic potentials     =         815.78760871 eV    
  Three-body potentials      =           0.23516065 eV    
  Monopole - monopole (real) =       -2207.81906643 eV    
  Monopole - monopole (recip)=       -1676.39169431 eV    
  Monopole - monopole (total)=       -3884.21076075 eV    
--------------------------------------------------------------------------------
  Total lattice energy       =       -3068.18799139 eV    
--------------------------------------------------------------------------------
  Total lattice energy       =         -296033.2396 kJ/(mole unit cells)
--------------------------------------------------------------------------------

  Final fractional coordinates of atoms :

--------------------------------------------------------------------------------
   No.  Atomic        x           y          z          Radius
        Label       (Frac)      (Frac)     (Frac)       (Angs) 
--------------------------------------------------------------------------------
     1  Ge    c     0.052090    0.000000    0.372270    0.000000
     2  Ge    c     0.444844    0.948424    0.867351    0.000000
     3  Ge    c     0.154823    0.313623    0.286540    0.000000
     4  Si    c     0.460445    0.968419    0.354273    0.000000
     5  Si    c     0.955259    0.963721    0.632961    0.000000
     6  Si    c     0.552679    0.961145    0.618035    0.000000
     7  Si    c     0.561302    0.976702    0.105570    0.000000
     8  Si    c     0.947087    0.973500    0.117482    0.000000
     9  Si    c     0.059692    0.971715    0.885280    0.000000
    10  Si    c     0.359161    0.658676    0.260574    0.000000
    11  Si    c     0.850668    0.275047    0.712182    0.000000
    12  Si    c     0.656853    0.654723    0.711541    0.000000
    13  Si    c     0.837776    0.681487    0.713703    0.000000
    14  Si    c     0.669984    0.247428    0.712625    0.000000
    15  Si    c     0.179209    0.722000    0.267773    0.000000
    16  Si    c     0.339717    0.254113    0.275700    0.000000
    17  Si    c     0.672662    0.255436    0.011107    0.000000
    18  Si    c     0.836537    0.688145    0.012344    0.000000
    19  Si    c     0.329740    0.230946    0.977980    0.000000
    20  Si    c     0.174880    0.688081    0.968244    0.000000
    21  Si    c     0.355223    0.628422    0.963495    0.000000
    22  Si    c     0.147987    0.292146    0.983505    0.000000
    23  Si    c     0.655064    0.656073    0.009457    0.000000
    24  Si    c     0.853842    0.287689    0.010909    0.000000
    25  O1    c     0.086959    0.210287    0.377519    0.000000
    26  O2    c     0.420354    0.777209    0.340454    0.000000
    27  O2    c     0.910120    0.153994    0.628739    0.000000
    28  O2    c     0.596312    0.770711    0.629239    0.000000
    29  O2    c     0.889674    0.811159    0.631124    0.000000
    30  O2    c     0.617366    0.114357    0.629928    0.000000
    31  O3    c     0.137598    0.879806    0.342834    0.000000
    32  O2    c     0.393997    0.122680    0.358697    0.000000
    33  O3    c     0.011013    0.939192    0.513892    0.000000
    34  O2    c     0.511405    0.974141    0.481863    0.000000
    35  O3    c     0.980687    0.960881    0.258116    0.000000
    36  O2    c     0.519640    0.001459    0.239845    0.000000
    37  O2    c     0.008194    0.948305    0.759363    0.000000
    38  O3    c     0.485506    0.984766    0.722044    0.000000
    39  O2    c     0.631562    0.117426    0.101332    0.000000
    40  O2    c     0.877981    0.831143    0.102612    0.000000
    41  O3    c     0.362058    0.081554    0.884799    0.000000
    42  O2    c     0.131693    0.830311    0.878562    0.000000
    43  O3    c     0.415058    0.731121    0.876707    0.000000
    44  O2    c     0.091493    0.171893    0.894039    0.000000
    45  O2    c     0.596104    0.776849    0.092658    0.000000
    46  O2    c     0.912419    0.171234    0.096129    0.000000
    47  O3    c     0.504560    0.020848    0.989216    0.000000
    48  O2    c     0.011817    0.925093    0.011662    0.000000
    49  O3    c     0.141379    0.537935    0.306055    0.000000
    50  O2    c     0.373511    0.452699    0.290149    0.000000
    51  O2    c     0.864972    0.480069    0.682559    0.000000
    52  O2    c     0.642608    0.447867    0.683378    0.000000
    53  O3    c     0.250910    0.254301    0.323274    0.000000
    54  O2    c     0.271598    0.714683    0.303025    0.000000
    55  O2    c     0.761416    0.223260    0.676403    0.000000
    56  O2    c     0.745962    0.704693    0.677512    0.000000
    57  O3    c     0.131713    0.250681    0.130165    0.000000
    58  O2    c     0.370911    0.694427    0.110087    0.000000
    59  O2    c     0.867515    0.239374    0.861696    0.000000
    60  O2    c     0.639089    0.699685    0.860451    0.000000
    61  O2    c     0.849174    0.730097    0.863363    0.000000
    62  O2    c     0.659374    0.204179    0.861916    0.000000
    63  O2    c     0.170100    0.751417    0.115662    0.000000
    64  O2    c     0.342748    0.187213    0.127793    0.000000
    65  O2    c     0.637351    0.452088    0.037071    0.000000
    66  O2    c     0.871806    0.493092    0.040384    0.000000
    67  O2    c     0.370452    0.418762    0.949381    0.000000
    68  O2    c     0.132259    0.498623    0.953109    0.000000
    69  O2    c     0.764389    0.248794    0.046243    0.000000
    70  O2    c     0.744720    0.697317    0.045200    0.000000
    71  O2    c     0.237521    0.246861    0.950406    0.000000
    72  O2    c     0.265152    0.673791    0.924629    0.000000
    73  O1    s     0.089466    0.201920    0.370181    0.000000
    74  O2    s     0.417886    0.784651    0.333107    0.000000
    75  O2    s     0.908322    0.147596    0.638159    0.000000
    76  O2    s     0.598484    0.777849    0.637287    0.000000
    77  O2    s     0.890773    0.812725    0.640591    0.000000
    78  O2    s     0.616424    0.113021    0.638121    0.000000
    79  O3    s     0.135198    0.872612    0.337145    0.000000
    80  O2    s     0.395142    0.120488    0.349227    0.000000
    81  O3    s     0.008480    0.947078    0.514667    0.000000
    82  O2    s     0.510239    0.971908    0.482859    0.000000
    83  O3    s     0.983049    0.965566    0.252366    0.000000
    84  O2    s     0.517787    0.994748    0.236949    0.000000
    85  O2    s     0.008280    0.952841    0.759998    0.000000
    86  O3    s     0.488926    0.979059    0.724088    0.000000
    87  O2    s     0.628784    0.118141    0.091449    0.000000
    88  O2    s     0.880659    0.830043    0.093788    0.000000
    89  O3    s     0.365271    0.086889    0.893418    0.000000
    90  O2    s     0.128829    0.829696    0.889068    0.000000
    91  O3    s     0.411338    0.737861    0.884810    0.000000
    92  O2    s     0.094119    0.163632    0.902616    0.000000
    93  O2    s     0.599029    0.784214    0.084679    0.000000
    94  O2    s     0.909507    0.163643    0.088793    0.000000
    95  O3    s     0.505428    0.010013    0.991039    0.000000
    96  O2    s     0.009926    0.935460    0.009561    0.000000
    97  O3    s     0.146203    0.537579    0.300717    0.000000
    98  O2    s     0.368432    0.454276    0.285433    0.000000
    99  O2    s     0.860507    0.479308    0.689071    0.000000
   100  O2    s     0.647104    0.448963    0.689566    0.000000
   101  O3    s     0.252200    0.258985    0.315614    0.000000
   102  O2    s     0.271234    0.709430    0.294695    0.000000
   103  O2    s     0.761124    0.231404    0.684091    0.000000
   104  O2    s     0.746246    0.696832    0.685009    0.000000
   105  O3    s     0.135099    0.259555    0.127738    0.000000
   106  O2    s     0.368095    0.684087    0.110906    0.000000
   107  O2    s     0.864276    0.248213    0.861671    0.000000
   108  O2    s     0.642559    0.690572    0.860425    0.000000
   109  O2    s     0.846585    0.720425    0.863268    0.000000
   110  O2    s     0.661912    0.214170    0.861787    0.000000
   111  O2    s     0.171597    0.741500    0.115759    0.000000
   112  O2    s     0.341111    0.198624    0.127597    0.000000
   113  O2    s     0.643004    0.453408    0.031314    0.000000
   114  O2    s     0.866169    0.491675    0.034263    0.000000
   115  O2    s     0.364677    0.422111    0.953798    0.000000
   116  O2    s     0.138319    0.496648    0.957856    0.000000
   117  O2    s     0.764114    0.253919    0.038399    0.000000
   118  O2    s     0.744901    0.691647    0.037579    0.000000
   119  O2    s     0.237802    0.250283    0.957240    0.000000
   120  O2    s     0.264869    0.670524    0.933406    0.000000
--------------------------------------------------------------------------------

  Final Cartesian lattice vectors (Angstroms) :

       17.029465    0.121044   -0.071988
        0.052792    7.564670   -0.069987
       -0.041715   -0.095034   10.440167


  Final cell parameters and derivatives :

--------------------------------------------------------------------------------
       a           17.030048 Angstrom     dE/de1(xx)     0.003452 eV/strain
       b            7.565178 Angstrom     dE/de2(yy)     0.001697 eV/strain
       c           10.440683 Angstrom     dE/de3(zz)     0.005576 eV/strain
       alpha       91.053169 Degrees      dE/de4(yz)     0.000406 eV/strain
       beta        90.474809 Degrees      dE/de5(xz)     0.000019 eV/strain
       gamma       89.190706 Degrees      dE/de6(xy)    -0.000022 eV/strain
--------------------------------------------------------------------------------

  Primitive cell volume =          1344.724134 Angs**3

  Density of cell =      1.945816 g/cm**3

  Non-primitive cell volume =          1344.724134 Angs**3


  Final internal derivatives :

--------------------------------------------------------------------------------
   No.  Atomic          a             b             c           Radius
        Label          (eV)          (eV)          (eV)        (eV/Angs)
--------------------------------------------------------------------------------
      1 Ge    c       0.000000      0.000000      0.000000      0.000000
      2 Ge    c      -0.003273     -0.001016     -0.002807      0.000000
      3 Ge    c      -0.000217      0.000037      0.000032      0.000000
      4 Si    c      -0.005424     -0.000633     -0.001828      0.000000
      5 Si    c      -0.001917      0.000455      0.001073      0.000000
      6 Si    c       0.003442     -0.000423     -0.001394      0.000000
      7 Si    c       0.003603     -0.000655     -0.001831      0.000000
      8 Si    c      -0.001779      0.000400      0.000181      0.000000
      9 Si    c       0.001757      0.000293      0.001186      0.000000
     10 Si    c       0.000645      0.000005      0.000105      0.000000
     11 Si    c       0.000213      0.000042     -0.000000      0.000000
     12 Si    c      -0.000289      0.000026     -0.000065      0.000000
     13 Si    c       0.000294      0.000019     -0.000050      0.000000
     14 Si    c       0.000221      0.000282      0.000071      0.000000
     15 Si    c       0.000115     -0.000126      0.000086      0.000000
     16 Si    c       0.000284      0.000195      0.000394      0.000000
     17 Si    c      -0.000601      0.000038     -0.000078      0.000000
     18 Si    c       0.000161     -0.000055      0.000106      0.000000
     19 Si    c       0.000375      0.000048     -0.000434      0.000000
     20 Si    c      -0.000231     -0.000083      0.000055      0.000000
     21 Si    c       0.000370     -0.000015     -0.000031      0.000000
     22 Si    c      -0.000484      0.000077     -0.000162      0.000000
     23 Si    c      -0.000503     -0.000126      0.000065      0.000000
     24 Si    c       0.000260     -0.000015      0.000067      0.000000
     25 O1    c      -0.000122     -0.000048     -0.000081      0.000000
     26 O2    c       0.000244     -0.000014     -0.000035      0.000000
     27 O2    c       0.000103      0.000048     -0.000084      0.000000
     28 O2    c      -0.000174      0.000047      0.000109      0.000000
     29 O2    c      -0.000567     -0.000409     -0.000006      0.000000
     30 O2    c       0.000172      0.000114     -0.000440      0.000000
     31 O3    c       0.000115     -0.000034      0.000020      0.000000
     32 O2    c      -0.000688      0.000566      0.000336      0.000000
     33 O3    c       0.004154     -0.000366     -0.003408      0.000000
     34 O2    c       0.004641      0.000238      0.004434      0.000000
     35 O3    c      -0.000682     -0.000390      0.000317      0.000000
     36 O2    c       0.000609      0.000777      0.004000      0.000000
     37 O2    c      -0.002027     -0.000349     -0.002543      0.000000
     38 O3    c      -0.007326      0.000531      0.004675      0.000000
     39 O2    c       0.000588      0.000416      0.000037      0.000000
     40 O2    c      -0.000272     -0.000148      0.000118      0.000000
     41 O3    c      -0.000097      0.000204      0.000002      0.000000
     42 O2    c       0.000185     -0.000179     -0.000101      0.000000
     43 O3    c       0.000169     -0.000101      0.000095      0.000000
     44 O2    c       0.000128      0.000454     -0.000061      0.000000
     45 O2    c       0.000396     -0.001189     -0.000059      0.000000
     46 O2    c       0.000183     -0.000006      0.000039      0.000000
     47 O3    c       0.001384      0.002637      0.002403      0.000000
     48 O2    c       0.001355     -0.000733     -0.000468      0.000000
     49 O3    c      -0.000049     -0.000014      0.000029      0.000000
     50 O2    c       0.000076     -0.000044      0.000030      0.000000
     51 O2    c       0.000112      0.000005     -0.000018      0.000000
     52 O2    c      -0.000081     -0.000020     -0.000032      0.000000
     53 O3    c      -0.000236     -0.000003      0.000095      0.000000
     54 O2    c      -0.000027     -0.000031     -0.000015      0.000000
     55 O2    c       0.000174     -0.000025     -0.000080      0.000000
     56 O2    c      -0.000179     -0.000014     -0.000011      0.000000
     57 O3    c      -0.000070      0.000025      0.000255      0.000000
     58 O2    c       0.000050     -0.000108      0.000071      0.000000
     59 O2    c       0.000179      0.000006     -0.000112      0.000000
     60 O2    c       0.000027     -0.000073     -0.000022      0.000000
     61 O2    c      -0.000071     -0.000043      0.000112      0.000000
     62 O2    c      -0.000114     -0.000045      0.000285      0.000000
     63 O2    c      -0.000014     -0.000019     -0.000251      0.000000
     64 O2    c      -0.000247      0.000007     -0.000203      0.000000
     65 O2    c      -0.000086     -0.000069      0.000041      0.000000
     66 O2    c       0.000068      0.000057      0.000021      0.000000
     67 O2    c       0.000111      0.000056     -0.000011      0.000000
     68 O2    c      -0.000034      0.000149     -0.000039      0.000000
     69 O2    c      -0.000193     -0.000040      0.000119      0.000000
     70 O2    c       0.000092     -0.000004      0.000056      0.000000
     71 O2    c       0.000280     -0.000005     -0.000124      0.000000
     72 O2    c       0.000010     -0.000000     -0.000032      0.000000
     73 O1    s       0.000286      0.000030      0.000095      0.000000
     74 O2    s      -0.001783     -0.000509     -0.000241      0.000000
     75 O2    s      -0.000717      0.000216      0.000182      0.000000
     76 O2    s       0.000893     -0.000328     -0.000228      0.000000
     77 O2    s      -0.000776     -0.000013     -0.000009      0.000000
     78 O2    s       0.001237      0.000107      0.000098      0.000000
     79 O3    s       0.000174      0.000067     -0.000044      0.000000
     80 O2    s      -0.002313      0.000161     -0.000372      0.000000
     81 O3    s      -0.001418      0.000030      0.001100      0.000000
     82 O2    s      -0.001081     -0.000332     -0.000820      0.000000
     83 O3    s       0.000373      0.000259      0.000511      0.000000
     84 O2    s       0.000653      0.000296     -0.000261      0.000000
     85 O2    s       0.000639     -0.000067      0.000439      0.000000
     86 O3    s       0.003195     -0.000267     -0.002381      0.000000
     87 O2    s       0.002505      0.000295      0.000162      0.000000
     88 O2    s      -0.000920     -0.000047     -0.000120      0.000000
     89 O3    s      -0.001182     -0.000011     -0.000007      0.000000
     90 O2    s       0.001416     -0.000133      0.000017      0.000000
     91 O3    s      -0.000932     -0.000253     -0.000301      0.000000
     92 O2    s       0.000992      0.000250      0.000280      0.000000
     93 O2    s       0.002365     -0.000511     -0.000307      0.000000
     94 O2    s      -0.000693      0.000260      0.000120      0.000000
     95 O3    s      -0.003117     -0.000531     -0.002649      0.000000
     96 O2    s      -0.000665      0.000010      0.000439      0.000000
     97 O3    s       0.000072     -0.000000     -0.000008      0.000000
     98 O2    s      -0.000227     -0.000005     -0.000062      0.000000
     99 O2    s      -0.000205     -0.000002     -0.000024      0.000000
    100 O2    s       0.000175      0.000065      0.000064      0.000000
    101 O3    s      -0.000032     -0.000024     -0.000015      0.000000
    102 O2    s      -0.000059      0.000060     -0.000076      0.000000
    103 O2    s       0.000078      0.000024      0.000052      0.000000
    104 O2    s      -0.000010      0.000027      0.000015      0.000000
    105 O3    s       0.000028     -0.000161      0.000034      0.000000
    106 O2    s      -0.000268      0.000251     -0.000053      0.000000
    107 O2    s      -0.000245     -0.000125      0.000005      0.000000
    108 O2    s       0.000001      0.000181     -0.000130      0.000000
    109 O2    s       0.000223      0.000150      0.000076      0.000000
    110 O2    s      -0.000077     -0.000048     -0.000382      0.000000
    111 O2    s       0.000048      0.000084      0.000171      0.000000
    112 O2    s       0.001113     -0.000351      0.000060      0.000000
    113 O2    s       0.000218      0.000102     -0.000135      0.000000
    114 O2    s      -0.000061      0.000043     -0.000018      0.000000
    115 O2    s      -0.000241     -0.000035      0.000040      0.000000
    116 O2    s      -0.000020     -0.000005      0.000084      0.000000
    117 O2    s       0.000187     -0.000023     -0.000040      0.000000
    118 O2    s       0.000114      0.000069     -0.000085      0.000000
    119 O2    s       0.000107     -0.000091      0.000014      0.000000
    120 O2    s       0.000035      0.000036      0.000053      0.000000
--------------------------------------------------------------------------------
  Maximum abs         0.007326      0.002637      0.004675      0.000000
--------------------------------------------------------------------------------


  Born effective charge tensors : 

-------------------------------------------------------------------------------
  Atom             x           y             z
-------------------------------------------------------------------------------
    1 Ge    x       4.2684      0.4348     -0.3624
            y      -0.1322      3.8561      0.0546
            z      -0.4501     -0.2466      4.6913
-------------------------------------------------------------------------------
    2 Ge    x       4.2409      0.3732     -0.3515
            y      -0.2411      3.9051      0.0211
            z      -0.6101     -0.1111      3.8645
-------------------------------------------------------------------------------
    3 Ge    x       4.0406      0.2772     -0.1494
            y       0.4032      4.1748     -0.2821
            z      -0.2188     -0.1041      3.5155
-------------------------------------------------------------------------------
    4 Si    x       3.4320      0.1452      0.1924
            y      -0.1291      3.2252      0.0306
            z       0.4966     -0.0276      3.7721
-------------------------------------------------------------------------------
    5 Si    x       3.6544     -0.1330     -0.2599
            y       0.1191      3.2695      0.0017
            z      -0.8104      0.1072      4.1152
-------------------------------------------------------------------------------
    6 Si    x       3.6885     -0.1276      0.1212
            y       0.1101      3.2920     -0.0264
            z       0.2138     -0.0385      4.0689
-------------------------------------------------------------------------------
    7 Si    x       3.6453     -0.2233     -0.0758
            y       0.1492      3.3131     -0.0477
            z      -0.4008      0.0029      3.3055
-------------------------------------------------------------------------------
    8 Si    x       3.5641     -0.1614      0.4152
            y       0.1827      3.2948     -0.0410
            z       0.5535     -0.0769      3.5775
-------------------------------------------------------------------------------
    9 Si    x       3.4975      0.1729      0.1670
            y      -0.2058      3.2384      0.0358
            z       0.5548      0.0364      2.9929
-------------------------------------------------------------------------------
   10 Si    x       3.1674      0.2112      0.0765
            y       0.2765      3.4193      0.1839
            z       0.1258      0.0636      2.7935
-------------------------------------------------------------------------------
   11 Si    x       3.1814     -0.2065     -0.0648
            y      -0.2851      3.4216      0.1594
            z      -0.0688      0.0666      2.7802
-------------------------------------------------------------------------------
   12 Si    x       3.1740     -0.1921      0.0700
            y      -0.2818      3.4178     -0.1710
            z       0.1211     -0.0875      2.8206
-------------------------------------------------------------------------------
   13 Si    x       3.1917      0.2764     -0.1205
            y       0.1932      3.4546     -0.1469
            z      -0.0843     -0.0567      2.7668
-------------------------------------------------------------------------------
   14 Si    x       3.1759      0.2717      0.1286
            y       0.1900      3.4596      0.1431
            z       0.1478      0.0811      2.8129
-------------------------------------------------------------------------------
   15 Si    x       3.4047     -0.4263     -0.2040
            y      -0.1017      3.9549      0.1743
            z      -0.2230      0.1709      3.0184
-------------------------------------------------------------------------------
   16 Si    x       3.5507     -0.3113      0.0279
            y      -0.1568      3.5350     -0.2105
            z       0.0318     -0.0640      2.8521
-------------------------------------------------------------------------------
   17 Si    x       3.1914      0.3074     -0.1876
            y       0.0794      3.4273     -0.1844
            z      -0.1244     -0.0871      2.7314
-------------------------------------------------------------------------------
   18 Si    x       3.2036      0.3074      0.1673
            y       0.0877      3.4352      0.1680
            z       0.0965      0.0804      2.7070
-------------------------------------------------------------------------------
   19 Si    x       3.3131     -0.5099     -0.2704
            y      -0.1308      3.6765      0.3674
            z      -0.1513      0.2281      2.9003
-------------------------------------------------------------------------------
   20 Si    x       3.2766     -0.3706      0.1865
            y      -0.0772      3.4264     -0.1824
            z       0.1444     -0.0470      2.6488
-------------------------------------------------------------------------------
   21 Si    x       3.5422      0.3723     -0.2828
            y       0.4017      3.5196     -0.3481
            z      -0.3145     -0.1474      2.8812
-------------------------------------------------------------------------------
   22 Si    x       3.3417      0.3084      0.1126
            y       0.3080      3.5033      0.1137
            z       0.1032     -0.0127      2.9524
-------------------------------------------------------------------------------
   23 Si    x       3.2454     -0.2315     -0.1398
            y      -0.2530      3.3785      0.1526
            z      -0.1669      0.0535      2.7090
-------------------------------------------------------------------------------
   24 Si    x       3.2494     -0.2286      0.1375
            y      -0.2533      3.3858     -0.1752
            z       0.1525     -0.0672      2.6980
-------------------------------------------------------------------------------
   25 O1    x      -2.0809     -0.8976      0.4894
            y      -0.8522     -2.5863      0.4020
            z       0.5529      0.4282     -1.7288
-------------------------------------------------------------------------------
   26 O2    x      -1.6539     -0.7134     -0.3329
            y      -0.6511     -2.0116     -0.3576
            z      -0.3647     -0.3345     -1.3454
-------------------------------------------------------------------------------
   27 O2    x      -1.6421      0.6744      0.2750
            y       0.6512     -1.9958     -0.2743
            z       0.3360     -0.2648     -1.3507
-------------------------------------------------------------------------------
   28 O2    x      -1.6314      0.6640     -0.3534
            y       0.6404     -1.9984      0.3786
            z      -0.3874      0.3784     -1.3897
-------------------------------------------------------------------------------
   29 O2    x      -1.7553     -0.7015      0.2760
            y      -0.7540     -1.9339      0.3060
            z       0.3429      0.2832     -1.3327
-------------------------------------------------------------------------------
   30 O2    x      -1.7434     -0.7063     -0.3714
            y      -0.7494     -1.9470     -0.3636
            z      -0.4079     -0.3563     -1.3656
-------------------------------------------------------------------------------
   31 O3    x      -2.1633      0.8643      0.5184
            y       0.9444     -2.2616     -0.5612
            z       0.5469     -0.5129     -1.5984
-------------------------------------------------------------------------------
   32 O2    x      -1.7625      0.7031     -0.3058
            y       0.7389     -1.9237      0.3167
            z      -0.3424      0.3046     -1.3556
-------------------------------------------------------------------------------
   33 O3    x      -1.9403     -0.0637      1.0921
            y      -0.0122     -1.2262      0.0628
            z       1.3941      0.1630     -3.4338
-------------------------------------------------------------------------------
   34 O2    x      -1.6054      0.0125     -0.8323
            y       0.0114     -1.0927      0.0192
            z      -1.0281      0.0515     -2.7947
-------------------------------------------------------------------------------
   35 O3    x      -1.9446     -0.0392     -0.9464
            y      -0.0290     -1.2227     -0.0145
            z      -0.9699     -0.0238     -2.9434
-------------------------------------------------------------------------------
   36 O2    x      -1.7009     -0.0109      0.7226
            y      -0.0291     -1.1338      0.0245
            z       0.7047      0.0118     -2.1994
-------------------------------------------------------------------------------
   37 O2    x      -1.7471     -0.0325     -0.7676
            y       0.0033     -1.1326     -0.0189
            z      -0.7225     -0.0406     -2.1818
-------------------------------------------------------------------------------
   38 O3    x      -2.1170     -0.0371      0.9917
            y       0.0175     -1.2510      0.0372
            z       1.0017      0.0939     -2.7368
-------------------------------------------------------------------------------
   39 O2    x      -1.7426     -0.6831      0.3701
            y      -0.6540     -1.8934      0.3855
            z       0.3622      0.3485     -1.2733
-------------------------------------------------------------------------------
   40 O2    x      -1.7399     -0.6884     -0.3463
            y      -0.6675     -1.9146     -0.3674
            z      -0.3331     -0.3382     -1.2644
-------------------------------------------------------------------------------
   41 O3    x      -2.0728      0.8744      0.5266
            y       0.8437     -2.3093     -0.6457
            z       0.4650     -0.5466     -1.5476
-------------------------------------------------------------------------------
   42 O2    x      -1.8108      0.7154     -0.2942
            y       0.6831     -1.8833      0.3188
            z      -0.3329      0.3085     -1.2278
-------------------------------------------------------------------------------
   43 O3    x      -2.0201     -0.9065      0.5660
            y      -0.7477     -2.3747      0.5271
            z       0.5780      0.5324     -1.5309
-------------------------------------------------------------------------------
   44 O2    x      -1.6571     -0.6931     -0.3236
            y      -0.5531     -2.0504     -0.3464
            z      -0.3412     -0.3260     -1.2009
-------------------------------------------------------------------------------
   45 O2    x      -1.6374      0.6527      0.3535
            y       0.5539     -2.0182     -0.3767
            z       0.3745     -0.3585     -1.2485
-------------------------------------------------------------------------------
   46 O2    x      -1.6373      0.6454     -0.3609
            y       0.5559     -2.0171      0.3888
            z      -0.3591      0.3666     -1.2649
-------------------------------------------------------------------------------
   47 O3    x      -2.1763     -0.0171     -0.8677
            y       0.0218     -1.3591      0.0106
            z      -0.5096     -0.0256     -2.0493
-------------------------------------------------------------------------------
   48 O2    x      -1.8454      0.0137      0.6023
            y       0.0176     -1.2105      0.0231
            z       0.3166      0.0198     -1.6370
-------------------------------------------------------------------------------
   49 O3    x      -1.3958     -0.2205      0.1112
            y      -0.3063     -3.0201      0.1790
            z       0.1361      0.1422     -1.2426
-------------------------------------------------------------------------------
   50 O2    x      -1.1675     -0.0683     -0.0528
            y      -0.1402     -2.5611      0.0806
            z      -0.0620      0.0705     -1.0648
-------------------------------------------------------------------------------
   51 O2    x      -1.1536      0.0504      0.0623
            y       0.0982     -2.5501      0.0015
            z       0.0665      0.0147     -1.0629
-------------------------------------------------------------------------------
   52 O2    x      -1.1524      0.0524     -0.0624
            y       0.0981     -2.5595      0.0200
            z      -0.0790      0.0024     -1.0704
-------------------------------------------------------------------------------
   53 O3    x      -3.0032      0.2093      0.1406
            y       0.1132     -1.3953      0.0810
            z       0.1520      0.0331     -1.2384
-------------------------------------------------------------------------------
   54 O2    x      -2.3506      0.1911      0.0049
            y       0.1137     -1.2661     -0.0634
            z       0.0064     -0.0440     -1.0923
-------------------------------------------------------------------------------
   55 O2    x      -2.3775     -0.0953      0.0033
            y      -0.0458     -1.2542     -0.0645
            z      -0.0057     -0.0467     -1.0618
-------------------------------------------------------------------------------
   56 O2    x      -2.3800     -0.0915     -0.0023
            y      -0.0436     -1.2535      0.0679
            z      -0.0319      0.0462     -1.0602
-------------------------------------------------------------------------------
   57 O3    x      -1.3812     -0.1704     -0.0214
            y      -0.1630     -1.4407      0.0166
            z      -0.0457     -0.0010     -2.5632
-------------------------------------------------------------------------------
   58 O2    x      -1.2208     -0.1329     -0.0147
            y      -0.1289     -1.2981     -0.0585
            z      -0.0046     -0.0688     -2.0392
-------------------------------------------------------------------------------
   59 O2    x      -1.2013      0.1225     -0.0343
            y       0.1240     -1.2670     -0.0114
            z      -0.0466     -0.0246     -2.0487
-------------------------------------------------------------------------------
   60 O2    x      -1.2115      0.1258      0.0351
            y       0.1319     -1.2728      0.0015
            z       0.0466      0.0096     -2.0687
-------------------------------------------------------------------------------
   61 O2    x      -1.1734     -0.1250     -0.0146
            y      -0.0882     -1.2837      0.0115
            z      -0.0048     -0.0104     -2.0385
-------------------------------------------------------------------------------
   62 O2    x      -1.1631     -0.1207      0.0193
            y      -0.0847     -1.2910     -0.0208
            z       0.0050     -0.0040     -2.0690
-------------------------------------------------------------------------------
   63 O2    x      -1.2088      0.1263     -0.0940
            y       0.0611     -1.2939     -0.0841
            z      -0.0723     -0.0673     -2.0337
-------------------------------------------------------------------------------
   64 O2    x      -1.1939      0.1244     -0.0992
            y       0.0648     -1.3330     -0.0065
            z      -0.0785     -0.0297     -2.0322
-------------------------------------------------------------------------------
   65 O2    x      -1.2261      0.0648      0.0903
            y       0.1368     -2.4859      0.0240
            z       0.1025      0.0101     -1.0175
-------------------------------------------------------------------------------
   66 O2    x      -1.2284      0.0602     -0.0888
            y       0.1317     -2.4938      0.0031
            z      -0.0960      0.0129     -1.0136
-------------------------------------------------------------------------------
   67 O2    x      -1.2843     -0.0888      0.0991
            y      -0.1775     -2.4154      0.0733
            z       0.1126      0.0450     -1.0378
-------------------------------------------------------------------------------
   68 O2    x      -1.2857     -0.1148     -0.0780
            y      -0.2193     -2.4822      0.0614
            z      -0.0956      0.0275     -0.9900
-------------------------------------------------------------------------------
   69 O2    x      -2.4039     -0.1040      0.0057
            y      -0.0597     -1.2413      0.0663
            z       0.0061      0.0387     -1.0298
-------------------------------------------------------------------------------
   70 O2    x      -2.4116     -0.1019     -0.0013
            y      -0.0625     -1.2428     -0.0599
            z       0.0085     -0.0349     -1.0261
-------------------------------------------------------------------------------
   71 O2    x      -2.4170      0.1526     -0.0315
            y       0.0853     -1.2791     -0.0541
            z      -0.0304     -0.0263     -1.0153
-------------------------------------------------------------------------------
   72 O2    x      -2.4211      0.1887      0.0089
            y       0.1241     -1.2559      0.0706
            z       0.0152      0.0255     -1.0576
-------------------------------------------------------------------------------




  Elastic Constant Matrix: (Units=GPa)

-------------------------------------------------------------------------------
  Indices      1         2         3         4         5         6    
-------------------------------------------------------------------------------
       1     45.5302   21.0555   21.9811   -2.7948    5.1907    3.9470
       2     21.0555   66.2841   17.6080   -2.5417    5.5227    3.3076
       3     21.9811   17.6080   33.8238   -3.1387    2.3579    5.2436
       4     -2.7948   -2.5417   -3.1387   11.3011    1.8287    0.8748
       5      5.1907    5.5227    2.3579    1.8287   21.7660   -3.0823
       6      3.9470    3.3076    5.2436    0.8748   -3.0823   28.3723
-------------------------------------------------------------------------------


  Elastic Compliance Matrix: (Units=1/GPa)

-------------------------------------------------------------------------------
  Indices      1         2         3         4         5         6    
-------------------------------------------------------------------------------
       1    0.034357 -0.005323 -0.018692  0.003067 -0.005270 -0.001372
       2   -0.005323  0.018675 -0.005755  0.001848 -0.003109 -0.000768
       3   -0.018692 -0.005755  0.046300  0.007456 -0.000513 -0.005571
       4    0.003067  0.001848  0.007456  0.093945 -0.010763 -0.006086
       5   -0.005270 -0.003109 -0.000513 -0.010763  0.049933  0.006947
       6   -0.001372 -0.000768 -0.005571 -0.006086  0.006947  0.037498
-------------------------------------------------------------------------------

  Mechanical properties :

-------------------------------------------------------------------------------
  Convention :                    Reuss         Voigt         Hill
-------------------------------------------------------------------------------
  Bulk  Modulus (GPa)     =      25.13127      29.65857      27.39492
  Shear Modulus (GPa)     =      14.14385      17.95411      16.04898
-------------------------------------------------------------------------------
  Velocity S-wave (km/s)  =       2.69608       3.03760       2.87192
  Velocity P-wave (km/s)  =       4.75472       5.24833       5.00761
-------------------------------------------------------------------------------
  Compressibility (1/GPa) =    0.03979107
-------------------------------------------------------------------------------
  Stress axis :                     x             y             z
-------------------------------------------------------------------------------
  Youngs Moduli (GPa)     =      29.10595      53.54887      21.59843
-------------------------------------------------------------------------------
  Poissons Ratio (x)      =                     0.28505       0.40372
  Poissons Ratio (y)      =       0.15494                     0.12430
  Poissons Ratio (z)      =       0.54405       0.30817
-------------------------------------------------------------------------------


  Piezoelectric Strain Matrix: (Units=C/m**2)

-------------------------------------------------------------------------------
  Indices      1         2         3         4         5         6    
-------------------------------------------------------------------------------
       x     0.42593  -0.23760   1.42335  -0.13211   0.07245  -0.30623
       y    -0.19413  -0.05801  -0.21253   0.18934  -0.39600  -0.08818
       z    -0.51830  -0.40187  -0.93349  -0.13134  -0.16518   0.13315
-------------------------------------------------------------------------------


  Piezoelectric Stress Matrix: (Units=10**-11 C/N)

-------------------------------------------------------------------------------
  Indices      1         2         3         4         5         6    
-------------------------------------------------------------------------------
       x    -1.10737  -1.51301   5.99903   0.01524   0.06761  -1.85072
       y     0.04000   0.28221  -0.37713   2.02993  -2.11113  -0.57149
       z     0.20657   0.07952  -3.28559  -2.06634  -0.14493   1.08647
-------------------------------------------------------------------------------


  Static dielectric constant tensor : 

-------------------------------------------------------------------------------
              x         y         z
-------------------------------------------------------------------------------
       x     4.01875  -0.00822  -0.22530
       y    -0.00822   4.09733   0.01131
       z    -0.22530   0.01131   3.47040
--------------------------------------------------------------------------------

  High frequency dielectric constant tensor : 

-------------------------------------------------------------------------------
              x         y         z
-------------------------------------------------------------------------------
       x     1.67434   0.00058   0.00181
       y     0.00058   1.68321  -0.00120
       z     0.00181  -0.00120   1.61412
-------------------------------------------------------------------------------

  Static refractive indices : 

-------------------------------------------------------------------------------
    1 =    1.84109      2 =    2.02159      3 =    2.02732
-------------------------------------------------------------------------------

  High frequency refractive indices : 

-------------------------------------------------------------------------------
    1 =    1.27045      2 =    1.29397      3 =    1.29741
-------------------------------------------------------------------------------


  Time to end of optimisation =      10.5588 seconds


  Peak dynamic memory used =       5.01 MB 


  Timing analysis for GULP :

--------------------------------------------------------------------------------
  Task / Subroutine                                          Time (Seconds)
--------------------------------------------------------------------------------
  Calculation of reciprocal space energy and derivatives          0.6018
  Calculation of real space energy and derivatives                6.6218
  Calculation of three-body energy and derivatives                0.6603
  Calculation and manipulation of Hessian matrix                  2.9382
  Calculation of matrix inversion                                 0.0278
  Global summation overhead                                       0.0001
--------------------------------------------------------------------------------
  Total CPU time                                                 10.5588
--------------------------------------------------------------------------------


  Dump file written as c00042.vasp.grs
  CIF file written as c00042.vasp.cif


  Job Finished at 11:33.37  7th October    2025                               

