********************************************************************************
*                       GENERAL UTILITY LATTICE PROGRAM                        *
*                                 Julian Gale                                  *
*                       Curtin Institute for Computation                       *
*                    School of Molecular and Life Sciences                     *
*                    Curtin University, Western Australia                      *
********************************************************************************
* Version = 6.1.2 * Last modified =   3rd November 2022                        *
********************************************************************************
*  optimise     - perform optimisation run                                     *
*  conp         - constant pressure calculation                                *
*  property     - calculate properties for final geometry                      *
********************************************************************************

  Job Started  at 11:37.41  7th October    2025                               

  Number of CPUs =     1


  Total number of configurations input =      1

********************************************************************************
*  Input for Configuration =   1 : c00064.vasp                                 *
********************************************************************************

  Formula = Ge3Si21O48                                                  

  Number of irreducible atoms/shells =     120


  Total number atoms/shells =     120

  Dimensionality = 3               :  Bulk   



  Cartesian lattice vectors (Angstroms) :

       17.182800    0.000000    0.000000
        0.000000    7.513760    0.000000
        0.000000    0.000000   10.447700

  Cell parameters (Angstroms/Degrees):

  a =      17.1828    alpha =  90.0000
  b =       7.5138    beta  =  90.0000
  c =      10.4477    gamma =  90.0000

  Initial cell volume =        1348.875752 Angs**3

  Temperature of configuration =   0.00     K 

  Pressure of configuration =         0.000 GPa 

  Fractional coordinates of asymmetric unit :

--------------------------------------------------------------------------------
   No.  Atomic       x           y          z         Charge      Occupancy
        Label      (Frac)      (Frac)     (Frac)        (e)         (Frac)  
--------------------------------------------------------------------------------
      1 Ge    c    0.052090    0.000000    0.372270     4.00000    1.000000    
      2 Ge    c    0.160190 *  0.293910 *  0.273440 *   4.00000    1.000000    
      3 Ge    c    0.339810 *  0.293910 *  0.273440 *   4.00000    1.000000    
      4 Si    c    0.447910 *  0.000000 *  0.372270 *   4.00000    1.000000    
      5 Si    c    0.947910 *  0.000000 *  0.627730 *   4.00000    1.000000    
      6 Si    c    0.552090 *  0.000000 *  0.627730 *   4.00000    1.000000    
      7 Si    c    0.556730 *  0.000000 *  0.122130 *   4.00000    1.000000    
      8 Si    c    0.943270 *  0.000000 *  0.122130 *   4.00000    1.000000    
      9 Si    c    0.443270 *  0.000000 *  0.877870 *   4.00000    1.000000    
     10 Si    c    0.056730 *  0.000000 *  0.877870 *   4.00000    1.000000    
     11 Si    c    0.339810 *  0.706090 *  0.273440 *   4.00000    1.000000    
     12 Si    c    0.839810 *  0.293910 *  0.726560 *   4.00000    1.000000    
     13 Si    c    0.660190 *  0.706090 *  0.726560 *   4.00000    1.000000    
     14 Si    c    0.839810 *  0.706090 *  0.726560 *   4.00000    1.000000    
     15 Si    c    0.660190 *  0.293910 *  0.726560 *   4.00000    1.000000    
     16 Si    c    0.160190 *  0.706090 *  0.273440 *   4.00000    1.000000    
     17 Si    c    0.660660 *  0.294090 *  0.017440 *   4.00000    1.000000    
     18 Si    c    0.839340 *  0.705910 *  0.017440 *   4.00000    1.000000    
     19 Si    c    0.339340 *  0.294090 *  0.982560 *   4.00000    1.000000    
     20 Si    c    0.160660 *  0.705910 *  0.982560 *   4.00000    1.000000    
     21 Si    c    0.339340 *  0.705910 *  0.982560 *   4.00000    1.000000    
     22 Si    c    0.160660 *  0.294090 *  0.982560 *   4.00000    1.000000    
     23 Si    c    0.660660 *  0.705910 *  0.017440 *   4.00000    1.000000    
     24 Si    c    0.839340 *  0.294090 *  0.017440 *   4.00000    1.000000    
     25 O1    c    0.106570 *  0.174340 *  0.366200 *   1.73396    1.000000    
     26 O2    c    0.393430 *  0.825660 *  0.366200 *   0.87073    1.000000    
     27 O2    c    0.893430 *  0.174340 *  0.633800 *   0.87073    1.000000    
     28 O2    c    0.606570 *  0.825660 *  0.633800 *   0.87073    1.000000    
     29 O2    c    0.893430 *  0.825660 *  0.633800 *   0.87073    1.000000    
     30 O2    c    0.606570 *  0.174340 *  0.633800 *   0.87073    1.000000    
     31 O3    c    0.106570 *  0.825660 *  0.366200 *   1.33043    1.000000    
     32 O3    c    0.393430 *  0.174340 *  0.366200 *   1.33043    1.000000    
     33 O3    c    0.000000 *  0.000000 *  0.500000 *   1.33043    1.000000    
     34 O2    c    0.500000 *  0.000000 *  0.500000 *   0.87073    1.000000    
     35 O3    c    0.994520 *  0.000000 *  0.250840 *   1.33043    1.000000    
     36 O2    c    0.505480 *  0.000000 *  0.250840 *   0.87073    1.000000    
     37 O2    c    0.005480 *  0.000000 *  0.749160 *   0.87073    1.000000    
     38 O2    c    0.494520 *  0.000000 *  0.749160 *   0.87073    1.000000    
     39 O2    c    0.610230 *  0.175520 *  0.115390 *   0.87073    1.000000    
     40 O2    c    0.889770 *  0.824480 *  0.115390 *   0.87073    1.000000    
     41 O2    c    0.389770 *  0.175520 *  0.884610 *   0.87073    1.000000    
     42 O2    c    0.110230 *  0.824480 *  0.884610 *   0.87073    1.000000    
     43 O2    c    0.389770 *  0.824480 *  0.884610 *   0.87073    1.000000    
     44 O2    c    0.110230 *  0.175520 *  0.884610 *   0.87073    1.000000    
     45 O2    c    0.610230 *  0.824480 *  0.115390 *   0.87073    1.000000    
     46 O2    c    0.889770 *  0.175520 *  0.115390 *   0.87073    1.000000    
     47 O2    c    0.500000 *  0.000000 *  0.000000 *   0.87073    1.000000    
     48 O2    c    0.000000 *  0.000000 *  0.000000 *   0.87073    1.000000    
     49 O3    c    0.151750 *  0.500000 *  0.313330 *   1.33043    1.000000    
     50 O3    c    0.348250 *  0.500000 *  0.313330 *   1.33043    1.000000    
     51 O2    c    0.848250 *  0.500000 *  0.686670 *   0.87073    1.000000    
     52 O2    c    0.651750 *  0.500000 *  0.686670 *   0.87073    1.000000    
     53 O1    c    0.250000 *  0.234950 *  0.285720 *   1.73396    1.000000    
     54 O2    c    0.250000 *  0.765050 *  0.285720 *   0.87073    1.000000    
     55 O2    c    0.750000 *  0.234950 *  0.714280 *   0.87073    1.000000    
     56 O2    c    0.750000 *  0.765050 *  0.714280 *   0.87073    1.000000    
     57 O3    c    0.131410 *  0.268650 *  0.127790 *   1.33043    1.000000    
     58 O2    c    0.368590 *  0.731350 *  0.127790 *   0.87073    1.000000    
     59 O2    c    0.868590 *  0.268650 *  0.872210 *   0.87073    1.000000    
     60 O2    c    0.631410 *  0.731350 *  0.872210 *   0.87073    1.000000    
     61 O2    c    0.868590 *  0.731350 *  0.872210 *   0.87073    1.000000    
     62 O2    c    0.631410 *  0.268650 *  0.872210 *   0.87073    1.000000    
     63 O2    c    0.131410 *  0.731350 *  0.127790 *   0.87073    1.000000    
     64 O3    c    0.368590 *  0.268650 *  0.127790 *   1.33043    1.000000    
     65 O2    c    0.653920 *  0.500000 *  0.058200 *   0.87073    1.000000    
     66 O2    c    0.846080 *  0.500000 *  0.058200 *   0.87073    1.000000    
     67 O2    c    0.346080 *  0.500000 *  0.941800 *   0.87073    1.000000    
     68 O2    c    0.153920 *  0.500000 *  0.941800 *   0.87073    1.000000    
     69 O2    c    0.750000 *  0.231060 *  0.027050 *   0.87073    1.000000    
     70 O2    c    0.750000 *  0.768940 *  0.027050 *   0.87073    1.000000    
     71 O2    c    0.250000 *  0.231060 *  0.972950 *   0.87073    1.000000    
     72 O2    c    0.250000 *  0.768940 *  0.972950 *   0.87073    1.000000    
     73 O1    s    0.106570 *  0.174340 *  0.366200 *  -3.73396    1.000000    
     74 O2    s    0.393430 *  0.825660 *  0.366200 *  -2.87073    1.000000    
     75 O2    s    0.893430 *  0.174340 *  0.633800 *  -2.87073    1.000000    
     76 O2    s    0.606570 *  0.825660 *  0.633800 *  -2.87073    1.000000    
     77 O2    s    0.893430 *  0.825660 *  0.633800 *  -2.87073    1.000000    
     78 O2    s    0.606570 *  0.174340 *  0.633800 *  -2.87073    1.000000    
     79 O3    s    0.106570 *  0.825660 *  0.366200 *  -3.33043    1.000000    
     80 O3    s    0.393430 *  0.174340 *  0.366200 *  -3.33043    1.000000    
     81 O3    s    0.000000 *  0.000000 *  0.500000 *  -3.33043    1.000000    
     82 O2    s    0.500000 *  0.000000 *  0.500000 *  -2.87073    1.000000    
     83 O3    s    0.994520 *  0.000000 *  0.250840 *  -3.33043    1.000000    
     84 O2    s    0.505480 *  0.000000 *  0.250840 *  -2.87073    1.000000    
     85 O2    s    0.005480 *  0.000000 *  0.749160 *  -2.87073    1.000000    
     86 O2    s    0.494520 *  0.000000 *  0.749160 *  -2.87073    1.000000    
     87 O2    s    0.610230 *  0.175520 *  0.115390 *  -2.87073    1.000000    
     88 O2    s    0.889770 *  0.824480 *  0.115390 *  -2.87073    1.000000    
     89 O2    s    0.389770 *  0.175520 *  0.884610 *  -2.87073    1.000000    
     90 O2    s    0.110230 *  0.824480 *  0.884610 *  -2.87073    1.000000    
     91 O2    s    0.389770 *  0.824480 *  0.884610 *  -2.87073    1.000000    
     92 O2    s    0.110230 *  0.175520 *  0.884610 *  -2.87073    1.000000    
     93 O2    s    0.610230 *  0.824480 *  0.115390 *  -2.87073    1.000000    
     94 O2    s    0.889770 *  0.175520 *  0.115390 *  -2.87073    1.000000    
     95 O2    s    0.500000 *  0.000000 *  0.000000 *  -2.87073    1.000000    
     96 O2    s    0.000000 *  0.000000 *  0.000000 *  -2.87073    1.000000    
     97 O3    s    0.151750 *  0.500000 *  0.313330 *  -3.33043    1.000000    
     98 O3    s    0.348250 *  0.500000 *  0.313330 *  -3.33043    1.000000    
     99 O2    s    0.848250 *  0.500000 *  0.686670 *  -2.87073    1.000000    
    100 O2    s    0.651750 *  0.500000 *  0.686670 *  -2.87073    1.000000    
    101 O1    s    0.250000 *  0.234950 *  0.285720 *  -3.73396    1.000000    
    102 O2    s    0.250000 *  0.765050 *  0.285720 *  -2.87073    1.000000    
    103 O2    s    0.750000 *  0.234950 *  0.714280 *  -2.87073    1.000000    
    104 O2    s    0.750000 *  0.765050 *  0.714280 *  -2.87073    1.000000    
    105 O3    s    0.131410 *  0.268650 *  0.127790 *  -3.33043    1.000000    
    106 O2    s    0.368590 *  0.731350 *  0.127790 *  -2.87073    1.000000    
    107 O2    s    0.868590 *  0.268650 *  0.872210 *  -2.87073    1.000000    
    108 O2    s    0.631410 *  0.731350 *  0.872210 *  -2.87073    1.000000    
    109 O2    s    0.868590 *  0.731350 *  0.872210 *  -2.87073    1.000000    
    110 O2    s    0.631410 *  0.268650 *  0.872210 *  -2.87073    1.000000    
    111 O2    s    0.131410 *  0.731350 *  0.127790 *  -2.87073    1.000000    
    112 O3    s    0.368590 *  0.268650 *  0.127790 *  -3.33043    1.000000    
    113 O2    s    0.653920 *  0.500000 *  0.058200 *  -2.87073    1.000000    
    114 O2    s    0.846080 *  0.500000 *  0.058200 *  -2.87073    1.000000    
    115 O2    s    0.346080 *  0.500000 *  0.941800 *  -2.87073    1.000000    
    116 O2    s    0.153920 *  0.500000 *  0.941800 *  -2.87073    1.000000    
    117 O2    s    0.750000 *  0.231060 *  0.027050 *  -2.87073    1.000000    
    118 O2    s    0.750000 *  0.768940 *  0.027050 *  -2.87073    1.000000    
    119 O2    s    0.250000 *  0.231060 *  0.972950 *  -2.87073    1.000000    
    120 O2    s    0.250000 *  0.768940 *  0.972950 *  -2.87073    1.000000    
--------------------------------------------------------------------------------



********************************************************************************
*  General input information                                                   *
********************************************************************************

  Species output for all configurations : 

--------------------------------------------------------------------------------
  Species    Type    Atomic    Atomic    Charge       Radii (Angs)     Library
                     Number     Mass       (e)     Cova   Ionic  VDW   Symbol
--------------------------------------------------------------------------------
    Ge       Core       32      72.61   4.000000   1.170  0.000  1.750 Ge       
    Si       Core       14      28.09   4.000000   1.200  0.000  2.100 Si       
    O1       Core        8      16.00   1.733957   0.730  0.000  1.360 O1       
    O2       Core        8      16.00   0.870733   0.730  0.000  1.360 O2       
    O3       Core        8      16.00   1.330431   0.730  0.000  1.360 O3       
    O1       Shell       8       0.00  -3.733957   0.730  0.000  0.000 O1       
    O2       Shell       8       0.00  -2.870733   0.730  0.000  0.000 O2       
    O3       Shell       8       0.00  -3.330431   0.730  0.000  0.000 O3       
--------------------------------------------------------------------------------


  Lattice summation method               =    Ewald          (3-D)
                                         =    Parry          (2-D)
                                         =    Saunders et al (1-D)
  Accuracy factor for lattice sums       =   12.000


  Analytic derivatives to be used

  Time limit = Infinity

  Maximum range for interatomic potentials =    100000.000000 Angstroms

  General interatomic potentials :

--------------------------------------------------------------------------------
Atom  Types   Potential      Parameter       Value         Units   Cutoffs(Ang)
  1     2                                                            Min /  Max 
--------------------------------------------------------------------------------
Si   c O1   s Buckingham    Buckingham A     1315.2478    eV        0.000 16.000
                            Buckingham rho  0.31775900    Ang       
                            Buckingham C     10.141118    eV*Ang^6  
--------------------------------------------------------------------------------
Si   c O2   s Buckingham    Buckingham A     1315.2478    eV        0.000 16.000
                            Buckingham rho  0.31775900    Ang       
                            Buckingham C     10.141118    eV*Ang^6  
--------------------------------------------------------------------------------
Si   c O3   s Buckingham    Buckingham A     1315.2478    eV        0.000 16.000
                            Buckingham rho  0.31775900    Ang       
                            Buckingham C     10.141118    eV*Ang^6  
--------------------------------------------------------------------------------
Ge   c O1   s Buckingham    Buckingham A     1497.3996    eV        0.000 16.000
                            Buckingham rho  0.32564600    Ang       
                            Buckingham C     16.808599    eV*Ang^6  
--------------------------------------------------------------------------------
Ge   c O2   s Buckingham    Buckingham A     1497.3996    eV        0.000 16.000
                            Buckingham rho  0.32564600    Ang       
                            Buckingham C     16.808599    eV*Ang^6  
--------------------------------------------------------------------------------
Ge   c O3   s Buckingham    Buckingham A     1497.3996    eV        0.000 16.000
                            Buckingham rho  0.32564600    Ang       
                            Buckingham C     16.808599    eV*Ang^6  
--------------------------------------------------------------------------------
O1   s O1   s Buckingham    Buckingham A     22764.000    eV        0.000 16.000
                            Buckingham rho  0.14900000    Ang       
                            Buckingham C     10.937044    eV*Ang^6  
--------------------------------------------------------------------------------
O1   s O2   s Buckingham    Buckingham A     22764.000    eV        0.000 16.000
                            Buckingham rho  0.14900000    Ang       
                            Buckingham C     10.937044    eV*Ang^6  
--------------------------------------------------------------------------------
O1   s O3   s Buckingham    Buckingham A     22764.000    eV        0.000 16.000
                            Buckingham rho  0.14900000    Ang       
                            Buckingham C     10.937044    eV*Ang^6  
--------------------------------------------------------------------------------
O2   s O2   s Buckingham    Buckingham A     22764.000    eV        0.000 16.000
                            Buckingham rho  0.14900000    Ang       
                            Buckingham C     10.937044    eV*Ang^6  
--------------------------------------------------------------------------------
O2   s O3   s Buckingham    Buckingham A     22764.000    eV        0.000 16.000
                            Buckingham rho  0.14900000    Ang       
                            Buckingham C     10.937044    eV*Ang^6  
--------------------------------------------------------------------------------
O3   s O3   s Buckingham    Buckingham A     22764.000    eV        0.000 16.000
                            Buckingham rho  0.14900000    Ang       
                            Buckingham C     10.937044    eV*Ang^6  
--------------------------------------------------------------------------------
O1   c O1   s Spring (c-s)  Spring k 2       180.31577    eV*Ang^-2 0.000  0.800
                            Spring k 4       0.0000000    eV*Ang^-4 
--------------------------------------------------------------------------------
O2   c O2   s Spring (c-s)  Spring k 2       75.969800    eV*Ang^-2 0.000  0.800
                            Spring k 4       0.0000000    eV*Ang^-4 
--------------------------------------------------------------------------------
O3   c O3   s Spring (c-s)  Spring k 2       128.14270    eV*Ang^-2 0.000  0.800
                            Spring k 4       0.0000000    eV*Ang^-4 
--------------------------------------------------------------------------------

  General Three-body potentials :

--------------------------------------------------------------------------------
  Atoms       Potential      Parameter       Value         Units   Cutoffs(Ang)
  1 / 2 / 3                                                          Min /  Max 
--------------------------------------------------------------------------------
Si    core    Harmonic      Three-body cnst  1.2614000    eV*rad^-2 0.000  1.900
O1    shel                  Three-body angl  109.47000    degrees   0.000  1.900
O1    shel                  Three-body k4    0.0000000    eV*rad^-4 0.000  3.500
                            Three-body k3    0.0000000    eV*rad^-3 
--------------------------------------------------------------------------------
Si    core    Harmonic      Three-body cnst  1.2614000    eV*rad^-2 0.000  1.900
O1    shel                  Three-body angl  109.47000    degrees   0.000  1.900
õ(1   shel                  Three-body k4    0.0000000    eV*rad^-4 0.000  3.500
                            Three-body k3    0.0000000    eV*rad^-3 
--------------------------------------------------------------------------------
Si    core    Harmonic      Three-body cnst  1.2614000    eV*rad^-2 0.000  1.900
õ(1   shel                  Three-body angl  109.47000    degrees   0.000  1.900
õ(1   shel                  Three-body k4    0.0000000    eV*rad^-4 0.000  3.500
                            Three-body k3    0.0000000    eV*rad^-3 
--------------------------------------------------------------------------------
Si    core    Harmonic      Three-body cnst  1.2614000    eV*rad^-2 0.000  1.900
O1    shel                  Three-body angl  109.47000    degrees   0.000  1.900
O2    shel                  Three-body k4    0.0000000    eV*rad^-4 0.000  3.500
                            Three-body k3    0.0000000    eV*rad^-3 
--------------------------------------------------------------------------------
Si    core    Harmonic      Three-body cnst  1.2614000    eV*rad^-2 0.000  1.900
O1    shel                  Three-body angl  109.47000    degrees   0.000  1.900
õ(2   shel                  Three-body k4    0.0000000    eV*rad^-4 0.000  3.500
                            Three-body k3    0.0000000    eV*rad^-3 
--------------------------------------------------------------------------------
Si    core    Harmonic      Three-body cnst  1.2614000    eV*rad^-2 0.000  1.900
O2    shel                  Three-body angl  109.47000    degrees   0.000  1.900
õ(1   shel                  Three-body k4    0.0000000    eV*rad^-4 0.000  3.500
                            Three-body k3    0.0000000    eV*rad^-3 
--------------------------------------------------------------------------------
Si    core    Harmonic      Three-body cnst  1.2614000    eV*rad^-2 0.000  1.900
õ(1   shel                  Three-body angl  109.47000    degrees   0.000  1.900
õ(2   shel                  Three-body k4    0.0000000    eV*rad^-4 0.000  3.500
                            Three-body k3    0.0000000    eV*rad^-3 
--------------------------------------------------------------------------------
Si    core    Harmonic      Three-body cnst  1.2614000    eV*rad^-2 0.000  1.900
O2    shel                  Three-body angl  109.47000    degrees   0.000  1.900
O2    shel                  Three-body k4    0.0000000    eV*rad^-4 0.000  3.500
                            Three-body k3    0.0000000    eV*rad^-3 
--------------------------------------------------------------------------------
Si    core    Harmonic      Three-body cnst  1.2614000    eV*rad^-2 0.000  1.900
O2    shel                  Three-body angl  109.47000    degrees   0.000  1.900
õ(2   shel                  Three-body k4    0.0000000    eV*rad^-4 0.000  3.500
                            Three-body k3    0.0000000    eV*rad^-3 
--------------------------------------------------------------------------------
Si    core    Harmonic      Three-body cnst  1.2614000    eV*rad^-2 0.000  1.900
õ(2   shel                  Three-body angl  109.47000    degrees   0.000  1.900
õ(2   shel                  Three-body k4    0.0000000    eV*rad^-4 0.000  3.500
                            Three-body k3    0.0000000    eV*rad^-3 
--------------------------------------------------------------------------------

********************************************************************************
*  Output for configuration   1 : c00064.vasp                                  *
********************************************************************************


  Components of energy : 

--------------------------------------------------------------------------------
  Interatomic potentials     =         760.28190526 eV    
  Three-body potentials      =           0.01554600 eV    
  Monopole - monopole (real) =       -2676.00317478 eV    
  Monopole - monopole (recip)=       -1115.35404472 eV    
  Monopole - monopole (total)=       -3791.35721950 eV    
--------------------------------------------------------------------------------
  Total lattice energy       =       -3031.05976824 eV    
--------------------------------------------------------------------------------
  Total lattice energy       =         -292450.9336 kJ/(mole unit cells)
--------------------------------------------------------------------------------


  Number of variables =      363

  Maximum number of calculations  =          1000
  Maximum Hessian update interval =            10
  Maximum step size               =   0.100000000
  Maximum parameter tolerance     =   0.000010000
  Maximum function  tolerance     =   0.000010000
  Maximum gradient  tolerance     =   0.001000000
  Maximum gradient  component     =   0.010000000

  Symmetry not applied to optimisation

  Cell parameters to be optimised using strains

  Newton-Raphson optimiser to be used

  BFGS hessian update to be used

  Lower half triangular hessian to be used

  Minimiser to switch to RFO
  When gradient norm is less than     0.050000

  Dumpfile to be written after every cycle

  Start of bulk optimisation :

  Cycle:      0 Energy:     -3031.059768  Gnorm:      4.388404  CPU:    0.108
  ** Hessian calculated **
  Cycle:      1 Energy:     -3046.708384  Gnorm:      3.337910  CPU:    0.296
  ** Hessian calculated **
  Cycle:      2 Energy:     -3064.054867  Gnorm:      0.711950  CPU:    0.497
  ** Hessian calculated **
  Cycle:      3 Energy:     -3065.722980  Gnorm:      0.524768  CPU:    0.716
  Cycle:      4 Energy:     -3066.853936  Gnorm:      0.310892  CPU:    0.840
  ** Hessian calculated **
  Cycle:      5 Energy:     -3067.118579  Gnorm:      0.160163  CPU:    1.040
  Cycle:      6 Energy:     -3067.195063  Gnorm:      0.097966  CPU:    1.144
  Cycle:      7 Energy:     -3067.257452  Gnorm:      0.080482  CPU:    1.268
  Cycle:      8 Energy:     -3067.325600  Gnorm:      0.071340  CPU:    1.391
  Cycle:      9 Energy:     -3067.391785  Gnorm:      0.070565  CPU:    1.516
  Cycle:     10 Energy:     -3067.427851  Gnorm:      0.056831  CPU:    1.620
  Cycle:     11 Energy:     -3067.451175  Gnorm:      0.046299  CPU:    1.725
  ** Hessian has required structure
  Cycle:     12 Energy:     -3067.460341  Gnorm:      0.068825  CPU:    1.874
  ** Hessian has required structure
  Cycle:     13 Energy:     -3067.469267  Gnorm:      0.065265  CPU:    2.024
  ** Hessian has required structure
  Cycle:     14 Energy:     -3067.477817  Gnorm:      0.073796  CPU:    2.173
  ** Hessian has wrong structure
  ** Imaginary eigenvectors =   2
  ** Hessian has wrong structure
  ** Imaginary eigenvectors =   2
  Cycle:     15 Energy:     -3067.495589  Gnorm:      0.074165  CPU:    2.796
  ** Hessian has wrong structure
  ** Imaginary eigenvectors =   2
  ** Hessian has wrong structure
  ** Imaginary eigenvectors =   2
  Cycle:     16 Energy:     -3067.525827  Gnorm:      0.075274  CPU:    3.414
  ** Hessian has wrong structure
  ** Imaginary eigenvectors =   2
  ** Hessian has wrong structure
  ** Imaginary eigenvectors =   1
  Cycle:     17 Energy:     -3067.556444  Gnorm:      0.076909  CPU:    3.914
  ** Hessian has wrong structure
  ** Imaginary eigenvectors =   1
  ** Hessian has required structure
  Cycle:     18 Energy:     -3067.757398  Gnorm:      0.058478  CPU:    4.506
  ** Hessian has required structure
  Cycle:     19 Energy:     -3067.899651  Gnorm:      0.041072  CPU:    4.682
  ** Hessian has required structure
  Cycle:     20 Energy:     -3067.939512  Gnorm:      0.039196  CPU:    4.879
  ** Hessian has required structure
  Cycle:     21 Energy:     -3068.000433  Gnorm:      0.033824  CPU:    5.054
  ** Hessian has required structure
  Cycle:     22 Energy:     -3068.016797  Gnorm:      0.028335  CPU:    5.210
  ** Hessian has required structure
  Cycle:     23 Energy:     -3068.027895  Gnorm:      0.019340  CPU:    5.385
  ** Hessian has required structure
  Cycle:     24 Energy:     -3068.038505  Gnorm:      0.012930  CPU:    5.580
  ** Hessian has required structure
  Cycle:     25 Energy:     -3068.043939  Gnorm:      0.012175  CPU:    5.736
  ** Hessian has required structure
  Cycle:     26 Energy:     -3068.048816  Gnorm:      0.015871  CPU:    5.927
  ** Hessian has required structure
  Cycle:     27 Energy:     -3068.051184  Gnorm:      0.011279  CPU:    6.090
  ** Hessian has required structure
  Cycle:     28 Energy:     -3068.054035  Gnorm:      0.006074  CPU:    6.362
  ** Hessian has required structure
  Cycle:     29 Energy:     -3068.054931  Gnorm:      0.003481  CPU:    6.547
  ** Hessian has required structure
  Cycle:     30 Energy:     -3068.055279  Gnorm:      0.001745  CPU:    6.729
  ** Hessian has required structure
  Cycle:     31 Energy:     -3068.055418  Gnorm:      0.001172  CPU:    6.909
  ** Hessian has required structure
  Cycle:     32 Energy:     -3068.055473  Gnorm:      0.000399  CPU:    7.091
  ** Hessian has required structure
  Cycle:     33 Energy:     -3068.055490  Gnorm:      0.000420  CPU:    7.254
  ** Hessian has required structure
  Cycle:     34 Energy:     -3068.055495  Gnorm:      0.000278  CPU:    7.397
  ** Hessian has required structure
  Cycle:     35 Energy:     -3068.055495  Gnorm:      0.000254  CPU:    7.540
  ** Hessian has required structure
  Cycle:     36 Energy:     -3068.055496  Gnorm:      0.000253  CPU:    7.702
  ** Hessian has required structure
  Cycle:     37 Energy:     -3068.055496  Gnorm:      0.000227  CPU:    7.847
  ** Hessian has required structure
  Cycle:     38 Energy:     -3068.055498  Gnorm:      0.000160  CPU:    8.078
  ** Hessian has required structure
  Cycle:     39 Energy:     -3068.055498  Gnorm:      0.000129  CPU:    8.224
  ** Hessian has required structure
  Cycle:     40 Energy:     -3068.055498  Gnorm:      0.000128  CPU:    8.388
  ** Hessian has required structure
  Cycle:     41 Energy:     -3068.055498  Gnorm:      0.000128  CPU:    8.533
  ** Hessian has required structure
  Cycle:     42 Energy:     -3068.055498  Gnorm:      0.000128  CPU:    8.679
  ** Hessian has required structure
  Cycle:     43 Energy:     -3068.055498  Gnorm:      0.000128  CPU:    8.824
  ** Hessian has required structure
  Cycle:     44 Energy:     -3068.055498  Gnorm:      0.000128  CPU:    8.969
  ** Hessian has required structure
  Cycle:     45 Energy:     -3068.055498  Gnorm:      0.000127  CPU:    9.113
  ** Hessian has required structure
  Cycle:     46 Energy:     -3068.055498  Gnorm:      0.000126  CPU:    9.258
  ** Hessian has required structure
  Cycle:     47 Energy:     -3068.055498  Gnorm:      0.000126  CPU:    9.402
  ** Hessian has required structure
  Cycle:     48 Energy:     -3068.055498  Gnorm:      0.000124  CPU:    9.654
  ** Hessian has required structure
  Cycle:     49 Energy:     -3068.055498  Gnorm:      0.000123  CPU:    9.800
  ** Hessian has required structure
  Cycle:     50 Energy:     -3068.055498  Gnorm:      0.000123  CPU:    9.945
  ** Hessian has required structure
  Cycle:     51 Energy:     -3068.055498  Gnorm:      0.000122  CPU:   10.090
  ** Hessian has required structure
  Cycle:     52 Energy:     -3068.055498  Gnorm:      0.000122  CPU:   10.235
  ** Hessian has required structure
  Cycle:     53 Energy:     -3068.055498  Gnorm:      0.000122  CPU:   10.381
  ** Hessian has required structure
  Cycle:     54 Energy:     -3068.055498  Gnorm:      0.000122  CPU:   10.537
  ** Hessian has required structure
  Cycle:     55 Energy:     -3068.055498  Gnorm:      0.000125  CPU:   10.791
  ** Hessian has required structure
  Cycle:     56 Energy:     -3068.055498  Gnorm:      0.000125  CPU:   11.179
  ** Hessian has required structure
  Cycle:     57 Energy:     -3068.055498  Gnorm:      0.000124  CPU:   11.333
  ** Hessian has required structure
  Cycle:     58 Energy:     -3068.055498  Gnorm:      0.000124  CPU:   11.488
  ** Hessian has required structure
  Cycle:     59 Energy:     -3068.055498  Gnorm:      0.000124  CPU:   11.642
  ** Hessian has required structure
  Cycle:     60 Energy:     -3068.055498  Gnorm:      0.000124  CPU:   11.797
  ** Hessian has required structure
  Cycle:     61 Energy:     -3068.055498  Gnorm:      0.000124  CPU:   11.951
  ** Hessian has required structure
  Cycle:     62 Energy:     -3068.055498  Gnorm:      0.000124  CPU:   12.202
  ** Hessian has required structure
  Cycle:     63 Energy:     -3068.055498  Gnorm:      0.000124  CPU:   12.577
  ** Hessian has required structure


  **** Too many failed attempts to optimise ****

  Final energy =   -3068.05549826 eV      
  Final Gnorm  =       0.00012353

  Components of energy : 

--------------------------------------------------------------------------------
  Interatomic potentials     =         813.79097662 eV    
  Three-body potentials      =           0.21992660 eV    
  Monopole - monopole (real) =       -2206.29100322 eV    
  Monopole - monopole (recip)=       -1675.77539827 eV    
  Monopole - monopole (total)=       -3882.06640149 eV    
--------------------------------------------------------------------------------
  Total lattice energy       =       -3068.05549826 eV    
--------------------------------------------------------------------------------
  Total lattice energy       =         -296020.4561 kJ/(mole unit cells)
--------------------------------------------------------------------------------

  Final fractional coordinates of atoms :

--------------------------------------------------------------------------------
   No.  Atomic        x           y          z          Radius
        Label       (Frac)      (Frac)     (Frac)       (Angs) 
--------------------------------------------------------------------------------
     1  Ge    c     0.052090    0.000000    0.372270    0.000000
     2  Ge    c     0.172812    0.286599    0.291396    0.000000
     3  Ge    c     0.359983    0.330291    0.287150    0.000000
     4  Si    c     0.462102    0.024575    0.373273    0.000000
     5  Si    c     0.949317    0.988800    0.626479    0.000000
     6  Si    c     0.552676    0.989302    0.638982    0.000000
     7  Si    c     0.561871    0.004499    0.123772    0.000000
     8  Si    c     0.951151    0.008886    0.105531    0.000000
     9  Si    c     0.443834    0.998984    0.884916    0.000000
    10  Si    c     0.060499    0.986357    0.867474    0.000000
    11  Si    c     0.341028    0.738246    0.274868    0.000000
    12  Si    c     0.839559    0.287523    0.724783    0.000000
    13  Si    c     0.665055    0.698421    0.722322    0.000000
    14  Si    c     0.844122    0.689129    0.724041    0.000000
    15  Si    c     0.661005    0.295506    0.721722    0.000000
    16  Si    c     0.162247    0.701801    0.281115    0.000000
    17  Si    c     0.661590    0.309770    0.026767    0.000000
    18  Si    c     0.848015    0.696705    0.029429    0.000000
    19  Si    c     0.350283    0.312287    0.978113    0.000000
    20  Si    c     0.155428    0.680176    0.976469    0.000000
    21  Si    c     0.335207    0.705977    0.967721    0.000000
    22  Si    c     0.166971    0.277845    0.984232    0.000000
    23  Si    c     0.668505    0.708509    0.026704    0.000000
    24  Si    c     0.840345    0.299792    0.030684    0.000000
    25  O1    c     0.116986    0.169036    0.393704    0.000000
    26  O2    c     0.389271    0.894999    0.343410    0.000000
    27  O2    c     0.894891    0.156819    0.647774    0.000000
    28  O2    c     0.610268    0.823984    0.639226    0.000000
    29  O2    c     0.900129    0.810849    0.642648    0.000000
    30  O2    c     0.603046    0.168470    0.639315    0.000000
    31  O3    c     0.104647    0.809323    0.370140    0.000000
    32  O3    c     0.429631    0.219285    0.375411    0.000000
    33  O3    c     0.978405    0.993132    0.481045    0.000000
    34  O2    c     0.499900    0.975429    0.510475    0.000000
    35  O3    c     0.012031    0.031527    0.219488    0.000000
    36  O2    c     0.527824    0.999346    0.266290    0.000000
    37  O2    c     0.025703    0.992976    0.720980    0.000000
    38  O2    c     0.496287    0.984933    0.760155    0.000000
    39  O2    c     0.606168    0.189243    0.109820    0.000000
    40  O2    c     0.904085    0.824867    0.114521    0.000000
    41  O2    c     0.398652    0.183149    0.884403    0.000000
    42  O2    c     0.098102    0.795433    0.888404    0.000000
    43  O2    c     0.381061    0.840849    0.879512    0.000000
    44  O2    c     0.125357    0.139360    0.884303    0.000000
    45  O2    c     0.621268    0.844123    0.113466    0.000000
    46  O2    c     0.890158    0.168156    0.115876    0.000000
    47  O2    c     0.494643    0.980529    0.015682    0.000000
    48  O2    c     0.991378    0.019613    0.966064    0.000000
    49  O3    c     0.156629    0.504649    0.322784    0.000000
    50  O3    c     0.364943    0.551013    0.328068    0.000000
    51  O2    c     0.863233    0.486477    0.691745    0.000000
    52  O2    c     0.641126    0.496690    0.691647    0.000000
    53  O1    c     0.269561    0.249608    0.316506    0.000000
    54  O2    c     0.250481    0.773946    0.302134    0.000000
    55  O2    c     0.749522    0.253861    0.682805    0.000000
    56  O2    c     0.754708    0.728525    0.685225    0.000000
    57  O3    c     0.145708    0.235590    0.130481    0.000000
    58  O2    c     0.354979    0.738768    0.119963    0.000000
    59  O2    c     0.849337    0.255493    0.877992    0.000000
    60  O2    c     0.654808    0.747073    0.874468    0.000000
    61  O2    c     0.859054    0.731517    0.876729    0.000000
    62  O2    c     0.649413    0.260157    0.874277    0.000000
    63  O2    c     0.139205    0.723701    0.127913    0.000000
    64  O3    c     0.381706    0.296703    0.124399    0.000000
    65  O2    c     0.639505    0.511683    0.054773    0.000000
    66  O2    c     0.870086    0.497675    0.062215    0.000000
    67  O2    c     0.360913    0.509609    0.927291    0.000000
    68  O2    c     0.139881    0.474115    0.947547    0.000000
    69  O2    c     0.750722    0.278937    0.069225    0.000000
    70  O2    c     0.758958    0.731454    0.065542    0.000000
    71  O2    c     0.259524    0.260791    0.972832    0.000000
    72  O2    c     0.243512    0.729554    0.941432    0.000000
    73  O1    s     0.116304    0.165136    0.384099    0.000000
    74  O2    s     0.391634    0.891109    0.338744    0.000000
    75  O2    s     0.894471    0.153487    0.654328    0.000000
    76  O2    s     0.610243    0.827668    0.648598    0.000000
    77  O2    s     0.899106    0.816354    0.650172    0.000000
    78  O2    s     0.604140    0.163531    0.648478    0.000000
    79  O3    s     0.106318    0.813857    0.361038    0.000000
    80  O3    s     0.427299    0.208623    0.368139    0.000000
    81  O3    s     0.981754    0.993253    0.487024    0.000000
    82  O2    s     0.501753    0.982775    0.509776    0.000000
    83  O3    s     0.008381    0.026261    0.219234    0.000000
    84  O2    s     0.524456    0.002755    0.261562    0.000000
    85  O2    s     0.021459    0.991807    0.726861    0.000000
    86  O2    s     0.496566    0.987113    0.761067    0.000000
    87  O2    s     0.607689    0.182974    0.101790    0.000000
    88  O2    s     0.902747    0.829622    0.104177    0.000000
    89  O2    s     0.398262    0.177442    0.894541    0.000000
    90  O2    s     0.100415    0.802906    0.895856    0.000000
    91  O2    s     0.382672    0.842764    0.889918    0.000000
    92  O2    s     0.122942    0.137983    0.893333    0.000000
    93  O2    s     0.620197    0.846100    0.104490    0.000000
    94  O2    s     0.890881    0.166426    0.105024    0.000000
    95  O2    s     0.496592    0.985364    0.013250    0.000000
    96  O2    s     0.994771    0.014718    0.970129    0.000000
    97  O3    s     0.158609    0.507391    0.315651    0.000000
    98  O3    s     0.362175    0.552060    0.319507    0.000000
    99  O2    s     0.858674    0.487005    0.698674    0.000000
   100  O2    s     0.645829    0.496659    0.698137    0.000000
   101  O1    s     0.269096    0.258899    0.312237    0.000000
   102  O2    s     0.250893    0.762792    0.297009    0.000000
   103  O2    s     0.749655    0.261874    0.691365    0.000000
   104  O2    s     0.754640    0.721056    0.693335    0.000000
   105  O3    s     0.149950    0.243682    0.128091    0.000000
   106  O2    s     0.351307    0.735127    0.119853    0.000000
   107  O2    s     0.847248    0.263860    0.877730    0.000000
   108  O2    s     0.657382    0.737756    0.874523    0.000000
   109  O2    s     0.856244    0.723235    0.876587    0.000000
   110  O2    s     0.651954    0.269190    0.874303    0.000000
   111  O2    s     0.143250    0.716991    0.127399    0.000000
   112  O3    s     0.376806    0.300875    0.122447    0.000000
   113  O2    s     0.644941    0.511003    0.048784    0.000000
   114  O2    s     0.864578    0.498053    0.055368    0.000000
   115  O2    s     0.357063    0.509599    0.936878    0.000000
   116  O2    s     0.144322    0.475825    0.954372    0.000000
   117  O2    s     0.750733    0.284650    0.060366    0.000000
   118  O2    s     0.758773    0.725068    0.057309    0.000000
   119  O2    s     0.259286    0.268394    0.974661    0.000000
   120  O2    s     0.243954    0.721590    0.948110    0.000000
--------------------------------------------------------------------------------

  Final Cartesian lattice vectors (Angstroms) :

       17.203080   -0.072080   -0.176685
       -0.033124    7.638936   -0.090264
       -0.109521   -0.118519   10.255063


  Final cell parameters and derivatives :

--------------------------------------------------------------------------------
       a           17.204138 Angstrom     dE/de1(xx)     0.014817 eV/strain
       b            7.639542 Angstrom     dE/de2(yy)     0.011956 eV/strain
       c           10.256333 Angstrom     dE/de3(zz)     0.014955 eV/strain
       alpha       91.336395 Degrees      dE/de4(yz)     0.001059 eV/strain
       beta        91.197453 Degrees      dE/de5(xz)     0.000741 eV/strain
       gamma       90.481493 Degrees      dE/de6(xy)    -0.000098 eV/strain
--------------------------------------------------------------------------------

  Primitive cell volume =          1347.293230 Angs**3

  Density of cell =      1.942106 g/cm**3

  Non-primitive cell volume =          1347.293230 Angs**3


  Final internal derivatives :

--------------------------------------------------------------------------------
   No.  Atomic          a             b             c           Radius
        Label          (eV)          (eV)          (eV)        (eV/Angs)
--------------------------------------------------------------------------------
      1 Ge    c       0.000000      0.000000      0.000000      0.000000
      2 Ge    c       0.000033     -0.001079      0.000824      0.000000
      3 Ge    c      -0.000777     -0.000448      0.001188      0.000000
      4 Si    c      -0.005361      0.001251     -0.001189      0.000000
      5 Si    c       0.000608      0.000325     -0.000042      0.000000
      6 Si    c       0.009047     -0.000044      0.001476      0.000000
      7 Si    c       0.004559      0.001224      0.004172      0.000000
      8 Si    c      -0.001815      0.000070     -0.003758      0.000000
      9 Si    c      -0.007244      0.000194      0.001501      0.000000
     10 Si    c       0.000608      0.000114     -0.000323      0.000000
     11 Si    c       0.000895      0.000065      0.000141      0.000000
     12 Si    c       0.000844     -0.000087      0.000944      0.000000
     13 Si    c      -0.002095      0.000256     -0.000117      0.000000
     14 Si    c       0.000741     -0.000028      0.000098      0.000000
     15 Si    c      -0.001280      0.000236      0.000281      0.000000
     16 Si    c       0.000183      0.000351      0.001405      0.000000
     17 Si    c      -0.001515     -0.000484     -0.000768      0.000000
     18 Si    c       0.000617     -0.000165     -0.000256      0.000000
     19 Si    c      -0.000235      0.000483     -0.000777      0.000000
     20 Si    c       0.000721      0.000266     -0.000920      0.000000
     21 Si    c       0.001076      0.000256      0.000080      0.000000
     22 Si    c      -0.000216      0.000136     -0.000753      0.000000
     23 Si    c      -0.000605     -0.000726     -0.001983      0.000000
     24 Si    c       0.001475     -0.000469     -0.002547      0.000000
     25 O1    c      -0.001154     -0.000067     -0.000684      0.000000
     26 O2    c      -0.001641     -0.000608      0.000090      0.000000
     27 O2    c      -0.001980      0.001708     -0.000133      0.000000
     28 O2    c       0.001602     -0.001931     -0.000419      0.000000
     29 O2    c      -0.001405     -0.001505     -0.000242      0.000000
     30 O2    c       0.002813      0.002542     -0.001311      0.000000
     31 O3    c      -0.000104     -0.000005     -0.001152      0.000000
     32 O3    c       0.002234     -0.000554      0.000363      0.000000
     33 O3    c      -0.007380      0.000467      0.002809      0.000000
     34 O2    c      -0.007345     -0.000937     -0.003183      0.000000
     35 O3    c       0.010860      0.000239      0.006584      0.000000
     36 O2    c       0.007528     -0.000628      0.000185      0.000000
     37 O2    c       0.002815      0.000012      0.000877      0.000000
     38 O2    c       0.004368     -0.000252     -0.002347      0.000000
     39 O2    c       0.002240      0.003396     -0.000416      0.000000
     40 O2    c      -0.004286     -0.003470      0.001719      0.000000
     41 O2    c      -0.001824      0.002135     -0.001047      0.000000
     42 O2    c       0.000044     -0.000244      0.000209      0.000000
     43 O2    c      -0.000581     -0.000972     -0.000678      0.000000
     44 O2    c       0.000099      0.000029     -0.000538      0.000000
     45 O2    c       0.006146     -0.004218      0.002286      0.000000
     46 O2    c      -0.003702      0.002526      0.002376      0.000000
     47 O2    c      -0.013067     -0.001026     -0.002658      0.000000
     48 O2    c      -0.001542      0.000505     -0.001842      0.000000
     49 O3    c      -0.000691      0.001936      0.000278      0.000000
     50 O3    c       0.000877      0.000240      0.000852      0.000000
     51 O2    c       0.000894     -0.000144     -0.000122      0.000000
     52 O2    c      -0.000985     -0.000098     -0.000128      0.000000
     53 O1    c       0.002273      0.000112      0.000108      0.000000
     54 O2    c      -0.002654     -0.000225     -0.000204      0.000000
     55 O2    c       0.000606     -0.000237     -0.000367      0.000000
     56 O2    c      -0.000327      0.000432     -0.000503      0.000000
     57 O3    c      -0.000454     -0.000496      0.000143      0.000000
     58 O2    c       0.000479      0.000093      0.000378      0.000000
     59 O2    c      -0.000402     -0.000053      0.000274      0.000000
     60 O2    c      -0.000063     -0.000004      0.000319      0.000000
     61 O2    c       0.000783      0.000182     -0.000143      0.000000
     62 O2    c       0.000360     -0.000049      0.000413      0.000000
     63 O2    c      -0.000721      0.000203      0.000026      0.000000
     64 O3    c       0.000276     -0.000033     -0.000400      0.000000
     65 O2    c      -0.001870     -0.001085      0.000669      0.000000
     66 O2    c       0.002141      0.000928      0.000358      0.000000
     67 O2    c       0.000745     -0.000721     -0.000841      0.000000
     68 O2    c      -0.000660      0.000270     -0.000481      0.000000
     69 O2    c      -0.002712     -0.000491      0.000910      0.000000
     70 O2    c       0.002541      0.000665      0.001036      0.000000
     71 O2    c       0.001899     -0.000187     -0.000001      0.000000
     72 O2    c      -0.002689      0.000164      0.000041      0.000000
     73 O1    s       0.001648      0.000026      0.001398      0.000000
     74 O2    s      -0.003636      0.000055     -0.000511      0.000000
     75 O2    s      -0.000492      0.000170      0.000163      0.000000
     76 O2    s       0.004074     -0.001174     -0.000674      0.000000
     77 O2    s      -0.000401     -0.000314     -0.000052      0.000000
     78 O2    s       0.004693      0.000902      0.000911      0.000000
     79 O3    s       0.001425     -0.000106      0.000262      0.000000
     80 O3    s      -0.003490      0.001375     -0.000512      0.000000
     81 O3    s       0.005166     -0.000882     -0.001860      0.000000
     82 O2    s      -0.001571     -0.000665     -0.000385      0.000000
     83 O3    s       0.001359      0.000788     -0.002033      0.000000
     84 O2    s      -0.003872      0.001795      0.002510      0.000000
     85 O2    s       0.001573     -0.000276     -0.000166      0.000000
     86 O2    s      -0.002974     -0.000747     -0.000362      0.000000
     87 O2    s       0.005215      0.002582      0.001411      0.000000
     88 O2    s      -0.001788     -0.001536     -0.000590      0.000000
     89 O2    s      -0.005537      0.001049      0.000867      0.000000
     90 O2    s       0.000587     -0.000246      0.000091      0.000000
     91 O2    s      -0.004707     -0.000790     -0.000899      0.000000
     92 O2    s       0.000836     -0.000066      0.000027      0.000000
     93 O2    s       0.003705     -0.001341     -0.000596      0.000000
     94 O2    s      -0.001323      0.001179      0.000208      0.000000
     95 O2    s      -0.002458      0.000375      0.002159      0.000000
     96 O2    s       0.004621     -0.000653     -0.001808      0.000000
     97 O3    s      -0.000065     -0.000006      0.000548      0.000000
     98 O3    s      -0.000322     -0.000330     -0.000057      0.000000
     99 O2    s      -0.000674     -0.000116      0.000004      0.000000
    100 O2    s       0.001037     -0.000029      0.000275      0.000000
    101 O1    s      -0.000366     -0.000744      0.000261      0.000000
    102 O2    s      -0.000378      0.000355      0.000721      0.000000
    103 O2    s       0.000084      0.000377      0.000215      0.000000
    104 O2    s       0.000163     -0.000144      0.000242      0.000000
    105 O3    s      -0.002182     -0.000403     -0.000020      0.000000
    106 O2    s       0.000893     -0.000162      0.000697      0.000000
    107 O2    s      -0.000837      0.000041     -0.000821      0.000000
    108 O2    s      -0.000116      0.000344     -0.000513      0.000000
    109 O2    s      -0.000421     -0.000080      0.000082      0.000000
    110 O2    s      -0.000188      0.000100     -0.000009      0.000000
    111 O2    s      -0.000095      0.000127      0.000269      0.000000
    112 O3    s       0.002013     -0.000416      0.000412      0.000000
    113 O2    s       0.000973     -0.000460     -0.000704      0.000000
    114 O2    s      -0.001162      0.000315     -0.000169      0.000000
    115 O2    s       0.000604     -0.000433      0.000012      0.000000
    116 O2    s      -0.000866      0.000351     -0.000272      0.000000
    117 O2    s      -0.000638      0.000389     -0.000220      0.000000
    118 O2    s       0.000920     -0.000457     -0.000695      0.000000
    119 O2    s       0.000535     -0.000717     -0.000591      0.000000
    120 O2    s      -0.001169      0.000538     -0.000887      0.000000
--------------------------------------------------------------------------------
  Maximum abs         0.013067      0.004218      0.006584      0.000000
--------------------------------------------------------------------------------


  Born effective charge tensors : 

-------------------------------------------------------------------------------
  Atom             x           y             z
-------------------------------------------------------------------------------
    1 Ge    x       4.2635     -0.0705     -0.0255
            y       0.1257      3.8738      0.0251
            z      -0.9027     -0.0813      4.5431
-------------------------------------------------------------------------------
    2 Ge    x       4.1154      0.2721     -0.2679
            y       0.2884      4.1728     -0.2778
            z      -0.1001     -0.1554      3.5725
-------------------------------------------------------------------------------
    3 Ge    x       3.9689     -0.1366      0.1441
            y      -0.4259      4.2381     -0.1865
            z       0.0683     -0.1643      3.4742
-------------------------------------------------------------------------------
    4 Si    x       3.5010     -0.3553      0.2697
            y       0.0402      3.4783      0.0364
            z       0.3200     -0.2225      3.8996
-------------------------------------------------------------------------------
    5 Si    x       3.5474      0.0170     -0.4850
            y      -0.0506      3.3212     -0.0170
            z      -0.3798     -0.0624      4.2394
-------------------------------------------------------------------------------
    6 Si    x       3.4424      0.0378      0.0707
            y      -0.0723      3.2626     -0.0315
            z       0.4844      0.0178      3.7521
-------------------------------------------------------------------------------
    7 Si    x       3.4953      0.0716     -0.2393
            y      -0.0909      3.2872     -0.0182
            z      -0.3976     -0.0231      3.1453
-------------------------------------------------------------------------------
    8 Si    x       3.7654      0.1083      0.2077
            y      -0.0716      3.3176      0.0322
            z       0.7927      0.0835      3.2763
-------------------------------------------------------------------------------
    9 Si    x       3.5421     -0.0770     -0.1358
            y       0.0966      3.2472      0.0017
            z      -0.5514      0.0036      3.0647
-------------------------------------------------------------------------------
   10 Si    x       3.5458     -0.1589      0.3556
            y       0.1171      3.2652     -0.0222
            z       0.3746     -0.0485      3.0751
-------------------------------------------------------------------------------
   11 Si    x       3.2670      0.2012      0.1636
            y       0.0944      3.7476     -0.0727
            z       0.1044      0.0625      2.9310
-------------------------------------------------------------------------------
   12 Si    x       3.2004     -0.2689     -0.0782
            y      -0.2436      3.4543      0.1288
            z      -0.1229      0.0807      2.7792
-------------------------------------------------------------------------------
   13 Si    x       3.1841     -0.2760      0.1087
            y      -0.2381      3.4610     -0.1623
            z       0.1223     -0.0732      2.7921
-------------------------------------------------------------------------------
   14 Si    x       3.1893      0.2352     -0.0727
            y       0.2555      3.4306     -0.1596
            z      -0.0957     -0.0888      2.7901
-------------------------------------------------------------------------------
   15 Si    x       3.1837      0.2484      0.0792
            y       0.2629      3.4407      0.1524
            z       0.1197      0.0723      2.7990
-------------------------------------------------------------------------------
   16 Si    x       3.5147     -0.2529     -0.3309
            y      -0.3955      3.8164      0.1517
            z      -0.2511      0.1082      3.1282
-------------------------------------------------------------------------------
   17 Si    x       3.2293      0.2603     -0.1472
            y       0.2384      3.4042     -0.1792
            z      -0.1734     -0.0749      2.7326
-------------------------------------------------------------------------------
   18 Si    x       3.2491      0.2697      0.1150
            y       0.2354      3.3852      0.1358
            z       0.1138      0.0504      2.6833
-------------------------------------------------------------------------------
   19 Si    x       3.3927     -0.2688     -0.1214
            y      -0.2999      3.5015      0.0778
            z       0.0459      0.0990      2.9750
-------------------------------------------------------------------------------
   20 Si    x       3.3289     -0.2071      0.1648
            y      -0.2749      3.4331     -0.1879
            z       0.1200     -0.0832      2.7053
-------------------------------------------------------------------------------
   21 Si    x       3.3062      0.2797     -0.1982
            y       0.1720      3.4040     -0.1238
            z      -0.0901     -0.1152      2.7183
-------------------------------------------------------------------------------
   22 Si    x       3.3688      0.3343      0.1822
            y       0.1715      3.5737      0.0828
            z      -0.0115      0.0153      2.9876
-------------------------------------------------------------------------------
   23 Si    x       3.2090     -0.2959     -0.1613
            y      -0.1628      3.4366      0.1656
            z      -0.1339      0.0782      2.7317
-------------------------------------------------------------------------------
   24 Si    x       3.2159     -0.2928      0.1256
            y      -0.1582      3.4101     -0.1518
            z       0.1077     -0.0683      2.6866
-------------------------------------------------------------------------------
   25 O1    x      -2.2201     -0.9396      0.3965
            y      -1.0188     -2.3776      0.4052
            z       0.4800      0.3774     -1.7715
-------------------------------------------------------------------------------
   26 O2    x      -1.8477     -0.6790     -0.3711
            y      -0.7304     -1.8638     -0.3340
            z      -0.3756     -0.3218     -1.3531
-------------------------------------------------------------------------------
   27 O2    x      -1.7150      0.7348      0.3401
            y       0.7505     -2.0141     -0.3475
            z       0.3546     -0.3450     -1.3292
-------------------------------------------------------------------------------
   28 O2    x      -1.7210      0.7309     -0.2941
            y       0.7572     -1.9782      0.3231
            z      -0.3669      0.3205     -1.3352
-------------------------------------------------------------------------------
   29 O2    x      -1.6646     -0.7003      0.3451
            y      -0.6901     -1.9983      0.3604
            z       0.3430      0.3565     -1.3559
-------------------------------------------------------------------------------
   30 O2    x      -1.6771     -0.7228     -0.2819
            y      -0.7105     -1.9975     -0.2935
            z      -0.3520     -0.2998     -1.3301
-------------------------------------------------------------------------------
   31 O3    x      -2.1118      0.9338      0.5189
            y       0.9217     -2.2077     -0.4854
            z       0.5908     -0.4658     -1.6630
-------------------------------------------------------------------------------
   32 O3    x      -1.8823      0.8656     -0.3878
            y       0.8367     -2.5577      0.3423
            z      -0.4003      0.3704     -1.5456
-------------------------------------------------------------------------------
   33 O3    x      -1.9522     -0.0192      1.0391
            y      -0.0028     -1.1936      0.0189
            z       1.3131      0.0763     -3.4179
-------------------------------------------------------------------------------
   34 O2    x      -1.5436      0.0735     -0.7626
            y       0.0197     -1.1069      0.0775
            z      -0.9326      0.1545     -2.7592
-------------------------------------------------------------------------------
   35 O3    x      -2.0790     -0.0123     -1.0176
            y      -0.0028     -1.2643      0.0316
            z      -0.9694      0.0310     -2.7595
-------------------------------------------------------------------------------
   36 O2    x      -1.6746      0.0259      0.6904
            y       0.0069     -1.1098     -0.0199
            z       0.6837      0.0002     -2.2713
-------------------------------------------------------------------------------
   37 O2    x      -1.8190      0.0355     -0.6750
            y      -0.0065     -1.1110      0.0214
            z      -0.6515      0.0435     -2.1400
-------------------------------------------------------------------------------
   38 O2    x      -1.7902      0.0250      0.7768
            y       0.0050     -1.1137     -0.0083
            z       0.7792     -0.0291     -2.1970
-------------------------------------------------------------------------------
   39 O2    x      -1.6776     -0.7078      0.3692
            y      -0.6453     -2.0060      0.3831
            z       0.3795      0.3694     -1.2562
-------------------------------------------------------------------------------
   40 O2    x      -1.6840     -0.7037     -0.2390
            y      -0.6410     -2.0055     -0.2520
            z      -0.3108     -0.2537     -1.2070
-------------------------------------------------------------------------------
   41 O2    x      -1.6683      0.7090      0.3002
            y       0.6334     -2.0377     -0.3214
            z       0.3153     -0.3230     -1.2245
-------------------------------------------------------------------------------
   42 O2    x      -1.7052      0.7259     -0.4207
            y       0.6162     -2.0357      0.4213
            z      -0.3614      0.3813     -1.2610
-------------------------------------------------------------------------------
   43 O2    x      -1.7668     -0.7326      0.3049
            y      -0.7045     -1.9401      0.3248
            z       0.3329      0.3276     -1.2414
-------------------------------------------------------------------------------
   44 O2    x      -1.7544     -0.7119     -0.3937
            y      -0.6758     -1.9587     -0.3988
            z      -0.3142     -0.3492     -1.2623
-------------------------------------------------------------------------------
   45 O2    x      -1.7277      0.7346      0.3558
            y       0.7003     -1.9680     -0.3611
            z       0.3535     -0.3462     -1.2489
-------------------------------------------------------------------------------
   46 O2    x      -1.7332      0.7186     -0.2262
            y       0.6896     -1.9504      0.2605
            z      -0.3134      0.2705     -1.2124
-------------------------------------------------------------------------------
   47 O2    x      -1.8600     -0.0092     -0.6344
            y      -0.0103     -1.1593      0.0055
            z      -0.3711      0.0079     -1.7142
-------------------------------------------------------------------------------
   48 O2    x      -1.8589      0.0573      0.6018
            y       0.0290     -1.1758     -0.0305
            z       0.3376     -0.0296     -1.6832
-------------------------------------------------------------------------------
   49 O3    x      -1.2724      0.0176      0.0802
            y       0.0717     -3.1612      0.1676
            z       0.0595      0.1395     -1.2606
-------------------------------------------------------------------------------
   50 O3    x      -1.2954      0.2031     -0.1217
            y       0.2587     -3.1428      0.1778
            z      -0.1119      0.1744     -1.2967
-------------------------------------------------------------------------------
   51 O2    x      -1.1563     -0.0164      0.0575
            y      -0.0304     -2.5565      0.0209
            z       0.0744      0.0114     -1.0698
-------------------------------------------------------------------------------
   52 O2    x      -1.1516     -0.0172     -0.0616
            y      -0.0291     -2.5635      0.0119
            z      -0.0802      0.0179     -1.0680
-------------------------------------------------------------------------------
   53 O1    x      -3.1581     -0.1573      0.0294
            y      -0.0481     -1.5399      0.0925
            z       0.0191      0.0886     -1.2651
-------------------------------------------------------------------------------
   54 O2    x      -2.4088     -0.1201      0.0319
            y      -0.0783     -1.2690     -0.0463
            z       0.0264     -0.0535     -1.0914
-------------------------------------------------------------------------------
   55 O2    x      -2.3759      0.0307     -0.0017
            y       0.0116     -1.2443     -0.0649
            z      -0.0120     -0.0501     -1.0729
-------------------------------------------------------------------------------
   56 O2    x      -2.3808      0.0367      0.0011
            y       0.0192     -1.2438      0.0687
            z      -0.0001      0.0502     -1.0665
-------------------------------------------------------------------------------
   57 O3    x      -1.3872     -0.1706      0.0759
            y      -0.1485     -1.4446      0.0724
            z       0.0098      0.0413     -2.5545
-------------------------------------------------------------------------------
   58 O2    x      -1.2153     -0.1102     -0.0142
            y      -0.0875     -1.2521     -0.0833
            z       0.0102     -0.0867     -2.1016
-------------------------------------------------------------------------------
   59 O2    x      -1.1744      0.1212     -0.0229
            y       0.0938     -1.2688     -0.0200
            z      -0.0134     -0.0103     -2.0453
-------------------------------------------------------------------------------
   60 O2    x      -1.1716      0.1263      0.0165
            y       0.1032     -1.2799      0.0035
            z       0.0054     -0.0140     -2.0553
-------------------------------------------------------------------------------
   61 O2    x      -1.1932     -0.1262     -0.0274
            y      -0.1138     -1.2619     -0.0067
            z      -0.0366     -0.0100     -2.0479
-------------------------------------------------------------------------------
   62 O2    x      -1.1789     -0.1213      0.0292
            y      -0.1131     -1.2723     -0.0144
            z       0.0315     -0.0237     -2.0683
-------------------------------------------------------------------------------
   63 O2    x      -1.2613      0.1041     -0.0616
            y       0.1209     -1.2574     -0.0531
            z      -0.0670     -0.0502     -2.0765
-------------------------------------------------------------------------------
   64 O3    x      -1.4067      0.1362     -0.1746
            y       0.1670     -1.4027      0.0122
            z      -0.1105     -0.0272     -2.5826
-------------------------------------------------------------------------------
   65 O2    x      -1.2097     -0.0213      0.0855
            y      -0.0533     -2.5155      0.0174
            z       0.1020      0.0201     -1.0255
-------------------------------------------------------------------------------
   66 O2    x      -1.2157     -0.0272     -0.0817
            y      -0.0626     -2.4866      0.0234
            z      -0.0930      0.0173     -1.0226
-------------------------------------------------------------------------------
   67 O2    x      -1.2198      0.0767      0.1001
            y       0.1228     -2.4933      0.0329
            z       0.0740      0.0054     -1.0569
-------------------------------------------------------------------------------
   68 O2    x      -1.2394      0.0301     -0.0916
            y       0.1062     -2.5807      0.0245
            z      -0.0729      0.0009     -1.0148
-------------------------------------------------------------------------------
   69 O2    x      -2.3904      0.0315      0.0021
            y       0.0162     -1.2305      0.0666
            z       0.0150      0.0421     -1.0488
-------------------------------------------------------------------------------
   70 O2    x      -2.4099      0.0408      0.0048
            y       0.0318     -1.2350     -0.0590
            z       0.0155     -0.0383     -1.0379
-------------------------------------------------------------------------------
   71 O2    x      -2.5308     -0.0987      0.0338
            y      -0.0609     -1.2901     -0.0292
            z       0.0322     -0.0295     -0.9897
-------------------------------------------------------------------------------
   72 O2    x      -2.4885     -0.0752      0.0529
            y      -0.0390     -1.2387      0.0613
            z       0.0148      0.0498     -1.0236
-------------------------------------------------------------------------------




  Elastic Constant Matrix: (Units=GPa)

-------------------------------------------------------------------------------
  Indices      1         2         3         4         5         6    
-------------------------------------------------------------------------------
       1     54.7292   30.5575   22.6353   -3.3053   -6.8864   -4.3821
       2     30.5575   74.4838   20.8180   -2.5633   -6.7524   -3.2660
       3     22.6353   20.8180   25.9835   -1.4921   -4.0966   -3.9905
       4     -3.3053   -2.5633   -1.4921   10.6551   -0.7184    0.6299
       5     -6.8864   -6.7524   -4.0966   -0.7184   23.0812   -3.9083
       6     -4.3821   -3.2660   -3.9905    0.6299   -3.9083   22.7474
-------------------------------------------------------------------------------


  Elastic Compliance Matrix: (Units=1/GPa)

-------------------------------------------------------------------------------
  Indices      1         2         3         4         5         6    
-------------------------------------------------------------------------------
       1    0.031612 -0.006401 -0.021095  0.005483  0.004335  0.002063
       2   -0.006401  0.018833 -0.009077  0.001402  0.002065  0.000195
       3   -0.021095 -0.009077  0.065821  0.000348  0.003902  0.006841
       4    0.005483  0.001402  0.000348  0.096306  0.005023 -0.000485
       5    0.004335  0.002065  0.003902  0.005023  0.047745  0.009880
       6    0.002063  0.000195  0.006841 -0.000485  0.009880  0.047297
-------------------------------------------------------------------------------

  Mechanical properties :

-------------------------------------------------------------------------------
  Convention :                    Reuss         Voigt         Hill
-------------------------------------------------------------------------------
  Bulk  Modulus (GPa)     =      23.19091      33.69089      28.44090
  Shear Modulus (GPa)     =      12.65398      16.70912      14.68155
-------------------------------------------------------------------------------
  Velocity S-wave (km/s)  =       2.55257       2.93319       2.74947
  Velocity P-wave (km/s)  =       4.54187       5.36834       4.97231
-------------------------------------------------------------------------------
  Compressibility (1/GPa) =    0.04312035
-------------------------------------------------------------------------------
  Stress axis :                     x             y             z
-------------------------------------------------------------------------------
  Youngs Moduli (GPa)     =      31.63350      53.09930      15.19275
-------------------------------------------------------------------------------
  Poissons Ratio (x)      =                     0.33988       0.32049
  Poissons Ratio (y)      =       0.20248                     0.13790
  Poissons Ratio (z)      =       0.66731       0.48196
-------------------------------------------------------------------------------


  Piezoelectric Strain Matrix: (Units=C/m**2)

-------------------------------------------------------------------------------
  Indices      1         2         3         4         5         6    
-------------------------------------------------------------------------------
       x    -0.22921  -0.23824  -0.21410  -0.00185   0.07596  -0.56368
       y    -0.06919   0.30637  -0.24438   0.20406   0.04579   0.24050
       z     0.33260  -0.25885   0.22327  -0.17363  -0.70459   0.09836
-------------------------------------------------------------------------------


  Piezoelectric Stress Matrix: (Units=10**-11 C/N)

-------------------------------------------------------------------------------
  Indices      1         2         3         4         5         6    
-------------------------------------------------------------------------------
       x    -0.20483  -0.10316  -1.06546  -0.11879  -0.42729  -2.78928
       y     0.28203   0.88583  -1.55116   1.97305   0.49668   0.99735
       z     0.36578  -1.07098   0.78920  -1.87700  -3.17625  -0.00620
-------------------------------------------------------------------------------


  Static dielectric constant tensor : 

-------------------------------------------------------------------------------
              x         y         z
-------------------------------------------------------------------------------
       x     3.91461  -0.01650  -0.08949
       y    -0.01650   4.06301  -0.03950
       z    -0.08949  -0.03950   3.27020
--------------------------------------------------------------------------------

  High frequency dielectric constant tensor : 

-------------------------------------------------------------------------------
              x         y         z
-------------------------------------------------------------------------------
       x     1.67550  -0.00145  -0.00058
       y    -0.00145   1.68294  -0.00200
       z    -0.00058  -0.00200   1.61434
-------------------------------------------------------------------------------

  Static refractive indices : 

-------------------------------------------------------------------------------
    1 =    1.80441      2 =    1.98140      3 =    2.01643
-------------------------------------------------------------------------------

  High frequency refractive indices : 

-------------------------------------------------------------------------------
    1 =    1.27054      2 =    1.29431      3 =    1.29741
-------------------------------------------------------------------------------


  Time to end of optimisation =      12.9254 seconds


  Peak dynamic memory used =       5.01 MB 


  Timing analysis for GULP :

--------------------------------------------------------------------------------
  Task / Subroutine                                          Time (Seconds)
--------------------------------------------------------------------------------
  Calculation of reciprocal space energy and derivatives          0.7518
  Calculation of real space energy and derivatives                7.6065
  Calculation of three-body energy and derivatives                0.7958
  Calculation and manipulation of Hessian matrix                  4.2391
  Calculation of matrix inversion                                 0.0302
  Global summation overhead                                       0.0002
--------------------------------------------------------------------------------
  Total CPU time                                                 12.9255
--------------------------------------------------------------------------------


  Dump file written as c00064.vasp.grs
  CIF file written as c00064.vasp.cif


  Job Finished at 11:37.54  7th October    2025                               

