********************************************************************************
*                       GENERAL UTILITY LATTICE PROGRAM                        *
*                                 Julian Gale                                  *
*                       Curtin Institute for Computation                       *
*                    School of Molecular and Life Sciences                     *
*                    Curtin University, Western Australia                      *
********************************************************************************
* Version = 6.1.2 * Last modified =   3rd November 2022                        *
********************************************************************************
*  optimise     - perform optimisation run                                     *
*  conp         - constant pressure calculation                                *
*  property     - calculate properties for final geometry                      *
********************************************************************************

  Job Started  at 11:36.33  7th October    2025                               

  Number of CPUs =     1


  Total number of configurations input =      1

********************************************************************************
*  Input for Configuration =   1 : c00057.vasp                                 *
********************************************************************************

  Formula = Ge3Si21O48                                                  

  Number of irreducible atoms/shells =     120


  Total number atoms/shells =     120

  Dimensionality = 3               :  Bulk   



  Cartesian lattice vectors (Angstroms) :

       17.182800    0.000000    0.000000
        0.000000    7.513760    0.000000
        0.000000    0.000000   10.447700

  Cell parameters (Angstroms/Degrees):

  a =      17.1828    alpha =  90.0000
  b =       7.5138    beta  =  90.0000
  c =      10.4477    gamma =  90.0000

  Initial cell volume =        1348.875752 Angs**3

  Temperature of configuration =   0.00     K 

  Pressure of configuration =         0.000 GPa 

  Fractional coordinates of asymmetric unit :

--------------------------------------------------------------------------------
   No.  Atomic       x           y          z         Charge      Occupancy
        Label      (Frac)      (Frac)     (Frac)        (e)         (Frac)  
--------------------------------------------------------------------------------
      1 Ge    c    0.052090    0.000000    0.372270     4.00000    1.000000    
      2 Ge    c    0.056730 *  0.000000 *  0.877870 *   4.00000    1.000000    
      3 Ge    c    0.160660 *  0.705910 *  0.982560 *   4.00000    1.000000    
      4 Si    c    0.447910 *  0.000000 *  0.372270 *   4.00000    1.000000    
      5 Si    c    0.947910 *  0.000000 *  0.627730 *   4.00000    1.000000    
      6 Si    c    0.552090 *  0.000000 *  0.627730 *   4.00000    1.000000    
      7 Si    c    0.556730 *  0.000000 *  0.122130 *   4.00000    1.000000    
      8 Si    c    0.943270 *  0.000000 *  0.122130 *   4.00000    1.000000    
      9 Si    c    0.443270 *  0.000000 *  0.877870 *   4.00000    1.000000    
     10 Si    c    0.160190 *  0.293910 *  0.273440 *   4.00000    1.000000    
     11 Si    c    0.339810 *  0.706090 *  0.273440 *   4.00000    1.000000    
     12 Si    c    0.839810 *  0.293910 *  0.726560 *   4.00000    1.000000    
     13 Si    c    0.660190 *  0.706090 *  0.726560 *   4.00000    1.000000    
     14 Si    c    0.839810 *  0.706090 *  0.726560 *   4.00000    1.000000    
     15 Si    c    0.660190 *  0.293910 *  0.726560 *   4.00000    1.000000    
     16 Si    c    0.160190 *  0.706090 *  0.273440 *   4.00000    1.000000    
     17 Si    c    0.339810 *  0.293910 *  0.273440 *   4.00000    1.000000    
     18 Si    c    0.660660 *  0.294090 *  0.017440 *   4.00000    1.000000    
     19 Si    c    0.839340 *  0.705910 *  0.017440 *   4.00000    1.000000    
     20 Si    c    0.339340 *  0.294090 *  0.982560 *   4.00000    1.000000    
     21 Si    c    0.339340 *  0.705910 *  0.982560 *   4.00000    1.000000    
     22 Si    c    0.160660 *  0.294090 *  0.982560 *   4.00000    1.000000    
     23 Si    c    0.660660 *  0.705910 *  0.017440 *   4.00000    1.000000    
     24 Si    c    0.839340 *  0.294090 *  0.017440 *   4.00000    1.000000    
     25 O3    c    0.106570 *  0.174340 *  0.366200 *   1.33043    1.000000    
     26 O2    c    0.393430 *  0.825660 *  0.366200 *   0.87073    1.000000    
     27 O2    c    0.893430 *  0.174340 *  0.633800 *   0.87073    1.000000    
     28 O2    c    0.606570 *  0.825660 *  0.633800 *   0.87073    1.000000    
     29 O2    c    0.893430 *  0.825660 *  0.633800 *   0.87073    1.000000    
     30 O2    c    0.606570 *  0.174340 *  0.633800 *   0.87073    1.000000    
     31 O3    c    0.106570 *  0.825660 *  0.366200 *   1.33043    1.000000    
     32 O2    c    0.393430 *  0.174340 *  0.366200 *   0.87073    1.000000    
     33 O3    c    0.000000 *  0.000000 *  0.500000 *   1.33043    1.000000    
     34 O2    c    0.500000 *  0.000000 *  0.500000 *   0.87073    1.000000    
     35 O3    c    0.994520 *  0.000000 *  0.250840 *   1.33043    1.000000    
     36 O2    c    0.505480 *  0.000000 *  0.250840 *   0.87073    1.000000    
     37 O3    c    0.005480 *  0.000000 *  0.749160 *   1.33043    1.000000    
     38 O2    c    0.494520 *  0.000000 *  0.749160 *   0.87073    1.000000    
     39 O2    c    0.610230 *  0.175520 *  0.115390 *   0.87073    1.000000    
     40 O2    c    0.889770 *  0.824480 *  0.115390 *   0.87073    1.000000    
     41 O2    c    0.389770 *  0.175520 *  0.884610 *   0.87073    1.000000    
     42 O1    c    0.110230 *  0.824480 *  0.884610 *   1.73396    1.000000    
     43 O2    c    0.389770 *  0.824480 *  0.884610 *   0.87073    1.000000    
     44 O3    c    0.110230 *  0.175520 *  0.884610 *   1.33043    1.000000    
     45 O2    c    0.610230 *  0.824480 *  0.115390 *   0.87073    1.000000    
     46 O2    c    0.889770 *  0.175520 *  0.115390 *   0.87073    1.000000    
     47 O2    c    0.500000 *  0.000000 *  0.000000 *   0.87073    1.000000    
     48 O3    c    0.000000 *  0.000000 *  0.000000 *   1.33043    1.000000    
     49 O2    c    0.151750 *  0.500000 *  0.313330 *   0.87073    1.000000    
     50 O2    c    0.348250 *  0.500000 *  0.313330 *   0.87073    1.000000    
     51 O2    c    0.848250 *  0.500000 *  0.686670 *   0.87073    1.000000    
     52 O2    c    0.651750 *  0.500000 *  0.686670 *   0.87073    1.000000    
     53 O2    c    0.250000 *  0.234950 *  0.285720 *   0.87073    1.000000    
     54 O2    c    0.250000 *  0.765050 *  0.285720 *   0.87073    1.000000    
     55 O2    c    0.750000 *  0.234950 *  0.714280 *   0.87073    1.000000    
     56 O2    c    0.750000 *  0.765050 *  0.714280 *   0.87073    1.000000    
     57 O2    c    0.131410 *  0.268650 *  0.127790 *   0.87073    1.000000    
     58 O2    c    0.368590 *  0.731350 *  0.127790 *   0.87073    1.000000    
     59 O2    c    0.868590 *  0.268650 *  0.872210 *   0.87073    1.000000    
     60 O2    c    0.631410 *  0.731350 *  0.872210 *   0.87073    1.000000    
     61 O2    c    0.868590 *  0.731350 *  0.872210 *   0.87073    1.000000    
     62 O2    c    0.631410 *  0.268650 *  0.872210 *   0.87073    1.000000    
     63 O3    c    0.131410 *  0.731350 *  0.127790 *   1.33043    1.000000    
     64 O2    c    0.368590 *  0.268650 *  0.127790 *   0.87073    1.000000    
     65 O2    c    0.653920 *  0.500000 *  0.058200 *   0.87073    1.000000    
     66 O2    c    0.846080 *  0.500000 *  0.058200 *   0.87073    1.000000    
     67 O2    c    0.346080 *  0.500000 *  0.941800 *   0.87073    1.000000    
     68 O3    c    0.153920 *  0.500000 *  0.941800 *   1.33043    1.000000    
     69 O2    c    0.750000 *  0.231060 *  0.027050 *   0.87073    1.000000    
     70 O2    c    0.750000 *  0.768940 *  0.027050 *   0.87073    1.000000    
     71 O2    c    0.250000 *  0.231060 *  0.972950 *   0.87073    1.000000    
     72 O3    c    0.250000 *  0.768940 *  0.972950 *   1.33043    1.000000    
     73 O3    s    0.106570 *  0.174340 *  0.366200 *  -3.33043    1.000000    
     74 O2    s    0.393430 *  0.825660 *  0.366200 *  -2.87073    1.000000    
     75 O2    s    0.893430 *  0.174340 *  0.633800 *  -2.87073    1.000000    
     76 O2    s    0.606570 *  0.825660 *  0.633800 *  -2.87073    1.000000    
     77 O2    s    0.893430 *  0.825660 *  0.633800 *  -2.87073    1.000000    
     78 O2    s    0.606570 *  0.174340 *  0.633800 *  -2.87073    1.000000    
     79 O3    s    0.106570 *  0.825660 *  0.366200 *  -3.33043    1.000000    
     80 O2    s    0.393430 *  0.174340 *  0.366200 *  -2.87073    1.000000    
     81 O3    s    0.000000 *  0.000000 *  0.500000 *  -3.33043    1.000000    
     82 O2    s    0.500000 *  0.000000 *  0.500000 *  -2.87073    1.000000    
     83 O3    s    0.994520 *  0.000000 *  0.250840 *  -3.33043    1.000000    
     84 O2    s    0.505480 *  0.000000 *  0.250840 *  -2.87073    1.000000    
     85 O3    s    0.005480 *  0.000000 *  0.749160 *  -3.33043    1.000000    
     86 O2    s    0.494520 *  0.000000 *  0.749160 *  -2.87073    1.000000    
     87 O2    s    0.610230 *  0.175520 *  0.115390 *  -2.87073    1.000000    
     88 O2    s    0.889770 *  0.824480 *  0.115390 *  -2.87073    1.000000    
     89 O2    s    0.389770 *  0.175520 *  0.884610 *  -2.87073    1.000000    
     90 O1    s    0.110230 *  0.824480 *  0.884610 *  -3.73396    1.000000    
     91 O2    s    0.389770 *  0.824480 *  0.884610 *  -2.87073    1.000000    
     92 O3    s    0.110230 *  0.175520 *  0.884610 *  -3.33043    1.000000    
     93 O2    s    0.610230 *  0.824480 *  0.115390 *  -2.87073    1.000000    
     94 O2    s    0.889770 *  0.175520 *  0.115390 *  -2.87073    1.000000    
     95 O2    s    0.500000 *  0.000000 *  0.000000 *  -2.87073    1.000000    
     96 O3    s    0.000000 *  0.000000 *  0.000000 *  -3.33043    1.000000    
     97 O2    s    0.151750 *  0.500000 *  0.313330 *  -2.87073    1.000000    
     98 O2    s    0.348250 *  0.500000 *  0.313330 *  -2.87073    1.000000    
     99 O2    s    0.848250 *  0.500000 *  0.686670 *  -2.87073    1.000000    
    100 O2    s    0.651750 *  0.500000 *  0.686670 *  -2.87073    1.000000    
    101 O2    s    0.250000 *  0.234950 *  0.285720 *  -2.87073    1.000000    
    102 O2    s    0.250000 *  0.765050 *  0.285720 *  -2.87073    1.000000    
    103 O2    s    0.750000 *  0.234950 *  0.714280 *  -2.87073    1.000000    
    104 O2    s    0.750000 *  0.765050 *  0.714280 *  -2.87073    1.000000    
    105 O2    s    0.131410 *  0.268650 *  0.127790 *  -2.87073    1.000000    
    106 O2    s    0.368590 *  0.731350 *  0.127790 *  -2.87073    1.000000    
    107 O2    s    0.868590 *  0.268650 *  0.872210 *  -2.87073    1.000000    
    108 O2    s    0.631410 *  0.731350 *  0.872210 *  -2.87073    1.000000    
    109 O2    s    0.868590 *  0.731350 *  0.872210 *  -2.87073    1.000000    
    110 O2    s    0.631410 *  0.268650 *  0.872210 *  -2.87073    1.000000    
    111 O3    s    0.131410 *  0.731350 *  0.127790 *  -3.33043    1.000000    
    112 O2    s    0.368590 *  0.268650 *  0.127790 *  -2.87073    1.000000    
    113 O2    s    0.653920 *  0.500000 *  0.058200 *  -2.87073    1.000000    
    114 O2    s    0.846080 *  0.500000 *  0.058200 *  -2.87073    1.000000    
    115 O2    s    0.346080 *  0.500000 *  0.941800 *  -2.87073    1.000000    
    116 O3    s    0.153920 *  0.500000 *  0.941800 *  -3.33043    1.000000    
    117 O2    s    0.750000 *  0.231060 *  0.027050 *  -2.87073    1.000000    
    118 O2    s    0.750000 *  0.768940 *  0.027050 *  -2.87073    1.000000    
    119 O2    s    0.250000 *  0.231060 *  0.972950 *  -2.87073    1.000000    
    120 O3    s    0.250000 *  0.768940 *  0.972950 *  -3.33043    1.000000    
--------------------------------------------------------------------------------



********************************************************************************
*  General input information                                                   *
********************************************************************************

  Species output for all configurations : 

--------------------------------------------------------------------------------
  Species    Type    Atomic    Atomic    Charge       Radii (Angs)     Library
                     Number     Mass       (e)     Cova   Ionic  VDW   Symbol
--------------------------------------------------------------------------------
    Ge       Core       32      72.61   4.000000   1.170  0.000  1.750 Ge       
    Si       Core       14      28.09   4.000000   1.200  0.000  2.100 Si       
    O1       Core        8      16.00   1.733957   0.730  0.000  1.360 O1       
    O2       Core        8      16.00   0.870733   0.730  0.000  1.360 O2       
    O3       Core        8      16.00   1.330431   0.730  0.000  1.360 O3       
    O1       Shell       8       0.00  -3.733957   0.730  0.000  0.000 O1       
    O2       Shell       8       0.00  -2.870733   0.730  0.000  0.000 O2       
    O3       Shell       8       0.00  -3.330431   0.730  0.000  0.000 O3       
--------------------------------------------------------------------------------


  Lattice summation method               =    Ewald          (3-D)
                                         =    Parry          (2-D)
                                         =    Saunders et al (1-D)
  Accuracy factor for lattice sums       =   12.000


  Analytic derivatives to be used

  Time limit = Infinity

  Maximum range for interatomic potentials =    100000.000000 Angstroms

  General interatomic potentials :

--------------------------------------------------------------------------------
Atom  Types   Potential      Parameter       Value         Units   Cutoffs(Ang)
  1     2                                                            Min /  Max 
--------------------------------------------------------------------------------
Si   c O1   s Buckingham    Buckingham A     1315.2478    eV        0.000 16.000
                            Buckingham rho  0.31775900    Ang       
                            Buckingham C     10.141118    eV*Ang^6  
--------------------------------------------------------------------------------
Si   c O2   s Buckingham    Buckingham A     1315.2478    eV        0.000 16.000
                            Buckingham rho  0.31775900    Ang       
                            Buckingham C     10.141118    eV*Ang^6  
--------------------------------------------------------------------------------
Si   c O3   s Buckingham    Buckingham A     1315.2478    eV        0.000 16.000
                            Buckingham rho  0.31775900    Ang       
                            Buckingham C     10.141118    eV*Ang^6  
--------------------------------------------------------------------------------
Ge   c O1   s Buckingham    Buckingham A     1497.3996    eV        0.000 16.000
                            Buckingham rho  0.32564600    Ang       
                            Buckingham C     16.808599    eV*Ang^6  
--------------------------------------------------------------------------------
Ge   c O2   s Buckingham    Buckingham A     1497.3996    eV        0.000 16.000
                            Buckingham rho  0.32564600    Ang       
                            Buckingham C     16.808599    eV*Ang^6  
--------------------------------------------------------------------------------
Ge   c O3   s Buckingham    Buckingham A     1497.3996    eV        0.000 16.000
                            Buckingham rho  0.32564600    Ang       
                            Buckingham C     16.808599    eV*Ang^6  
--------------------------------------------------------------------------------
O1   s O1   s Buckingham    Buckingham A     22764.000    eV        0.000 16.000
                            Buckingham rho  0.14900000    Ang       
                            Buckingham C     10.937044    eV*Ang^6  
--------------------------------------------------------------------------------
O1   s O2   s Buckingham    Buckingham A     22764.000    eV        0.000 16.000
                            Buckingham rho  0.14900000    Ang       
                            Buckingham C     10.937044    eV*Ang^6  
--------------------------------------------------------------------------------
O1   s O3   s Buckingham    Buckingham A     22764.000    eV        0.000 16.000
                            Buckingham rho  0.14900000    Ang       
                            Buckingham C     10.937044    eV*Ang^6  
--------------------------------------------------------------------------------
O2   s O2   s Buckingham    Buckingham A     22764.000    eV        0.000 16.000
                            Buckingham rho  0.14900000    Ang       
                            Buckingham C     10.937044    eV*Ang^6  
--------------------------------------------------------------------------------
O2   s O3   s Buckingham    Buckingham A     22764.000    eV        0.000 16.000
                            Buckingham rho  0.14900000    Ang       
                            Buckingham C     10.937044    eV*Ang^6  
--------------------------------------------------------------------------------
O3   s O3   s Buckingham    Buckingham A     22764.000    eV        0.000 16.000
                            Buckingham rho  0.14900000    Ang       
                            Buckingham C     10.937044    eV*Ang^6  
--------------------------------------------------------------------------------
O1   c O1   s Spring (c-s)  Spring k 2       180.31577    eV*Ang^-2 0.000  0.800
                            Spring k 4       0.0000000    eV*Ang^-4 
--------------------------------------------------------------------------------
O2   c O2   s Spring (c-s)  Spring k 2       75.969800    eV*Ang^-2 0.000  0.800
                            Spring k 4       0.0000000    eV*Ang^-4 
--------------------------------------------------------------------------------
O3   c O3   s Spring (c-s)  Spring k 2       128.14270    eV*Ang^-2 0.000  0.800
                            Spring k 4       0.0000000    eV*Ang^-4 
--------------------------------------------------------------------------------

  General Three-body potentials :

--------------------------------------------------------------------------------
  Atoms       Potential      Parameter       Value         Units   Cutoffs(Ang)
  1 / 2 / 3                                                          Min /  Max 
--------------------------------------------------------------------------------
Si    core    Harmonic      Three-body cnst  1.2614000    eV*rad^-2 0.000  1.900
O1    shel                  Three-body angl  109.47000    degrees   0.000  1.900
O1    shel                  Three-body k4    0.0000000    eV*rad^-4 0.000  3.500
                            Three-body k3    0.0000000    eV*rad^-3 
--------------------------------------------------------------------------------
Si    core    Harmonic      Three-body cnst  1.2614000    eV*rad^-2 0.000  1.900
O1    shel                  Three-body angl  109.47000    degrees   0.000  1.900
õ(1   shel                  Three-body k4    0.0000000    eV*rad^-4 0.000  3.500
                            Three-body k3    0.0000000    eV*rad^-3 
--------------------------------------------------------------------------------
Si    core    Harmonic      Three-body cnst  1.2614000    eV*rad^-2 0.000  1.900
õ(1   shel                  Three-body angl  109.47000    degrees   0.000  1.900
õ(1   shel                  Three-body k4    0.0000000    eV*rad^-4 0.000  3.500
                            Three-body k3    0.0000000    eV*rad^-3 
--------------------------------------------------------------------------------
Si    core    Harmonic      Three-body cnst  1.2614000    eV*rad^-2 0.000  1.900
O1    shel                  Three-body angl  109.47000    degrees   0.000  1.900
O2    shel                  Three-body k4    0.0000000    eV*rad^-4 0.000  3.500
                            Three-body k3    0.0000000    eV*rad^-3 
--------------------------------------------------------------------------------
Si    core    Harmonic      Three-body cnst  1.2614000    eV*rad^-2 0.000  1.900
O1    shel                  Three-body angl  109.47000    degrees   0.000  1.900
õ(2   shel                  Three-body k4    0.0000000    eV*rad^-4 0.000  3.500
                            Three-body k3    0.0000000    eV*rad^-3 
--------------------------------------------------------------------------------
Si    core    Harmonic      Three-body cnst  1.2614000    eV*rad^-2 0.000  1.900
O2    shel                  Three-body angl  109.47000    degrees   0.000  1.900
õ(1   shel                  Three-body k4    0.0000000    eV*rad^-4 0.000  3.500
                            Three-body k3    0.0000000    eV*rad^-3 
--------------------------------------------------------------------------------
Si    core    Harmonic      Three-body cnst  1.2614000    eV*rad^-2 0.000  1.900
õ(1   shel                  Three-body angl  109.47000    degrees   0.000  1.900
õ(2   shel                  Three-body k4    0.0000000    eV*rad^-4 0.000  3.500
                            Three-body k3    0.0000000    eV*rad^-3 
--------------------------------------------------------------------------------
Si    core    Harmonic      Three-body cnst  1.2614000    eV*rad^-2 0.000  1.900
O2    shel                  Three-body angl  109.47000    degrees   0.000  1.900
O2    shel                  Three-body k4    0.0000000    eV*rad^-4 0.000  3.500
                            Three-body k3    0.0000000    eV*rad^-3 
--------------------------------------------------------------------------------
Si    core    Harmonic      Three-body cnst  1.2614000    eV*rad^-2 0.000  1.900
O2    shel                  Three-body angl  109.47000    degrees   0.000  1.900
õ(2   shel                  Three-body k4    0.0000000    eV*rad^-4 0.000  3.500
                            Three-body k3    0.0000000    eV*rad^-3 
--------------------------------------------------------------------------------
Si    core    Harmonic      Three-body cnst  1.2614000    eV*rad^-2 0.000  1.900
õ(2   shel                  Three-body angl  109.47000    degrees   0.000  1.900
õ(2   shel                  Three-body k4    0.0000000    eV*rad^-4 0.000  3.500
                            Three-body k3    0.0000000    eV*rad^-3 
--------------------------------------------------------------------------------

********************************************************************************
*  Output for configuration   1 : c00057.vasp                                  *
********************************************************************************


  Components of energy : 

--------------------------------------------------------------------------------
  Interatomic potentials     =         760.36645445 eV    
  Three-body potentials      =           0.01332847 eV    
  Monopole - monopole (real) =       -2676.00317478 eV    
  Monopole - monopole (recip)=       -1115.35404472 eV    
  Monopole - monopole (total)=       -3791.35721950 eV    
--------------------------------------------------------------------------------
  Total lattice energy       =       -3030.97743658 eV    
--------------------------------------------------------------------------------
  Total lattice energy       =         -292442.9899 kJ/(mole unit cells)
--------------------------------------------------------------------------------


  Number of variables =      363

  Maximum number of calculations  =          1000
  Maximum Hessian update interval =            10
  Maximum step size               =   0.100000000
  Maximum parameter tolerance     =   0.000010000
  Maximum function  tolerance     =   0.000010000
  Maximum gradient  tolerance     =   0.001000000
  Maximum gradient  component     =   0.010000000

  Symmetry not applied to optimisation

  Cell parameters to be optimised using strains

  Newton-Raphson optimiser to be used

  BFGS hessian update to be used

  Lower half triangular hessian to be used

  Minimiser to switch to RFO
  When gradient norm is less than     0.050000

  Dumpfile to be written after every cycle

  Start of bulk optimisation :

  Cycle:      0 Energy:     -3030.977437  Gnorm:      4.342635  CPU:    0.111
  ** Hessian calculated **
  Cycle:      1 Energy:     -3061.742925  Gnorm:      0.959689  CPU:    0.233
  ** Hessian calculated **
  Cycle:      2 Energy:     -3064.258142  Gnorm:      0.713986  CPU:    0.437
  ** Hessian calculated **
  Cycle:      3 Energy:     -3065.614223  Gnorm:      0.386053  CPU:    0.625
  Cycle:      4 Energy:     -3066.023124  Gnorm:      0.244433  CPU:    0.716
  Cycle:      5 Energy:     -3066.355649  Gnorm:      0.194564  CPU:    0.818
  Cycle:      6 Energy:     -3066.675414  Gnorm:      0.152626  CPU:    0.920
  Cycle:      7 Energy:     -3066.918934  Gnorm:      0.131250  CPU:    1.022
  Cycle:      8 Energy:     -3067.030456  Gnorm:      0.098107  CPU:    1.110
  Cycle:      9 Energy:     -3067.099713  Gnorm:      0.080655  CPU:    1.198
  Cycle:     10 Energy:     -3067.145223  Gnorm:      0.065419  CPU:    1.299
  Cycle:     11 Energy:     -3067.178630  Gnorm:      0.060967  CPU:    1.400
  Cycle:     12 Energy:     -3067.213318  Gnorm:      0.062368  CPU:    1.502
  ** Hessian calculated **
  Cycle:     13 Energy:     -3067.247263  Gnorm:      0.059846  CPU:    1.683
  Cycle:     14 Energy:     -3067.302117  Gnorm:      0.055602  CPU:    1.802
  Cycle:     15 Energy:     -3067.367710  Gnorm:      0.050191  CPU:    1.904
  Cycle:     16 Energy:     -3067.462173  Gnorm:      0.041680  CPU:    2.022
  ** Hessian has wrong structure
  ** Imaginary eigenvectors =   3
  Cycle:     17 Energy:     -3067.506152  Gnorm:      0.063658  CPU:    2.294
  ** Hessian has wrong structure
  ** Imaginary eigenvectors =   2
  Cycle:     18 Energy:     -3067.560480  Gnorm:      0.071402  CPU:    2.711
  ** Hessian has wrong structure
  ** Imaginary eigenvectors =   2
  Cycle:     19 Energy:     -3067.640555  Gnorm:      0.087280  CPU:    3.014
  ** Hessian has required structure
  Cycle:     20 Energy:     -3067.776778  Gnorm:      0.082600  CPU:    3.251
  ** Hessian has required structure
  Cycle:     21 Energy:     -3067.965431  Gnorm:      0.045689  CPU:    3.396
  ** Hessian has required structure
  Cycle:     22 Energy:     -3067.994882  Gnorm:      0.053954  CPU:    3.542
  ** Hessian has required structure
  Cycle:     23 Energy:     -3068.030997  Gnorm:      0.045766  CPU:    3.674
  ** Hessian has required structure
  Cycle:     24 Energy:     -3068.052092  Gnorm:      0.032328  CPU:    3.822
  ** Hessian has required structure
  Cycle:     25 Energy:     -3068.087434  Gnorm:      0.037116  CPU:    3.990
  ** Hessian has required structure
  Cycle:     26 Energy:     -3068.106996  Gnorm:      0.029289  CPU:    4.158
  ** Hessian has required structure
  Cycle:     27 Energy:     -3068.122187  Gnorm:      0.033452  CPU:    4.345
  ** Hessian has required structure
  Cycle:     28 Energy:     -3068.136019  Gnorm:      0.025817  CPU:    4.515
  ** Hessian has required structure
  Cycle:     29 Energy:     -3068.145433  Gnorm:      0.020603  CPU:    4.684
  ** Hessian has required structure
  Cycle:     30 Energy:     -3068.158658  Gnorm:      0.016610  CPU:    4.973
  ** Hessian has required structure
  Cycle:     31 Energy:     -3068.167007  Gnorm:      0.012777  CPU:    5.152
  ** Hessian has required structure
  Cycle:     32 Energy:     -3068.169714  Gnorm:      0.007061  CPU:    5.329
  ** Hessian has required structure
  Cycle:     33 Energy:     -3068.170853  Gnorm:      0.008940  CPU:    5.528
  ** Hessian has required structure
  Cycle:     34 Energy:     -3068.172546  Gnorm:      0.006810  CPU:    5.726
  ** Hessian has required structure
  Cycle:     35 Energy:     -3068.173646  Gnorm:      0.006494  CPU:    5.924
  ** Hessian has required structure
  Cycle:     36 Energy:     -3068.175104  Gnorm:      0.006193  CPU:    6.121
  ** Hessian has required structure
  Cycle:     37 Energy:     -3068.176941  Gnorm:      0.007252  CPU:    6.318
  ** Hessian has required structure
  Cycle:     38 Energy:     -3068.178636  Gnorm:      0.006781  CPU:    6.515
  ** Hessian has required structure
  Cycle:     39 Energy:     -3068.179991  Gnorm:      0.007566  CPU:    6.685
  ** Hessian has required structure
  Cycle:     40 Energy:     -3068.182127  Gnorm:      0.004890  CPU:    6.958
  ** Hessian has required structure
  Cycle:     41 Energy:     -3068.182977  Gnorm:      0.003021  CPU:    7.145
  ** Hessian has required structure
  Cycle:     42 Energy:     -3068.183279  Gnorm:      0.001586  CPU:    7.330
  ** Hessian has required structure
  Cycle:     43 Energy:     -3068.183406  Gnorm:      0.001527  CPU:    7.495
  ** Hessian has required structure
  Cycle:     44 Energy:     -3068.183496  Gnorm:      0.000609  CPU:    7.679
  ** Hessian has required structure
  Cycle:     45 Energy:     -3068.183513  Gnorm:      0.000414  CPU:    7.862
  ** Hessian has required structure
  Cycle:     46 Energy:     -3068.183516  Gnorm:      0.000330  CPU:    8.007
  ** Hessian has required structure
  Cycle:     47 Energy:     -3068.183517  Gnorm:      0.000287  CPU:    8.152
  ** Hessian has required structure
  Cycle:     48 Energy:     -3068.183519  Gnorm:      0.000236  CPU:    8.298
  ** Hessian has required structure
  Cycle:     49 Energy:     -3068.183520  Gnorm:      0.000208  CPU:    8.442
  ** Hessian has required structure
  Cycle:     50 Energy:     -3068.183521  Gnorm:      0.000167  CPU:    8.675
  ** Hessian has required structure
  Cycle:     51 Energy:     -3068.183521  Gnorm:      0.000130  CPU:    8.823
  ** Hessian has required structure
  Cycle:     52 Energy:     -3068.183521  Gnorm:      0.000129  CPU:    9.009
  ** Hessian has required structure
  Cycle:     53 Energy:     -3068.183522  Gnorm:      0.000128  CPU:    9.156
  ** Hessian has required structure
  Cycle:     54 Energy:     -3068.183522  Gnorm:      0.000128  CPU:    9.303
  ** Hessian has required structure
  Cycle:     55 Energy:     -3068.183522  Gnorm:      0.000128  CPU:    9.451
  ** Hessian has required structure
  Cycle:     56 Energy:     -3068.183522  Gnorm:      0.000128  CPU:    9.598
  ** Hessian has required structure
  Cycle:     57 Energy:     -3068.183522  Gnorm:      0.000127  CPU:    9.744
  ** Hessian has required structure
  Cycle:     58 Energy:     -3068.183522  Gnorm:      0.000127  CPU:    9.891
  ** Hessian has required structure
  Cycle:     59 Energy:     -3068.183522  Gnorm:      0.000127  CPU:   10.038
  ** Hessian has required structure
  Cycle:     60 Energy:     -3068.183522  Gnorm:      0.000126  CPU:   10.288
  ** Hessian has required structure
  Cycle:     61 Energy:     -3068.183522  Gnorm:      0.000125  CPU:   10.435
  ** Hessian has required structure
  Cycle:     62 Energy:     -3068.183522  Gnorm:      0.000125  CPU:   10.655
  ** Hessian has required structure


  **** Too many failed attempts to optimise ****

  Final energy =   -3068.18352154 eV      
  Final Gnorm  =       0.00012544

  Components of energy : 

--------------------------------------------------------------------------------
  Interatomic potentials     =         816.96155869 eV    
  Three-body potentials      =           0.23497125 eV    
  Monopole - monopole (real) =       -2203.01653129 eV    
  Monopole - monopole (recip)=       -1682.36352020 eV    
  Monopole - monopole (total)=       -3885.38005149 eV    
--------------------------------------------------------------------------------
  Total lattice energy       =       -3068.18352154 eV    
--------------------------------------------------------------------------------
  Total lattice energy       =         -296032.8083 kJ/(mole unit cells)
--------------------------------------------------------------------------------

  Final fractional coordinates of atoms :

--------------------------------------------------------------------------------
   No.  Atomic        x           y          z          Radius
        Label       (Frac)      (Frac)     (Frac)       (Angs) 
--------------------------------------------------------------------------------
     1  Ge    c     0.052090    0.000000    0.372270    0.000000
     2  Ge    c     0.055600    0.981781    0.871349    0.000000
     3  Ge    c     0.148536    0.662176    0.986345    0.000000
     4  Si    c     0.453442    0.023113    0.387414    0.000000
     5  Si    c     0.947290    0.007414    0.625246    0.000000
     6  Si    c     0.549359    0.007942    0.650003    0.000000
     7  Si    c     0.558471    0.014231    0.140389    0.000000
     8  Si    c     0.946412    0.020944    0.114008    0.000000
     9  Si    c     0.443919    0.004866    0.902384    0.000000
    10  Si    c     0.174067    0.282552    0.302102    0.000000
    11  Si    c     0.335202    0.730038    0.289745    0.000000
    12  Si    c     0.834723    0.298549    0.733037    0.000000
    13  Si    c     0.663765    0.721649    0.732498    0.000000
    14  Si    c     0.844006    0.702948    0.732060    0.000000
    15  Si    c     0.655635    0.316409    0.731694    0.000000
    16  Si    c     0.156738    0.690269    0.295285    0.000000
    17  Si    c     0.353670    0.328969    0.298792    0.000000
    18  Si    c     0.654589    0.326369    0.037635    0.000000
    19  Si    c     0.847186    0.704139    0.037312    0.000000
    20  Si    c     0.351927    0.321314    0.994918    0.000000
    21  Si    c     0.331112    0.713123    0.981566    0.000000
    22  Si    c     0.171183    0.258034    0.999745    0.000000
    23  Si    c     0.666474    0.726511    0.037532    0.000000
    24  Si    c     0.834101    0.305901    0.040087    0.000000
    25  O3    c     0.123648    0.161612    0.395777    0.000000
    26  O2    c     0.387200    0.874259    0.365607    0.000000
    27  O2    c     0.888948    0.168050    0.652362    0.000000
    28  O2    c     0.611399    0.849430    0.645777    0.000000
    29  O2    c     0.902635    0.822195    0.649684    0.000000
    30  O2    c     0.596467    0.193195    0.648841    0.000000
    31  O3    c     0.097426    0.798940    0.383965    0.000000
    32  O2    c     0.413696    0.214827    0.383357    0.000000
    33  O3    c     0.974804    0.014564    0.477301    0.000000
    34  O2    c     0.492005    0.995658    0.527518    0.000000
    35  O3    c     0.012695    0.037933    0.220109    0.000000
    36  O2    c     0.522247    0.006473    0.283066    0.000000
    37  O3    c     0.025162    0.018687    0.713162    0.000000
    38  O2    c     0.497094    0.988995    0.777145    0.000000
    39  O2    c     0.596708    0.206800    0.121307    0.000000
    40  O2    c     0.904522    0.828099    0.123173    0.000000
    41  O2    c     0.405605    0.197504    0.906071    0.000000
    42  O1    c     0.081740    0.767422    0.892135    0.000000
    43  O2    c     0.376744    0.855455    0.895394    0.000000
    44  O3    c     0.139279    0.103214    0.908870    0.000000
    45  O2    c     0.623847    0.864748    0.130302    0.000000
    46  O2    c     0.881024    0.171873    0.129569    0.000000
    47  O2    c     0.493124    0.970844    0.032771    0.000000
    48  O3    c     0.982208    0.049343    0.971982    0.000000
    49  O2    c     0.143630    0.481968    0.312133    0.000000
    50  O2    c     0.368574    0.536884    0.322333    0.000000
    51  O2    c     0.860331    0.498457    0.700460    0.000000
    52  O2    c     0.638769    0.520024    0.701904    0.000000
    53  O2    c     0.265584    0.278942    0.340104    0.000000
    54  O2    c     0.245749    0.742854    0.336770    0.000000
    55  O2    c     0.744219    0.269534    0.692432    0.000000
    56  O2    c     0.754748    0.749365    0.697229    0.000000
    57  O2    c     0.163506    0.209566    0.153260    0.000000
    58  O2    c     0.335417    0.765582    0.135149    0.000000
    59  O2    c     0.844002    0.261641    0.886676    0.000000
    60  O2    c     0.652035    0.769530    0.885266    0.000000
    61  O2    c     0.862093    0.742931    0.884546    0.000000
    62  O2    c     0.642577    0.279092    0.884835    0.000000
    63  O3    c     0.140108    0.739729    0.145573    0.000000
    64  O2    c     0.368404    0.280079    0.147048    0.000000
    65  O2    c     0.634874    0.529916    0.066128    0.000000
    66  O2    c     0.866779    0.502745    0.069614    0.000000
    67  O2    c     0.372225    0.523387    0.962279    0.000000
    68  O3    c     0.127374    0.439996    0.974831    0.000000
    69  O2    c     0.743614    0.290271    0.078843    0.000000
    70  O2    c     0.757847    0.742640    0.071449    0.000000
    71  O2    c     0.261499    0.287812    0.963191    0.000000
    72  O3    c     0.242724    0.704843    0.933963    0.000000
    73  O3    s     0.123225    0.161439    0.384414    0.000000
    74  O2    s     0.388560    0.874241    0.359294    0.000000
    75  O2    s     0.889071    0.165525    0.658678    0.000000
    76  O2    s     0.610662    0.852019    0.655886    0.000000
    77  O2    s     0.900718    0.828277    0.656446    0.000000
    78  O2    s     0.598031    0.187154    0.658151    0.000000
    79  O3    s     0.099690    0.804176    0.374259    0.000000
    80  O2    s     0.411348    0.207040    0.374579    0.000000
    81  O3    s     0.978499    0.012556    0.483860    0.000000
    82  O2    s     0.494266    0.000328    0.525570    0.000000
    83  O3    s     0.008600    0.032816    0.221089    0.000000
    84  O2    s     0.518722    0.009249    0.278206    0.000000
    85  O3    s     0.020102    0.014591    0.717411    0.000000
    86  O2    s     0.496815    0.993110    0.777407    0.000000
    87  O2    s     0.599118    0.199548    0.113865    0.000000
    88  O2    s     0.902478    0.833908    0.112865    0.000000
    89  O2    s     0.403786    0.190587    0.915517    0.000000
    90  O1    s     0.084948    0.775636    0.897886    0.000000
    91  O2    s     0.379004    0.856048    0.905669    0.000000
    92  O3    s     0.135987    0.109849    0.915495    0.000000
    93  O2    s     0.621585    0.865300    0.120777    0.000000
    94  O2    s     0.882589    0.171144    0.118015    0.000000
    95  O2    s     0.495047    0.979564    0.030410    0.000000
    96  O3    s     0.984842    0.040800    0.977731    0.000000
    97  O2    s     0.148308    0.483200    0.309274    0.000000
    98  O2    s     0.363487    0.534810    0.316416    0.000000
    99  O2    s     0.855862    0.499215    0.707287    0.000000
   100  O2    s     0.643296    0.519651    0.708405    0.000000
   101  O2    s     0.265234    0.284704    0.331681    0.000000
   102  O2    s     0.246116    0.736081    0.327555    0.000000
   103  O2    s     0.744476    0.277620    0.700913    0.000000
   104  O2    s     0.754631    0.741390    0.704725    0.000000
   105  O2    s     0.165365    0.221833    0.152848    0.000000
   106  O2    s     0.334931    0.756191    0.135740    0.000000
   107  O2    s     0.841894    0.270422    0.886423    0.000000
   108  O2    s     0.654820    0.759936    0.885280    0.000000
   109  O2    s     0.858630    0.734661    0.884441    0.000000
   110  O2    s     0.645262    0.288089    0.884879    0.000000
   111  O3    s     0.142334    0.728971    0.147564    0.000000
   112  O2    s     0.365120    0.289499    0.147044    0.000000
   113  O2    s     0.640350    0.528980    0.060011    0.000000
   114  O2    s     0.861220    0.503675    0.062995    0.000000
   115  O2    s     0.365850    0.521224    0.967772    0.000000
   116  O3    s     0.133289    0.440087    0.978128    0.000000
   117  O2    s     0.743801    0.295984    0.070083    0.000000
   118  O2    s     0.757692    0.736498    0.063867    0.000000
   119  O2    s     0.261874    0.288454    0.970779    0.000000
   120  O3    s     0.244329    0.702298    0.943021    0.000000
--------------------------------------------------------------------------------

  Final Cartesian lattice vectors (Angstroms) :

       17.129330   -0.107344   -0.061989
       -0.046382    7.602456   -0.046939
       -0.035583   -0.064368   10.217666


  Final cell parameters and derivatives :

--------------------------------------------------------------------------------
       a           17.129779 Angstrom     dE/de1(xx)     0.014475 eV/strain
       b            7.602743 Angstrom     dE/de2(yy)     0.009780 eV/strain
       c           10.217931 Angstrom     dE/de3(zz)     0.014148 eV/strain
       alpha       90.713455 Degrees      dE/de4(yz)     0.000221 eV/strain
       beta        90.404597 Degrees      dE/de5(xz)    -0.000224 eV/strain
       gamma       90.707306 Degrees      dE/de6(xy)    -0.000315 eV/strain
--------------------------------------------------------------------------------

  Primitive cell volume =          1330.475589 Angs**3

  Density of cell =      1.966655 g/cm**3

  Non-primitive cell volume =          1330.475589 Angs**3


  Final internal derivatives :

--------------------------------------------------------------------------------
   No.  Atomic          a             b             c           Radius
        Label          (eV)          (eV)          (eV)        (eV/Angs)
--------------------------------------------------------------------------------
      1 Ge    c       0.000000      0.000000      0.000000      0.000000
      2 Ge    c       0.003654      0.000106     -0.002260      0.000000
      3 Ge    c      -0.000907      0.000588      0.000188      0.000000
      4 Si    c      -0.006645      0.001338     -0.000280      0.000000
      5 Si    c      -0.000662     -0.000016     -0.000751      0.000000
      6 Si    c       0.011509      0.001215      0.000225      0.000000
      7 Si    c       0.007067      0.001723      0.000680      0.000000
      8 Si    c      -0.005612     -0.000311     -0.003223      0.000000
      9 Si    c      -0.008874      0.001705      0.003996      0.000000
     10 Si    c      -0.000529     -0.000095     -0.000930      0.000000
     11 Si    c       0.001701      0.000021      0.000115      0.000000
     12 Si    c       0.000750     -0.000222      0.000302      0.000000
     13 Si    c      -0.001572      0.000067     -0.000114      0.000000
     14 Si    c      -0.000027      0.000115      0.000162      0.000000
     15 Si    c      -0.001433      0.000025     -0.000074      0.000000
     16 Si    c      -0.000133     -0.000053     -0.000249      0.000000
     17 Si    c       0.001158      0.000030      0.000226      0.000000
     18 Si    c      -0.000901     -0.000303      0.000076      0.000000
     19 Si    c      -0.000140      0.000255     -0.000195      0.000000
     20 Si    c       0.002123      0.000131     -0.000110      0.000000
     21 Si    c       0.003699      0.000298      0.001150      0.000000
     22 Si    c      -0.004031     -0.000638      0.000643      0.000000
     23 Si    c      -0.001002     -0.000172     -0.000523      0.000000
     24 Si    c       0.000974     -0.000262     -0.001336      0.000000
     25 O3    c       0.000887      0.000384      0.000778      0.000000
     26 O2    c      -0.002943     -0.001668     -0.000097      0.000000
     27 O2    c      -0.001363      0.000832      0.000263      0.000000
     28 O2    c       0.001920     -0.001647     -0.000109      0.000000
     29 O2    c       0.000348     -0.000253     -0.000273      0.000000
     30 O2    c       0.000707      0.001475     -0.000325      0.000000
     31 O3    c       0.001640     -0.001656      0.000307      0.000000
     32 O2    c       0.000062      0.000720      0.000206      0.000000
     33 O3    c      -0.007181      0.000141      0.002850      0.000000
     34 O2    c      -0.007186     -0.001266     -0.003384      0.000000
     35 O3    c       0.015453      0.000503      0.006024      0.000000
     36 O2    c       0.005105     -0.001117      0.001188      0.000000
     37 O3    c       0.005123      0.000158      0.001617      0.000000
     38 O2    c       0.002033     -0.002102     -0.005942      0.000000
     39 O2    c       0.000792      0.001940     -0.000115      0.000000
     40 O2    c      -0.000970     -0.001829      0.000369      0.000000
     41 O2    c      -0.000783      0.002277     -0.000288      0.000000
     42 O1    c       0.001296     -0.000950      0.000583      0.000000
     43 O2    c      -0.002561     -0.001445     -0.001062      0.000000
     44 O3    c       0.001181      0.000044     -0.000181      0.000000
     45 O2    c       0.003694     -0.001508      0.001153      0.000000
     46 O2    c      -0.002063      0.001083      0.000959      0.000000
     47 O2    c      -0.004390     -0.004249     -0.000905      0.000000
     48 O3    c      -0.006734      0.001888      0.001508      0.000000
     49 O2    c      -0.000712      0.000504      0.000244      0.000000
     50 O2    c       0.000715     -0.000164      0.000487      0.000000
     51 O2    c       0.000397     -0.000043     -0.000240      0.000000
     52 O2    c      -0.000607      0.000015     -0.000235      0.000000
     53 O2    c       0.001406     -0.000197      0.000345      0.000000
     54 O2    c      -0.002256      0.000088      0.000346      0.000000
     55 O2    c      -0.000356     -0.000042     -0.000221      0.000000
     56 O2    c       0.000072      0.000062     -0.000291      0.000000
     57 O2    c      -0.000185      0.000016      0.000361      0.000000
     58 O2    c       0.000142      0.000004     -0.000300      0.000000
     59 O2    c       0.000208      0.000018      0.000247      0.000000
     60 O2    c       0.000019     -0.000270      0.000135      0.000000
     61 O2    c       0.000504      0.000088      0.000042      0.000000
     62 O2    c       0.000023      0.000201     -0.000060      0.000000
     63 O3    c       0.000395     -0.000015      0.000018      0.000000
     64 O2    c       0.000262      0.000024     -0.000172      0.000000
     65 O2    c      -0.001134     -0.000439      0.000368      0.000000
     66 O2    c       0.001135      0.000349      0.000316      0.000000
     67 O2    c       0.001927     -0.001187     -0.000876      0.000000
     68 O3    c      -0.002286      0.000865     -0.000844      0.000000
     69 O2    c      -0.002383      0.000016      0.000514      0.000000
     70 O2    c       0.002144     -0.000030      0.000408      0.000000
     71 O2    c       0.006296     -0.000309     -0.000869      0.000000
     72 O3    c      -0.006172      0.000797     -0.001173      0.000000
     73 O3    s       0.000319     -0.000015     -0.000016      0.000000
     74 O2    s      -0.003522      0.000222     -0.000322      0.000000
     75 O2    s      -0.000306     -0.000084     -0.000157      0.000000
     76 O2    s       0.005424     -0.000438     -0.000039      0.000000
     77 O2    s      -0.000548     -0.000265      0.000284      0.000000
     78 O2    s       0.005150      0.001088      0.000817      0.000000
     79 O3    s       0.000574      0.000191     -0.000342      0.000000
     80 O2    s      -0.003540      0.000803     -0.000175      0.000000
     81 O3    s       0.002521     -0.000048     -0.001046      0.000000
     82 O2    s       0.000870     -0.000209      0.000046      0.000000
     83 O3    s      -0.004844      0.000579     -0.001593      0.000000
     84 O2    s      -0.001287      0.000614      0.000915      0.000000
     85 O3    s      -0.002463     -0.000242     -0.000595      0.000000
     86 O2    s      -0.000949     -0.000167      0.000375      0.000000
     87 O2    s       0.004605      0.001619     -0.000076      0.000000
     88 O2    s      -0.002560     -0.001036     -0.000373      0.000000
     89 O2    s      -0.005576      0.001677      0.001213      0.000000
     90 O1    s      -0.000690      0.000140     -0.000147      0.000000
     91 O2    s      -0.006055     -0.000301     -0.000040      0.000000
     92 O3    s      -0.000206     -0.000819      0.000225      0.000000
     93 O2    s       0.005145     -0.000568     -0.000316      0.000000
     94 O2    s      -0.002598      0.000483      0.000471      0.000000
     95 O2    s       0.001421      0.000480      0.001492      0.000000
     96 O3    s       0.005309     -0.000814     -0.002887      0.000000
     97 O2    s      -0.000585      0.000341      0.000069      0.000000
     98 O2    s       0.000343     -0.000074      0.000137      0.000000
     99 O2    s      -0.000101      0.000019      0.000093      0.000000
    100 O2    s       0.000820     -0.000063      0.000283      0.000000
    101 O2    s       0.000034     -0.000517      0.000410      0.000000
    102 O2    s      -0.000644      0.000470      0.000257      0.000000
    103 O2    s       0.000190     -0.000206      0.000182      0.000000
    104 O2    s       0.000196      0.000148      0.000222      0.000000
    105 O2    s      -0.001664     -0.000643      0.000196      0.000000
    106 O2    s       0.001717      0.000700      0.001216      0.000000
    107 O2    s      -0.000475      0.000028     -0.000647      0.000000
    108 O2    s      -0.000554      0.000706     -0.000044      0.000000
    109 O2    s      -0.000590     -0.000146      0.000019      0.000000
    110 O2    s       0.000264     -0.000498      0.000199      0.000000
    111 O3    s      -0.000637      0.000206     -0.000010      0.000000
    112 O2    s       0.000918     -0.000656      0.000104      0.000000
    113 O2    s       0.000580     -0.000214     -0.000481      0.000000
    114 O2    s      -0.000069      0.000403     -0.000286      0.000000
    115 O2    s      -0.000030     -0.000365      0.000228      0.000000
    116 O3    s      -0.001070      0.000548      0.000124      0.000000
    117 O2    s      -0.000122     -0.000167      0.000038      0.000000
    118 O2    s       0.000286      0.000138     -0.000302      0.000000
    119 O2    s      -0.000779     -0.000539     -0.000386      0.000000
    120 O3    s       0.000221     -0.000194     -0.000321      0.000000
--------------------------------------------------------------------------------
  Maximum abs         0.015453      0.004249      0.006024      0.000000
--------------------------------------------------------------------------------


  Born effective charge tensors : 

-------------------------------------------------------------------------------
  Atom             x           y             z
-------------------------------------------------------------------------------
    1 Ge    x       4.3299     -0.1933      0.0461
            y       0.1080      3.8738     -0.0121
            z      -0.9117     -0.0411      4.3362
-------------------------------------------------------------------------------
    2 Ge    x       4.3243     -0.3825      0.4969
            y       0.1986      3.9290      0.0296
            z       0.4611     -0.0971      3.8517
-------------------------------------------------------------------------------
    3 Ge    x       4.1556     -0.3340      0.2437
            y      -0.3399      4.1582     -0.3371
            z       0.3354     -0.0609      3.3712
-------------------------------------------------------------------------------
    4 Si    x       3.4324     -0.1647      0.2948
            y       0.1295      3.2382      0.0138
            z       0.3359     -0.1323      3.8326
-------------------------------------------------------------------------------
    5 Si    x       3.7831      0.0490     -0.4504
            y      -0.0956      3.3580     -0.0128
            z      -0.2371     -0.0589      4.3833
-------------------------------------------------------------------------------
    6 Si    x       3.4392      0.0855      0.1022
            y      -0.0956      3.2462     -0.0193
            z       0.5864     -0.0038      3.7709
-------------------------------------------------------------------------------
    7 Si    x       3.4542      0.1243     -0.2998
            y      -0.1488      3.2687     -0.0146
            z      -0.4377     -0.0079      3.1405
-------------------------------------------------------------------------------
    8 Si    x       3.8683      0.1599      0.1636
            y      -0.0901      3.3420      0.0131
            z       0.7896      0.0111      3.4878
-------------------------------------------------------------------------------
    9 Si    x       3.4457     -0.1539     -0.1394
            y       0.1477      3.2354      0.0306
            z      -0.5709      0.0458      3.0660
-------------------------------------------------------------------------------
   10 Si    x       3.4434      0.4628     -0.2806
            y       0.3001      3.5577     -0.3564
            z      -0.2387     -0.1353      2.9297
-------------------------------------------------------------------------------
   11 Si    x       3.1682      0.3220      0.0667
            y       0.1687      3.4994      0.1265
            z       0.1450      0.0914      2.8026
-------------------------------------------------------------------------------
   12 Si    x       3.1846     -0.2553     -0.1015
            y      -0.2136      3.4572      0.1379
            z      -0.1484      0.0933      2.8266
-------------------------------------------------------------------------------
   13 Si    x       3.1951     -0.2841      0.1283
            y      -0.2194      3.4618     -0.1611
            z       0.1006     -0.0648      2.8090
-------------------------------------------------------------------------------
   14 Si    x       3.1894      0.2002     -0.0693
            y       0.2680      3.4120     -0.1512
            z      -0.1023     -0.0906      2.8172
-------------------------------------------------------------------------------
   15 Si    x       3.1764      0.2255      0.0719
            y       0.2830      3.4426      0.1591
            z       0.1098      0.0759      2.8141
-------------------------------------------------------------------------------
   16 Si    x       3.5228     -0.3860     -0.1713
            y      -0.4394      3.6142      0.2877
            z      -0.2242      0.0881      3.2261
-------------------------------------------------------------------------------
   17 Si    x       3.1767     -0.2271      0.0453
            y      -0.3137      3.4496     -0.1938
            z       0.0867     -0.0746      2.8150
-------------------------------------------------------------------------------
   18 Si    x       3.2372      0.2460     -0.1407
            y       0.2621      3.4088     -0.1750
            z      -0.1818     -0.0719      2.7358
-------------------------------------------------------------------------------
   19 Si    x       3.2357      0.2412      0.1139
            y       0.2399      3.3656      0.1343
            z       0.1183      0.0539      2.6934
-------------------------------------------------------------------------------
   20 Si    x       3.2135     -0.2921     -0.1587
            y      -0.2350      3.3639      0.1698
            z      -0.1450      0.0539      2.7285
-------------------------------------------------------------------------------
   21 Si    x       3.5668      0.3820     -0.0222
            y       0.1051      3.5064     -0.2031
            z      -0.0585     -0.0834      2.8154
-------------------------------------------------------------------------------
   22 Si    x       3.4334      0.4383      0.2789
            y      -0.0116      3.9124      0.3158
            z       0.2014      0.1875      2.9507
-------------------------------------------------------------------------------
   23 Si    x       3.2008     -0.3091     -0.1844
            y      -0.1250      3.4431      0.1787
            z      -0.1131      0.0821      2.7479
-------------------------------------------------------------------------------
   24 Si    x       3.2141     -0.2904      0.1417
            y      -0.1250      3.4045     -0.1562
            z       0.1157     -0.0630      2.7091
-------------------------------------------------------------------------------
   25 O3    x      -2.1506     -0.9353      0.4047
            y      -0.9713     -2.2213      0.4468
            z       0.5187      0.4261     -1.6253
-------------------------------------------------------------------------------
   26 O2    x      -1.7638     -0.7295     -0.3505
            y      -0.7774     -1.9837     -0.3714
            z      -0.3763     -0.3469     -1.3331
-------------------------------------------------------------------------------
   27 O2    x      -1.7122      0.7070      0.3984
            y       0.7349     -1.9922     -0.3981
            z       0.3985     -0.3829     -1.3763
-------------------------------------------------------------------------------
   28 O2    x      -1.7404      0.7189     -0.2938
            y       0.7589     -1.9460      0.3214
            z      -0.3548      0.3040     -1.3506
-------------------------------------------------------------------------------
   29 O2    x      -1.6409     -0.6614      0.3736
            y      -0.6383     -2.0049      0.3944
            z       0.3648      0.3909     -1.3990
-------------------------------------------------------------------------------
   30 O2    x      -1.6533     -0.7079     -0.2847
            y      -0.6927     -2.0037     -0.3003
            z      -0.3616     -0.3020     -1.3393
-------------------------------------------------------------------------------
   31 O3    x      -2.0635      0.9592      0.4337
            y       0.8985     -2.3531     -0.4229
            z       0.5580     -0.4262     -1.5674
-------------------------------------------------------------------------------
   32 O2    x      -1.6327      0.6978     -0.3308
            y       0.6535     -2.0211      0.3268
            z      -0.3496      0.3354     -1.3665
-------------------------------------------------------------------------------
   33 O3    x      -2.0008      0.0325      1.0374
            y       0.0235     -1.2097     -0.0064
            z       1.3089     -0.0114     -3.3137
-------------------------------------------------------------------------------
   34 O2    x      -1.6111      0.0437     -0.8063
            y       0.0087     -1.0928      0.0364
            z      -1.0296      0.0966     -2.7587
-------------------------------------------------------------------------------
   35 O3    x      -2.2167      0.0022     -1.0543
            y      -0.0254     -1.2712      0.0261
            z      -1.0034      0.0643     -2.6081
-------------------------------------------------------------------------------
   36 O2    x      -1.7128      0.0202      0.6980
            y       0.0169     -1.1074     -0.0029
            z       0.7036      0.0009     -2.2224
-------------------------------------------------------------------------------
   37 O3    x      -2.2011      0.0586     -0.8419
            y      -0.0170     -1.2398      0.0540
            z      -0.8132      0.1202     -2.5456
-------------------------------------------------------------------------------
   38 O2    x      -1.7173      0.0127      0.7393
            y      -0.0056     -1.1213      0.0033
            z       0.7398     -0.0009     -2.2251
-------------------------------------------------------------------------------
   39 O2    x      -1.6500     -0.6848      0.3735
            y      -0.6107     -2.0236      0.3972
            z       0.3814      0.3746     -1.2578
-------------------------------------------------------------------------------
   40 O2    x      -1.6525     -0.6614     -0.2779
            y      -0.5858     -2.0123     -0.2861
            z      -0.3373     -0.2753     -1.2316
-------------------------------------------------------------------------------
   41 O2    x      -1.6195      0.6940      0.3165
            y       0.5836     -2.0171     -0.3488
            z       0.3478     -0.3337     -1.2388
-------------------------------------------------------------------------------
   42 O1    x      -2.1407      0.9139     -0.5945
            y       0.7542     -2.6207      0.5661
            z      -0.5479      0.4965     -1.5889
-------------------------------------------------------------------------------
   43 O2    x      -1.7283     -0.6979      0.2654
            y      -0.6758     -1.9333      0.3182
            z       0.3124      0.3029     -1.2432
-------------------------------------------------------------------------------
   44 O3    x      -2.1068     -0.8544     -0.6144
            y      -0.8022     -2.2291     -0.6731
            z      -0.5023     -0.5611     -1.5839
-------------------------------------------------------------------------------
   45 O2    x      -1.7293      0.7076      0.3731
            y       0.6811     -1.9260     -0.3846
            z       0.3427     -0.3494     -1.2720
-------------------------------------------------------------------------------
   46 O2    x      -1.7292      0.6869     -0.2529
            y       0.6680     -1.9165      0.2832
            z      -0.3112      0.2645     -1.2385
-------------------------------------------------------------------------------
   47 O2    x      -1.7944     -0.0178     -0.5876
            y      -0.0145     -1.1827     -0.0046
            z      -0.3316     -0.0085     -1.6979
-------------------------------------------------------------------------------
   48 O3    x      -2.0872      0.0869      0.7566
            y       0.0431     -1.3335     -0.0398
            z       0.4538     -0.0369     -2.1305
-------------------------------------------------------------------------------
   49 O2    x      -1.2287      0.0793      0.0544
            y       0.1379     -2.4850      0.0040
            z       0.0742      0.0081     -1.0617
-------------------------------------------------------------------------------
   50 O2    x      -1.1663      0.0705     -0.0519
            y       0.1556     -2.5535      0.0544
            z      -0.0764      0.0123     -1.0689
-------------------------------------------------------------------------------
   51 O2    x      -1.1600     -0.0394      0.0610
            y      -0.0685     -2.5593      0.0151
            z       0.0774     -0.0003     -1.0778
-------------------------------------------------------------------------------
   52 O2    x      -1.1471     -0.0292     -0.0616
            y      -0.0601     -2.5639      0.0030
            z      -0.0733      0.0097     -1.0694
-------------------------------------------------------------------------------
   53 O2    x      -2.3751     -0.1184      0.0085
            y      -0.0570     -1.2432      0.0758
            z       0.0103      0.0402     -1.0834
-------------------------------------------------------------------------------
   54 O2    x      -2.3647     -0.1308      0.0495
            y      -0.0740     -1.2776     -0.0700
            z       0.0665     -0.0413     -1.0933
-------------------------------------------------------------------------------
   55 O2    x      -2.3661      0.0626     -0.0010
            y       0.0236     -1.2489     -0.0666
            z      -0.0041     -0.0518     -1.0772
-------------------------------------------------------------------------------
   56 O2    x      -2.3898      0.0687      0.0036
            y       0.0359     -1.2493      0.0662
            z       0.0170      0.0480     -1.0632
-------------------------------------------------------------------------------
   57 O2    x      -1.2421     -0.1571     -0.0166
            y      -0.0887     -1.3271     -0.0477
            z      -0.0137     -0.0677     -1.9932
-------------------------------------------------------------------------------
   58 O2    x      -1.1647     -0.1130      0.0486
            y      -0.0574     -1.3034     -0.0300
            z       0.0208     -0.0221     -2.0923
-------------------------------------------------------------------------------
   59 O2    x      -1.1672      0.1142     -0.0216
            y       0.0834     -1.2747     -0.0185
            z      -0.0134     -0.0014     -2.0785
-------------------------------------------------------------------------------
   60 O2    x      -1.1742      0.1306      0.0151
            y       0.1007     -1.2841      0.0094
            z       0.0049     -0.0082     -2.0659
-------------------------------------------------------------------------------
   61 O2    x      -1.2138     -0.1254     -0.0282
            y      -0.1256     -1.2616     -0.0011
            z      -0.0457     -0.0014     -2.0615
-------------------------------------------------------------------------------
   62 O2    x      -1.1809     -0.1187      0.0318
            y      -0.1193     -1.2719     -0.0100
            z       0.0374     -0.0202     -2.0755
-------------------------------------------------------------------------------
   63 O3    x      -1.3740      0.1584     -0.1278
            y       0.1406     -1.4769      0.0325
            z      -0.1267     -0.0147     -2.5331
-------------------------------------------------------------------------------
   64 O2    x      -1.1977      0.1348      0.0194
            y       0.1263     -1.2688     -0.0192
            z       0.0281     -0.0133     -2.0658
-------------------------------------------------------------------------------
   65 O2    x      -1.2106     -0.0382      0.0874
            y      -0.0916     -2.5106      0.0083
            z       0.1009      0.0133     -1.0247
-------------------------------------------------------------------------------
   66 O2    x      -1.2244     -0.0483     -0.0853
            y      -0.1029     -2.4726      0.0227
            z      -0.0973      0.0091     -1.0239
-------------------------------------------------------------------------------
   67 O2    x      -1.2341      0.0575      0.0812
            y       0.1383     -2.4576      0.0661
            z       0.0976      0.0433     -1.0343
-------------------------------------------------------------------------------
   68 O3    x      -1.5183      0.2380     -0.1190
            y       0.2975     -2.9835      0.1157
            z      -0.1472      0.1111     -1.1438
-------------------------------------------------------------------------------
   69 O2    x      -2.3874      0.0632      0.0003
            y       0.0307     -1.2334      0.0657
            z       0.0151      0.0389     -1.0478
-------------------------------------------------------------------------------
   70 O2    x      -2.4131      0.0756      0.0087
            y       0.0512     -1.2389     -0.0585
            z       0.0080     -0.0369     -1.0309
-------------------------------------------------------------------------------
   71 O2    x      -2.3997     -0.1947      0.0545
            y      -0.1237     -1.2593     -0.0417
            z       0.0076     -0.0216     -1.0560
-------------------------------------------------------------------------------
   72 O3    x      -3.0355     -0.1956     -0.0677
            y      -0.1191     -1.3803      0.0853
            z      -0.0960      0.0278     -1.2248
-------------------------------------------------------------------------------




  Elastic Constant Matrix: (Units=GPa)

-------------------------------------------------------------------------------
  Indices      1         2         3         4         5         6    
-------------------------------------------------------------------------------
       1     52.9751   27.5325   23.4527   -1.6570   -4.4041   -4.2743
       2     27.5325   74.9843   23.2567   -1.4766   -4.1484   -4.4371
       3     23.4527   23.2567   23.6294   -0.4084   -1.0008   -3.4535
       4     -1.6570   -1.4766   -0.4084   11.6768   -1.3365    0.7273
       5     -4.4041   -4.1484   -1.0008   -1.3365   23.9549   -3.0453
       6     -4.2743   -4.4371   -3.4535    0.7273   -3.0453   27.8179
-------------------------------------------------------------------------------


  Elastic Compliance Matrix: (Units=1/GPa)

-------------------------------------------------------------------------------
  Indices      1         2         3         4         5         6    
-------------------------------------------------------------------------------
       1    0.034847 -0.002557 -0.031571  0.004004  0.005056  0.001476
       2   -0.002557  0.019618 -0.016503  0.001765  0.002452  0.000910
       3   -0.031571 -0.016503  0.090108 -0.004160 -0.004711  0.003297
       4    0.004004  0.001765 -0.004160  0.087002  0.005558 -0.001286
       5    0.005056  0.002452 -0.004711  0.005558  0.043879  0.005241
       6    0.001476  0.000910  0.003297 -0.001286  0.005241  0.037337
-------------------------------------------------------------------------------

  Mechanical properties :

-------------------------------------------------------------------------------
  Convention :                    Reuss         Voigt         Hill
-------------------------------------------------------------------------------
  Bulk  Modulus (GPa)     =      23.08879      33.34140      28.21510
  Shear Modulus (GPa)     =      11.66889      17.84636      14.75763
-------------------------------------------------------------------------------
  Velocity S-wave (km/s)  =       2.43585       3.01239       2.73933
  Velocity P-wave (km/s)  =       4.43298       5.39005       4.93477
-------------------------------------------------------------------------------
  Compressibility (1/GPa) =    0.04331106
-------------------------------------------------------------------------------
  Stress axis :                     x             y             z
-------------------------------------------------------------------------------
  Youngs Moduli (GPa)     =      28.69655      50.97413      11.09782
-------------------------------------------------------------------------------
  Poissons Ratio (x)      =                     0.13036       0.35037
  Poissons Ratio (y)      =       0.07339                     0.18314
  Poissons Ratio (z)      =       0.90597       0.84121
-------------------------------------------------------------------------------


  Piezoelectric Strain Matrix: (Units=C/m**2)

-------------------------------------------------------------------------------
  Indices      1         2         3         4         5         6    
-------------------------------------------------------------------------------
       x     0.25204   0.82723  -0.29509   0.07157   0.12649   0.03625
       y     0.81620  -0.13717  -0.32216   0.29272   0.28850   0.36604
       z     0.68503   0.37554   0.63104   0.04644  -0.50414   0.10163
-------------------------------------------------------------------------------


  Piezoelectric Stress Matrix: (Units=10**-11 C/N)

-------------------------------------------------------------------------------
  Indices      1         2         3         4         5         6    
-------------------------------------------------------------------------------
       x     1.69631   2.09230  -4.89726   1.05797   1.08306   0.20760
       y     4.21353   0.20950  -5.39039   3.09669   2.15124   1.48202
       z     0.07757  -0.58602   3.15540   0.18883  -1.99189   0.45251
-------------------------------------------------------------------------------


  Static dielectric constant tensor : 

-------------------------------------------------------------------------------
              x         y         z
-------------------------------------------------------------------------------
       x     3.88588  -0.03078  -0.00838
       y    -0.03078   4.13587   0.01635
       z    -0.00838   0.01635   3.39718
--------------------------------------------------------------------------------

  High frequency dielectric constant tensor : 

-------------------------------------------------------------------------------
              x         y         z
-------------------------------------------------------------------------------
       x     1.68127  -0.00047  -0.00131
       y    -0.00047   1.69045  -0.00062
       z    -0.00131  -0.00062   1.62093
-------------------------------------------------------------------------------

  Static refractive indices : 

-------------------------------------------------------------------------------
    1 =    1.84301      2 =    1.97034      3 =    2.03470
-------------------------------------------------------------------------------

  High frequency refractive indices : 

-------------------------------------------------------------------------------
    1 =    1.27314      2 =    1.29664      3 =    1.30018
-------------------------------------------------------------------------------


  Time to end of optimisation =      10.9683 seconds


  Peak dynamic memory used =       5.01 MB 


  Timing analysis for GULP :

--------------------------------------------------------------------------------
  Task / Subroutine                                          Time (Seconds)
--------------------------------------------------------------------------------
  Calculation of reciprocal space energy and derivatives          0.6079
  Calculation of real space energy and derivatives                6.6850
  Calculation of three-body energy and derivatives                0.6724
  Calculation and manipulation of Hessian matrix                  3.2760
  Calculation of matrix inversion                                 0.0274
  Global summation overhead                                       0.0002
--------------------------------------------------------------------------------
  Total CPU time                                                 10.9684
--------------------------------------------------------------------------------


  Dump file written as c00057.vasp.grs
  CIF file written as c00057.vasp.cif


  Job Finished at 11:36.44  7th October    2025                               

