********************************************************************************
*                       GENERAL UTILITY LATTICE PROGRAM                        *
*                                 Julian Gale                                  *
*                       Curtin Institute for Computation                       *
*                    School of Molecular and Life Sciences                     *
*                    Curtin University, Western Australia                      *
********************************************************************************
* Version = 6.1.2 * Last modified =   3rd November 2022                        *
********************************************************************************
*  optimise     - perform optimisation run                                     *
*  conp         - constant pressure calculation                                *
*  property     - calculate properties for final geometry                      *
********************************************************************************

  Job Started  at 11:39.28  7th October    2025                               

  Number of CPUs =     1


  Total number of configurations input =      1

********************************************************************************
*  Input for Configuration =   1 : c00074.vasp                                 *
********************************************************************************

  Formula = Ge3Si21O48                                                  

  Number of irreducible atoms/shells =     120


  Total number atoms/shells =     120

  Dimensionality = 3               :  Bulk   



  Cartesian lattice vectors (Angstroms) :

       17.182800    0.000000    0.000000
        0.000000    7.513760    0.000000
        0.000000    0.000000   10.447700

  Cell parameters (Angstroms/Degrees):

  a =      17.1828    alpha =  90.0000
  b =       7.5138    beta  =  90.0000
  c =      10.4477    gamma =  90.0000

  Initial cell volume =        1348.875752 Angs**3

  Temperature of configuration =   0.00     K 

  Pressure of configuration =         0.000 GPa 

  Fractional coordinates of asymmetric unit :

--------------------------------------------------------------------------------
   No.  Atomic       x           y          z         Charge      Occupancy
        Label      (Frac)      (Frac)     (Frac)        (e)         (Frac)  
--------------------------------------------------------------------------------
      1 Ge    c    0.052090    0.000000    0.372270     4.00000    1.000000    
      2 Ge    c    0.339810 *  0.706090 *  0.273440 *   4.00000    1.000000    
      3 Ge    c    0.660190 *  0.706090 *  0.726560 *   4.00000    1.000000    
      4 Si    c    0.447910 *  0.000000 *  0.372270 *   4.00000    1.000000    
      5 Si    c    0.947910 *  0.000000 *  0.627730 *   4.00000    1.000000    
      6 Si    c    0.552090 *  0.000000 *  0.627730 *   4.00000    1.000000    
      7 Si    c    0.556730 *  0.000000 *  0.122130 *   4.00000    1.000000    
      8 Si    c    0.943270 *  0.000000 *  0.122130 *   4.00000    1.000000    
      9 Si    c    0.443270 *  0.000000 *  0.877870 *   4.00000    1.000000    
     10 Si    c    0.056730 *  0.000000 *  0.877870 *   4.00000    1.000000    
     11 Si    c    0.160190 *  0.293910 *  0.273440 *   4.00000    1.000000    
     12 Si    c    0.839810 *  0.293910 *  0.726560 *   4.00000    1.000000    
     13 Si    c    0.839810 *  0.706090 *  0.726560 *   4.00000    1.000000    
     14 Si    c    0.660190 *  0.293910 *  0.726560 *   4.00000    1.000000    
     15 Si    c    0.160190 *  0.706090 *  0.273440 *   4.00000    1.000000    
     16 Si    c    0.339810 *  0.293910 *  0.273440 *   4.00000    1.000000    
     17 Si    c    0.660660 *  0.294090 *  0.017440 *   4.00000    1.000000    
     18 Si    c    0.839340 *  0.705910 *  0.017440 *   4.00000    1.000000    
     19 Si    c    0.339340 *  0.294090 *  0.982560 *   4.00000    1.000000    
     20 Si    c    0.160660 *  0.705910 *  0.982560 *   4.00000    1.000000    
     21 Si    c    0.339340 *  0.705910 *  0.982560 *   4.00000    1.000000    
     22 Si    c    0.160660 *  0.294090 *  0.982560 *   4.00000    1.000000    
     23 Si    c    0.660660 *  0.705910 *  0.017440 *   4.00000    1.000000    
     24 Si    c    0.839340 *  0.294090 *  0.017440 *   4.00000    1.000000    
     25 O3    c    0.106570 *  0.174340 *  0.366200 *   1.33043    1.000000    
     26 O3    c    0.393430 *  0.825660 *  0.366200 *   1.33043    1.000000    
     27 O2    c    0.893430 *  0.174340 *  0.633800 *   0.87073    1.000000    
     28 O3    c    0.606570 *  0.825660 *  0.633800 *   1.33043    1.000000    
     29 O2    c    0.893430 *  0.825660 *  0.633800 *   0.87073    1.000000    
     30 O2    c    0.606570 *  0.174340 *  0.633800 *   0.87073    1.000000    
     31 O3    c    0.106570 *  0.825660 *  0.366200 *   1.33043    1.000000    
     32 O2    c    0.393430 *  0.174340 *  0.366200 *   0.87073    1.000000    
     33 O3    c    0.000000 *  0.000000 *  0.500000 *   1.33043    1.000000    
     34 O2    c    0.500000 *  0.000000 *  0.500000 *   0.87073    1.000000    
     35 O3    c    0.994520 *  0.000000 *  0.250840 *   1.33043    1.000000    
     36 O2    c    0.505480 *  0.000000 *  0.250840 *   0.87073    1.000000    
     37 O2    c    0.005480 *  0.000000 *  0.749160 *   0.87073    1.000000    
     38 O2    c    0.494520 *  0.000000 *  0.749160 *   0.87073    1.000000    
     39 O2    c    0.610230 *  0.175520 *  0.115390 *   0.87073    1.000000    
     40 O2    c    0.889770 *  0.824480 *  0.115390 *   0.87073    1.000000    
     41 O2    c    0.389770 *  0.175520 *  0.884610 *   0.87073    1.000000    
     42 O2    c    0.110230 *  0.824480 *  0.884610 *   0.87073    1.000000    
     43 O2    c    0.389770 *  0.824480 *  0.884610 *   0.87073    1.000000    
     44 O2    c    0.110230 *  0.175520 *  0.884610 *   0.87073    1.000000    
     45 O2    c    0.610230 *  0.824480 *  0.115390 *   0.87073    1.000000    
     46 O2    c    0.889770 *  0.175520 *  0.115390 *   0.87073    1.000000    
     47 O2    c    0.500000 *  0.000000 *  0.000000 *   0.87073    1.000000    
     48 O2    c    0.000000 *  0.000000 *  0.000000 *   0.87073    1.000000    
     49 O2    c    0.151750 *  0.500000 *  0.313330 *   0.87073    1.000000    
     50 O3    c    0.348250 *  0.500000 *  0.313330 *   1.33043    1.000000    
     51 O2    c    0.848250 *  0.500000 *  0.686670 *   0.87073    1.000000    
     52 O3    c    0.651750 *  0.500000 *  0.686670 *   1.33043    1.000000    
     53 O2    c    0.250000 *  0.234950 *  0.285720 *   0.87073    1.000000    
     54 O3    c    0.250000 *  0.765050 *  0.285720 *   1.33043    1.000000    
     55 O2    c    0.750000 *  0.234950 *  0.714280 *   0.87073    1.000000    
     56 O3    c    0.750000 *  0.765050 *  0.714280 *   1.33043    1.000000    
     57 O2    c    0.131410 *  0.268650 *  0.127790 *   0.87073    1.000000    
     58 O3    c    0.368590 *  0.731350 *  0.127790 *   1.33043    1.000000    
     59 O2    c    0.868590 *  0.268650 *  0.872210 *   0.87073    1.000000    
     60 O3    c    0.631410 *  0.731350 *  0.872210 *   1.33043    1.000000    
     61 O2    c    0.868590 *  0.731350 *  0.872210 *   0.87073    1.000000    
     62 O2    c    0.631410 *  0.268650 *  0.872210 *   0.87073    1.000000    
     63 O2    c    0.131410 *  0.731350 *  0.127790 *   0.87073    1.000000    
     64 O2    c    0.368590 *  0.268650 *  0.127790 *   0.87073    1.000000    
     65 O2    c    0.653920 *  0.500000 *  0.058200 *   0.87073    1.000000    
     66 O2    c    0.846080 *  0.500000 *  0.058200 *   0.87073    1.000000    
     67 O2    c    0.346080 *  0.500000 *  0.941800 *   0.87073    1.000000    
     68 O2    c    0.153920 *  0.500000 *  0.941800 *   0.87073    1.000000    
     69 O2    c    0.750000 *  0.231060 *  0.027050 *   0.87073    1.000000    
     70 O2    c    0.750000 *  0.768940 *  0.027050 *   0.87073    1.000000    
     71 O2    c    0.250000 *  0.231060 *  0.972950 *   0.87073    1.000000    
     72 O2    c    0.250000 *  0.768940 *  0.972950 *   0.87073    1.000000    
     73 O3    s    0.106570 *  0.174340 *  0.366200 *  -3.33043    1.000000    
     74 O3    s    0.393430 *  0.825660 *  0.366200 *  -3.33043    1.000000    
     75 O2    s    0.893430 *  0.174340 *  0.633800 *  -2.87073    1.000000    
     76 O3    s    0.606570 *  0.825660 *  0.633800 *  -3.33043    1.000000    
     77 O2    s    0.893430 *  0.825660 *  0.633800 *  -2.87073    1.000000    
     78 O2    s    0.606570 *  0.174340 *  0.633800 *  -2.87073    1.000000    
     79 O3    s    0.106570 *  0.825660 *  0.366200 *  -3.33043    1.000000    
     80 O2    s    0.393430 *  0.174340 *  0.366200 *  -2.87073    1.000000    
     81 O3    s    0.000000 *  0.000000 *  0.500000 *  -3.33043    1.000000    
     82 O2    s    0.500000 *  0.000000 *  0.500000 *  -2.87073    1.000000    
     83 O3    s    0.994520 *  0.000000 *  0.250840 *  -3.33043    1.000000    
     84 O2    s    0.505480 *  0.000000 *  0.250840 *  -2.87073    1.000000    
     85 O2    s    0.005480 *  0.000000 *  0.749160 *  -2.87073    1.000000    
     86 O2    s    0.494520 *  0.000000 *  0.749160 *  -2.87073    1.000000    
     87 O2    s    0.610230 *  0.175520 *  0.115390 *  -2.87073    1.000000    
     88 O2    s    0.889770 *  0.824480 *  0.115390 *  -2.87073    1.000000    
     89 O2    s    0.389770 *  0.175520 *  0.884610 *  -2.87073    1.000000    
     90 O2    s    0.110230 *  0.824480 *  0.884610 *  -2.87073    1.000000    
     91 O2    s    0.389770 *  0.824480 *  0.884610 *  -2.87073    1.000000    
     92 O2    s    0.110230 *  0.175520 *  0.884610 *  -2.87073    1.000000    
     93 O2    s    0.610230 *  0.824480 *  0.115390 *  -2.87073    1.000000    
     94 O2    s    0.889770 *  0.175520 *  0.115390 *  -2.87073    1.000000    
     95 O2    s    0.500000 *  0.000000 *  0.000000 *  -2.87073    1.000000    
     96 O2    s    0.000000 *  0.000000 *  0.000000 *  -2.87073    1.000000    
     97 O2    s    0.151750 *  0.500000 *  0.313330 *  -2.87073    1.000000    
     98 O3    s    0.348250 *  0.500000 *  0.313330 *  -3.33043    1.000000    
     99 O2    s    0.848250 *  0.500000 *  0.686670 *  -2.87073    1.000000    
    100 O3    s    0.651750 *  0.500000 *  0.686670 *  -3.33043    1.000000    
    101 O2    s    0.250000 *  0.234950 *  0.285720 *  -2.87073    1.000000    
    102 O3    s    0.250000 *  0.765050 *  0.285720 *  -3.33043    1.000000    
    103 O2    s    0.750000 *  0.234950 *  0.714280 *  -2.87073    1.000000    
    104 O3    s    0.750000 *  0.765050 *  0.714280 *  -3.33043    1.000000    
    105 O2    s    0.131410 *  0.268650 *  0.127790 *  -2.87073    1.000000    
    106 O3    s    0.368590 *  0.731350 *  0.127790 *  -3.33043    1.000000    
    107 O2    s    0.868590 *  0.268650 *  0.872210 *  -2.87073    1.000000    
    108 O3    s    0.631410 *  0.731350 *  0.872210 *  -3.33043    1.000000    
    109 O2    s    0.868590 *  0.731350 *  0.872210 *  -2.87073    1.000000    
    110 O2    s    0.631410 *  0.268650 *  0.872210 *  -2.87073    1.000000    
    111 O2    s    0.131410 *  0.731350 *  0.127790 *  -2.87073    1.000000    
    112 O2    s    0.368590 *  0.268650 *  0.127790 *  -2.87073    1.000000    
    113 O2    s    0.653920 *  0.500000 *  0.058200 *  -2.87073    1.000000    
    114 O2    s    0.846080 *  0.500000 *  0.058200 *  -2.87073    1.000000    
    115 O2    s    0.346080 *  0.500000 *  0.941800 *  -2.87073    1.000000    
    116 O2    s    0.153920 *  0.500000 *  0.941800 *  -2.87073    1.000000    
    117 O2    s    0.750000 *  0.231060 *  0.027050 *  -2.87073    1.000000    
    118 O2    s    0.750000 *  0.768940 *  0.027050 *  -2.87073    1.000000    
    119 O2    s    0.250000 *  0.231060 *  0.972950 *  -2.87073    1.000000    
    120 O2    s    0.250000 *  0.768940 *  0.972950 *  -2.87073    1.000000    
--------------------------------------------------------------------------------



********************************************************************************
*  General input information                                                   *
********************************************************************************

  Species output for all configurations : 

--------------------------------------------------------------------------------
  Species    Type    Atomic    Atomic    Charge       Radii (Angs)     Library
                     Number     Mass       (e)     Cova   Ionic  VDW   Symbol
--------------------------------------------------------------------------------
    Ge       Core       32      72.61   4.000000   1.170  0.000  1.750 Ge       
    Si       Core       14      28.09   4.000000   1.200  0.000  2.100 Si       
    O1       Core        8      16.00   1.733957   0.730  0.000  0.000 O1       
    O2       Core        8      16.00   0.870733   0.730  0.000  1.360 O2       
    O3       Core        8      16.00   1.330431   0.730  0.000  1.360 O3       
    O1       Shell       8       0.00  -3.733957   0.730  0.000  0.000 O1       
    O2       Shell       8       0.00  -2.870733   0.730  0.000  0.000 O2       
    O3       Shell       8       0.00  -3.330431   0.730  0.000  0.000 O3       
--------------------------------------------------------------------------------


  Lattice summation method               =    Ewald          (3-D)
                                         =    Parry          (2-D)
                                         =    Saunders et al (1-D)
  Accuracy factor for lattice sums       =   12.000


  Analytic derivatives to be used

  Time limit = Infinity

  Maximum range for interatomic potentials =    100000.000000 Angstroms

  General interatomic potentials :

--------------------------------------------------------------------------------
Atom  Types   Potential      Parameter       Value         Units   Cutoffs(Ang)
  1     2                                                            Min /  Max 
--------------------------------------------------------------------------------
Si   c O1   s Buckingham    Buckingham A     1315.2478    eV        0.000 16.000
                            Buckingham rho  0.31775900    Ang       
                            Buckingham C     10.141118    eV*Ang^6  
--------------------------------------------------------------------------------
Si   c O2   s Buckingham    Buckingham A     1315.2478    eV        0.000 16.000
                            Buckingham rho  0.31775900    Ang       
                            Buckingham C     10.141118    eV*Ang^6  
--------------------------------------------------------------------------------
Si   c O3   s Buckingham    Buckingham A     1315.2478    eV        0.000 16.000
                            Buckingham rho  0.31775900    Ang       
                            Buckingham C     10.141118    eV*Ang^6  
--------------------------------------------------------------------------------
Ge   c O1   s Buckingham    Buckingham A     1497.3996    eV        0.000 16.000
                            Buckingham rho  0.32564600    Ang       
                            Buckingham C     16.808599    eV*Ang^6  
--------------------------------------------------------------------------------
Ge   c O2   s Buckingham    Buckingham A     1497.3996    eV        0.000 16.000
                            Buckingham rho  0.32564600    Ang       
                            Buckingham C     16.808599    eV*Ang^6  
--------------------------------------------------------------------------------
Ge   c O3   s Buckingham    Buckingham A     1497.3996    eV        0.000 16.000
                            Buckingham rho  0.32564600    Ang       
                            Buckingham C     16.808599    eV*Ang^6  
--------------------------------------------------------------------------------
O1   s O1   s Buckingham    Buckingham A     22764.000    eV        0.000 16.000
                            Buckingham rho  0.14900000    Ang       
                            Buckingham C     10.937044    eV*Ang^6  
--------------------------------------------------------------------------------
O1   s O2   s Buckingham    Buckingham A     22764.000    eV        0.000 16.000
                            Buckingham rho  0.14900000    Ang       
                            Buckingham C     10.937044    eV*Ang^6  
--------------------------------------------------------------------------------
O1   s O3   s Buckingham    Buckingham A     22764.000    eV        0.000 16.000
                            Buckingham rho  0.14900000    Ang       
                            Buckingham C     10.937044    eV*Ang^6  
--------------------------------------------------------------------------------
O2   s O2   s Buckingham    Buckingham A     22764.000    eV        0.000 16.000
                            Buckingham rho  0.14900000    Ang       
                            Buckingham C     10.937044    eV*Ang^6  
--------------------------------------------------------------------------------
O2   s O3   s Buckingham    Buckingham A     22764.000    eV        0.000 16.000
                            Buckingham rho  0.14900000    Ang       
                            Buckingham C     10.937044    eV*Ang^6  
--------------------------------------------------------------------------------
O3   s O3   s Buckingham    Buckingham A     22764.000    eV        0.000 16.000
                            Buckingham rho  0.14900000    Ang       
                            Buckingham C     10.937044    eV*Ang^6  
--------------------------------------------------------------------------------
O1   c O1   s Spring (c-s)  Spring k 2       180.31577    eV*Ang^-2 0.000  0.800
                            Spring k 4       0.0000000    eV*Ang^-4 
--------------------------------------------------------------------------------
O2   c O2   s Spring (c-s)  Spring k 2       75.969800    eV*Ang^-2 0.000  0.800
                            Spring k 4       0.0000000    eV*Ang^-4 
--------------------------------------------------------------------------------
O3   c O3   s Spring (c-s)  Spring k 2       128.14270    eV*Ang^-2 0.000  0.800
                            Spring k 4       0.0000000    eV*Ang^-4 
--------------------------------------------------------------------------------

  General Three-body potentials :

--------------------------------------------------------------------------------
  Atoms       Potential      Parameter       Value         Units   Cutoffs(Ang)
  1 / 2 / 3                                                          Min /  Max 
--------------------------------------------------------------------------------
Si    core    Harmonic      Three-body cnst  1.2614000    eV*rad^-2 0.000  1.900
O1    shel                  Three-body angl  109.47000    degrees   0.000  1.900
O1    shel                  Three-body k4    0.0000000    eV*rad^-4 0.000  3.500
                            Three-body k3    0.0000000    eV*rad^-3 
--------------------------------------------------------------------------------
Si    core    Harmonic      Three-body cnst  1.2614000    eV*rad^-2 0.000  1.900
O1    shel                  Three-body angl  109.47000    degrees   0.000  1.900
õ(1   shel                  Three-body k4    0.0000000    eV*rad^-4 0.000  3.500
                            Three-body k3    0.0000000    eV*rad^-3 
--------------------------------------------------------------------------------
Si    core    Harmonic      Three-body cnst  1.2614000    eV*rad^-2 0.000  1.900
õ(1   shel                  Three-body angl  109.47000    degrees   0.000  1.900
õ(1   shel                  Three-body k4    0.0000000    eV*rad^-4 0.000  3.500
                            Three-body k3    0.0000000    eV*rad^-3 
--------------------------------------------------------------------------------
Si    core    Harmonic      Three-body cnst  1.2614000    eV*rad^-2 0.000  1.900
O1    shel                  Three-body angl  109.47000    degrees   0.000  1.900
O2    shel                  Three-body k4    0.0000000    eV*rad^-4 0.000  3.500
                            Three-body k3    0.0000000    eV*rad^-3 
--------------------------------------------------------------------------------
Si    core    Harmonic      Three-body cnst  1.2614000    eV*rad^-2 0.000  1.900
O1    shel                  Three-body angl  109.47000    degrees   0.000  1.900
õ(2   shel                  Three-body k4    0.0000000    eV*rad^-4 0.000  3.500
                            Three-body k3    0.0000000    eV*rad^-3 
--------------------------------------------------------------------------------
Si    core    Harmonic      Three-body cnst  1.2614000    eV*rad^-2 0.000  1.900
O2    shel                  Three-body angl  109.47000    degrees   0.000  1.900
õ(1   shel                  Three-body k4    0.0000000    eV*rad^-4 0.000  3.500
                            Three-body k3    0.0000000    eV*rad^-3 
--------------------------------------------------------------------------------
Si    core    Harmonic      Three-body cnst  1.2614000    eV*rad^-2 0.000  1.900
õ(1   shel                  Three-body angl  109.47000    degrees   0.000  1.900
õ(2   shel                  Three-body k4    0.0000000    eV*rad^-4 0.000  3.500
                            Three-body k3    0.0000000    eV*rad^-3 
--------------------------------------------------------------------------------
Si    core    Harmonic      Three-body cnst  1.2614000    eV*rad^-2 0.000  1.900
O2    shel                  Three-body angl  109.47000    degrees   0.000  1.900
O2    shel                  Three-body k4    0.0000000    eV*rad^-4 0.000  3.500
                            Three-body k3    0.0000000    eV*rad^-3 
--------------------------------------------------------------------------------
Si    core    Harmonic      Three-body cnst  1.2614000    eV*rad^-2 0.000  1.900
O2    shel                  Three-body angl  109.47000    degrees   0.000  1.900
õ(2   shel                  Three-body k4    0.0000000    eV*rad^-4 0.000  3.500
                            Three-body k3    0.0000000    eV*rad^-3 
--------------------------------------------------------------------------------
Si    core    Harmonic      Three-body cnst  1.2614000    eV*rad^-2 0.000  1.900
õ(2   shel                  Three-body angl  109.47000    degrees   0.000  1.900
õ(2   shel                  Three-body k4    0.0000000    eV*rad^-4 0.000  3.500
                            Three-body k3    0.0000000    eV*rad^-3 
--------------------------------------------------------------------------------

********************************************************************************
*  Output for configuration   1 : c00074.vasp                                  *
********************************************************************************


  Components of energy : 

--------------------------------------------------------------------------------
  Interatomic potentials     =         760.28190526 eV    
  Three-body potentials      =           0.01469957 eV    
  Monopole - monopole (real) =       -2676.00317479 eV    
  Monopole - monopole (recip)=       -1115.35404472 eV    
  Monopole - monopole (total)=       -3791.35721950 eV    
--------------------------------------------------------------------------------
  Total lattice energy       =       -3031.06061467 eV    
--------------------------------------------------------------------------------
  Total lattice energy       =         -292451.0153 kJ/(mole unit cells)
--------------------------------------------------------------------------------


  Number of variables =      363

  Maximum number of calculations  =          1000
  Maximum Hessian update interval =            10
  Maximum step size               =   0.100000000
  Maximum parameter tolerance     =   0.000010000
  Maximum function  tolerance     =   0.000010000
  Maximum gradient  tolerance     =   0.001000000
  Maximum gradient  component     =   0.010000000

  Symmetry not applied to optimisation

  Cell parameters to be optimised using strains

  Newton-Raphson optimiser to be used

  BFGS hessian update to be used

  Lower half triangular hessian to be used

  Minimiser to switch to RFO
  When gradient norm is less than     0.050000

  Dumpfile to be written after every cycle

  Start of bulk optimisation :

  Cycle:      0 Energy:     -3031.060615  Gnorm:      4.405031  CPU:    0.097
  ** Hessian calculated **
  Cycle:      1 Energy:     -3061.990213  Gnorm:      0.983350  CPU:    0.213
  ** Hessian calculated **
  Cycle:      2 Energy:     -3064.707295  Gnorm:      0.700779  CPU:    0.410
  ** Hessian calculated **
  Cycle:      3 Energy:     -3065.995142  Gnorm:      0.397998  CPU:    0.590
  Cycle:      4 Energy:     -3066.427166  Gnorm:      0.262756  CPU:    0.683
  Cycle:      5 Energy:     -3066.804652  Gnorm:      0.204426  CPU:    0.793
  Cycle:      6 Energy:     -3067.156487  Gnorm:      0.158543  CPU:    0.903
  Cycle:      7 Energy:     -3067.372798  Gnorm:      0.127214  CPU:    0.996
  Cycle:      8 Energy:     -3067.500990  Gnorm:      0.092409  CPU:    1.088
  Cycle:      9 Energy:     -3067.567621  Gnorm:      0.066479  CPU:    1.181
  Cycle:     10 Energy:     -3067.602871  Gnorm:      0.050437  CPU:    1.291
  Cycle:     11 Energy:     -3067.627112  Gnorm:      0.048267  CPU:    1.400
  ** Hessian has required structure
  Cycle:     12 Energy:     -3067.656389  Gnorm:      0.115828  CPU:    1.549
  ** Hessian has wrong structure
  ** Imaginary eigenvectors =   2
  ** Hessian has wrong structure
  ** Imaginary eigenvectors =   2
  Cycle:     13 Energy:     -3067.660727  Gnorm:      0.115980  CPU:    2.119
  ** Hessian has wrong structure
  ** Imaginary eigenvectors =   2
  ** Hessian has wrong structure
  ** Imaginary eigenvectors =   2
  Cycle:     14 Energy:     -3067.669428  Gnorm:      0.116352  CPU:    2.674
  ** Hessian has wrong structure
  ** Imaginary eigenvectors =   2
  ** Hessian has wrong structure
  ** Imaginary eigenvectors =   2
  Cycle:     15 Energy:     -3067.683830  Gnorm:      0.117092  CPU:    3.211
  ** Hessian has wrong structure
  ** Imaginary eigenvectors =   2
  ** Hessian has wrong structure
  ** Imaginary eigenvectors =   1
  Cycle:     16 Energy:     -3067.740826  Gnorm:      0.113069  CPU:    3.649
  ** Hessian has wrong structure
  ** Imaginary eigenvectors =   1
  ** Hessian has wrong structure
  ** Imaginary eigenvectors =   1
  Cycle:     17 Energy:     -3067.818527  Gnorm:      0.104554  CPU:    4.070
  ** Hessian has required structure
  ** Hessian has required structure
  Cycle:     18 Energy:     -3068.010624  Gnorm:      0.079746  CPU:    4.371
  ** Hessian has required structure
  Cycle:     19 Energy:     -3068.192794  Gnorm:      0.045261  CPU:    4.547
  ** Hessian has required structure
  Cycle:     20 Energy:     -3068.260627  Gnorm:      0.041695  CPU:    4.724
  ** Hessian has required structure
  Cycle:     21 Energy:     -3068.295561  Gnorm:      0.030076  CPU:    4.882
  ** Hessian has required structure
  Cycle:     22 Energy:     -3068.306162  Gnorm:      0.034198  CPU:    5.021
  ** Hessian has required structure
  Cycle:     23 Energy:     -3068.328181  Gnorm:      0.033554  CPU:    5.162
  ** Hessian has required structure
  Cycle:     24 Energy:     -3068.334922  Gnorm:      0.030404  CPU:    5.301
  ** Hessian has required structure
  Cycle:     25 Energy:     -3068.346690  Gnorm:      0.019329  CPU:    5.459
  ** Hessian has required structure
  Cycle:     26 Energy:     -3068.357263  Gnorm:      0.016709  CPU:    5.616
  ** Hessian has required structure
  Cycle:     27 Energy:     -3068.368289  Gnorm:      0.018642  CPU:    5.791
  ** Hessian has required structure
  Cycle:     28 Energy:     -3068.383335  Gnorm:      0.013163  CPU:    6.048
  ** Hessian has required structure
  Cycle:     29 Energy:     -3068.389263  Gnorm:      0.009308  CPU:    6.221
  ** Hessian has required structure
  Cycle:     30 Energy:     -3068.392315  Gnorm:      0.004308  CPU:    6.395
  ** Hessian has required structure
  Cycle:     31 Energy:     -3068.393388  Gnorm:      0.004210  CPU:    6.543
  ** Hessian has required structure
  Cycle:     32 Energy:     -3068.394000  Gnorm:      0.002467  CPU:    6.695
  ** Hessian has required structure
  Cycle:     33 Energy:     -3068.394176  Gnorm:      0.001098  CPU:    6.850
  ** Hessian has required structure
  Cycle:     34 Energy:     -3068.394237  Gnorm:      0.000936  CPU:    7.005
  ** Hessian has required structure
  Cycle:     35 Energy:     -3068.394278  Gnorm:      0.000578  CPU:    7.178
  ** Hessian has required structure
  Cycle:     36 Energy:     -3068.394302  Gnorm:      0.000724  CPU:    7.349
  ** Hessian has required structure
  Cycle:     37 Energy:     -3068.394317  Gnorm:      0.000380  CPU:    7.503
  ** Hessian has required structure
  Cycle:     38 Energy:     -3068.394329  Gnorm:      0.000191  CPU:    7.775
  ** Hessian has required structure
  Cycle:     39 Energy:     -3068.394322  Gnorm:      0.000810  CPU:    7.964
  ** Hessian has required structure
  Cycle:     40 Energy:     -3068.394329  Gnorm:      0.000486  CPU:    8.202
  ** Hessian has required structure
  Cycle:     41 Energy:     -3068.394330  Gnorm:      0.000340  CPU:    8.339
  ** Hessian has required structure
  Cycle:     42 Energy:     -3068.394331  Gnorm:      0.000327  CPU:    8.551
  ** Hessian has required structure
  Cycle:     43 Energy:     -3068.394331  Gnorm:      0.000320  CPU:    8.820
  ** Hessian has required structure
  Cycle:     44 Energy:     -3068.394331  Gnorm:      0.000320  CPU:    9.073
  ** Hessian has required structure
  Cycle:     45 Energy:     -3068.394331  Gnorm:      0.000320  CPU:    9.228
  ** Hessian has required structure
  Cycle:     46 Energy:     -3068.394331  Gnorm:      0.000320  CPU:    9.383
  ** Hessian has required structure
  Cycle:     47 Energy:     -3068.394331  Gnorm:      0.000319  CPU:    9.538
  ** Hessian has required structure
  Cycle:     48 Energy:     -3068.394331  Gnorm:      0.000319  CPU:    9.792
  ** Hessian has required structure
  Cycle:     49 Energy:     -3068.394331  Gnorm:      0.000319  CPU:   10.173
  ** Hessian calculated **


  **** Optimisation achieved ****


  Final energy =   -3068.39433058 eV      
  Final Gnorm  =       0.00031945

  Components of energy : 

--------------------------------------------------------------------------------
  Interatomic potentials     =         814.51105059 eV    
  Three-body potentials      =           0.18798587 eV    
  Monopole - monopole (real) =       -2208.42238735 eV    
  Monopole - monopole (recip)=       -1674.67097969 eV    
  Monopole - monopole (total)=       -3883.09336704 eV    
--------------------------------------------------------------------------------
  Total lattice energy       =       -3068.39433058 eV    
--------------------------------------------------------------------------------
  Total lattice energy       =         -296053.1482 kJ/(mole unit cells)
--------------------------------------------------------------------------------

  Final fractional coordinates of atoms :

--------------------------------------------------------------------------------
   No.  Atomic        x           y          z          Radius
        Label       (Frac)      (Frac)     (Frac)       (Angs) 
--------------------------------------------------------------------------------
     1  Ge    c     0.052090    0.000000    0.372270    0.000000
     2  Ge    c     0.341629    0.730279    0.276196    0.000000
     3  Ge    c     0.660316    0.698902    0.700713    0.000000
     4  Si    c     0.457049    0.023672    0.354840    0.000000
     5  Si    c     0.956304    0.014290    0.641152    0.000000
     6  Si    c     0.554182    0.001531    0.611058    0.000000
     7  Si    c     0.559664    0.006154    0.098481    0.000000
     8  Si    c     0.944363    0.023856    0.126285    0.000000
     9  Si    c     0.446899    0.025039    0.857356    0.000000
    10  Si    c     0.060611    0.006297    0.893527    0.000000
    11  Si    c     0.171514    0.293718    0.269814    0.000000
    12  Si    c     0.848061    0.314115    0.713390    0.000000
    13  Si    c     0.842088    0.715778    0.703919    0.000000
    14  Si    c     0.669250    0.290537    0.712015    0.000000
    15  Si    c     0.160811    0.699145    0.276179    0.000000
    16  Si    c     0.350180    0.319285    0.268030    0.000000
    17  Si    c     0.667173    0.307195    0.019137    0.000000
    18  Si    c     0.839551    0.722388    0.012521    0.000000
    19  Si    c     0.348784    0.328134    0.961944    0.000000
    20  Si    c     0.162711    0.701964    0.968794    0.000000
    21  Si    c     0.341248    0.728933    0.963475    0.000000
    22  Si    c     0.169788    0.304014    0.964741    0.000000
    23  Si    c     0.661590    0.705970    0.014132    0.000000
    24  Si    c     0.845640    0.324913    0.019485    0.000000
    25  O3    c     0.119778    0.165389    0.354621    0.000000
    26  O3    c     0.399665    0.859914    0.372813    0.000000
    27  O2    c     0.904371    0.188547    0.632522    0.000000
    28  O3    c     0.592861    0.813181    0.613716    0.000000
    29  O2    c     0.900386    0.843950    0.625831    0.000000
    30  O2    c     0.623084    0.140779    0.635620    0.000000
    31  O3    c     0.096068    0.800812    0.354357    0.000000
    32  O2    c     0.406210    0.198124    0.351543    0.000000
    33  O3    c     0.020683    0.015970    0.531590    0.000000
    34  O2    c     0.519120    0.038408    0.469371    0.000000
    35  O3    c     0.971839    0.017291    0.274276    0.000000
    36  O2    c     0.501955    0.000611    0.218836    0.000000
    37  O2    c     0.997612    0.008487    0.781494    0.000000
    38  O2    c     0.484448    0.020341    0.714312    0.000000
    39  O2    c     0.616176    0.175820    0.107567    0.000000
    40  O2    c     0.889508    0.858027    0.095886    0.000000
    41  O2    c     0.402283    0.207928    0.871725    0.000000
    42  O2    c     0.107162    0.825047    0.885112    0.000000
    43  O2    c     0.388225    0.860584    0.869273    0.000000
    44  O2    c     0.120054    0.170130    0.876647    0.000000
    45  O2    c     0.608876    0.829008    0.103862    0.000000
    46  O2    c     0.899114    0.204566    0.107589    0.000000
    47  O2    c     0.513782    0.012186    0.963418    0.000000
    48  O2    c     0.020085    0.020240    0.034882    0.000000
    49  O2    c     0.147973    0.492672    0.298510    0.000000
    50  O3    c     0.369042    0.517485    0.300948    0.000000
    51  O2    c     0.868263    0.515748    0.680331    0.000000
    52  O3    c     0.639762    0.480128    0.675031    0.000000
    53  O2    c     0.261602    0.270328    0.305404    0.000000
    54  O3    c     0.246264    0.755326    0.321562    0.000000
    55  O2    c     0.759573    0.273732    0.673524    0.000000
    56  O3    c     0.755303    0.740054    0.654637    0.000000
    57  O2    c     0.159222    0.250645    0.116355    0.000000
    58  O3    c     0.353559    0.784458    0.112778    0.000000
    59  O2    c     0.858309    0.276624    0.867662    0.000000
    60  O3    c     0.649703    0.753351    0.863474    0.000000
    61  O2    c     0.846191    0.761991    0.858310    0.000000
    62  O2    c     0.658377    0.257596    0.867044    0.000000
    63  O2    c     0.153785    0.745521    0.122020    0.000000
    64  O2    c     0.362706    0.280986    0.113473    0.000000
    65  O2    c     0.637730    0.504136    0.041587    0.000000
    66  O2    c     0.869269    0.527283    0.043625    0.000000
    67  O2    c     0.370969    0.531496    0.938913    0.000000
    68  O2    c     0.139724    0.500268    0.940209    0.000000
    69  O2    c     0.756539    0.292205    0.060680    0.000000
    70  O2    c     0.750496    0.738374    0.055355    0.000000
    71  O2    c     0.259582    0.292348    0.923976    0.000000
    72  O2    c     0.251028    0.738381    0.925819    0.000000
    73  O3    s     0.119729    0.165468    0.346796    0.000000
    74  O3    s     0.400576    0.865481    0.362974    0.000000
    75  O2    s     0.903579    0.184233    0.642333    0.000000
    76  O3    s     0.594611    0.822576    0.620677    0.000000
    77  O2    s     0.899837    0.847729    0.635915    0.000000
    78  O2    s     0.620835    0.142701    0.641749    0.000000
    79  O3    s     0.099236    0.806624    0.347609    0.000000
    80  O2    s     0.405467    0.192781    0.342536    0.000000
    81  O3    s     0.016277    0.014401    0.530019    0.000000
    82  O2    s     0.515952    0.032481    0.472287    0.000000
    83  O3    s     0.975650    0.016518    0.266942    0.000000
    84  O2    s     0.503795    0.003871    0.219720    0.000000
    85  O2    s     0.000485    0.008864    0.779275    0.000000
    86  O2    s     0.487863    0.018801    0.719226    0.000000
    87  O2    s     0.615823    0.172400    0.096830    0.000000
    88  O2    s     0.889791    0.860664    0.089550    0.000000
    89  O2    s     0.401101    0.201751    0.880263    0.000000
    90  O2    s     0.108349    0.830689    0.895247    0.000000
    91  O2    s     0.389385    0.863843    0.878454    0.000000
    92  O2    s     0.119257    0.167588    0.888073    0.000000
    93  O2    s     0.609406    0.834434    0.093374    0.000000
    94  O2    s     0.897917    0.198715    0.099539    0.000000
    95  O2    s     0.511317    0.012980    0.966598    0.000000
    96  O2    s     0.016257    0.019103    0.029506    0.000000
    97  O2    s     0.151907    0.493448    0.292974    0.000000
    98  O3    s     0.364771    0.514216    0.295432    0.000000
    99  O2    s     0.863358    0.515080    0.686340    0.000000
   100  O3    s     0.644447    0.478425    0.680871    0.000000
   101  O2    s     0.261365    0.277957    0.297640    0.000000
   102  O3    s     0.245623    0.747816    0.313440    0.000000
   103  O2    s     0.759533    0.279904    0.681928    0.000000
   104  O3    s     0.756372    0.734367    0.663214    0.000000
   105  O2    s     0.161652    0.260834    0.116265    0.000000
   106  O3    s     0.351374    0.774603    0.110883    0.000000
   107  O2    s     0.855836    0.285811    0.867605    0.000000
   108  O3    s     0.651777    0.744126    0.865366    0.000000
   109  O2    s     0.845037    0.752833    0.858840    0.000000
   110  O2    s     0.660510    0.266465    0.867107    0.000000
   111  O2    s     0.155476    0.736026    0.121462    0.000000
   112  O2    s     0.359895    0.289970    0.113243    0.000000
   113  O2    s     0.643382    0.504398    0.036304    0.000000
   114  O2    s     0.863650    0.526345    0.037781    0.000000
   115  O2    s     0.365529    0.530388    0.943908    0.000000
   116  O2    s     0.145347    0.500908    0.945839    0.000000
   117  O2    s     0.756452    0.297423    0.051724    0.000000
   118  O2    s     0.750705    0.733050    0.046211    0.000000
   119  O2    s     0.259439    0.297548    0.932506    0.000000
   120  O2    s     0.251138    0.733301    0.934564    0.000000
--------------------------------------------------------------------------------

  Final Cartesian lattice vectors (Angstroms) :

       17.275361   -0.122017    0.036224
       -0.053484    7.649101   -0.001880
        0.023005    0.000070   10.200756


  Final cell parameters and derivatives :

--------------------------------------------------------------------------------
       a           17.275830 Angstrom     dE/de1(xx)    -0.038222 eV/strain
       b            7.649288 Angstrom     dE/de2(yy)    -0.017891 eV/strain
       c           10.200782 Angstrom     dE/de3(zz)    -0.026908 eV/strain
       alpha       90.014588 Degrees      dE/de4(yz)     0.003750 eV/strain
       beta        89.750654 Degrees      dE/de5(xz)     0.021583 eV/strain
       gamma       90.805321 Degrees      dE/de6(xy)    -0.022608 eV/strain
--------------------------------------------------------------------------------

  Primitive cell volume =          1347.864998 Angs**3

  Density of cell =      1.941282 g/cm**3

  Non-primitive cell volume =          1347.864998 Angs**3


  Final internal derivatives :

--------------------------------------------------------------------------------
   No.  Atomic          a             b             c           Radius
        Label          (eV)          (eV)          (eV)        (eV/Angs)
--------------------------------------------------------------------------------
      1 Ge    c       0.000000      0.000000      0.000000      0.000000
      2 Ge    c      -0.007062      0.005296     -0.004464      0.000000
      3 Ge    c       0.022124     -0.003536      0.001820      0.000000
      4 Si    c       0.000103     -0.009555     -0.010378      0.000000
      5 Si    c       0.004159     -0.008605     -0.013056      0.000000
      6 Si    c      -0.006671      0.006716      0.011060      0.000000
      7 Si    c      -0.000337      0.007667      0.010862      0.000000
      8 Si    c       0.011152     -0.005952     -0.011049      0.000000
      9 Si    c      -0.006015     -0.009151     -0.009739      0.000000
     10 Si    c      -0.000859      0.008775      0.010782      0.000000
     11 Si    c      -0.011953     -0.008943      0.004409      0.000000
     12 Si    c      -0.007184      0.002364     -0.000568      0.000000
     13 Si    c       0.008586      0.007138     -0.004822      0.000000
     14 Si    c       0.010162     -0.001649      0.002757      0.000000
     15 Si    c       0.006663     -0.000786     -0.000671      0.000000
     16 Si    c      -0.020409      0.001745     -0.002880      0.000000
     17 Si    c      -0.006825     -0.006606      0.004802      0.000000
     18 Si    c      -0.012271      0.002612     -0.000941      0.000000
     19 Si    c      -0.005078      0.002248     -0.000153      0.000000
     20 Si    c       0.020866     -0.002906      0.002857      0.000000
     21 Si    c       0.008297      0.008407     -0.005463      0.000000
     22 Si    c       0.008111     -0.004823      0.002914      0.000000
     23 Si    c       0.003352     -0.002688      0.000376      0.000000
     24 Si    c      -0.019270      0.002647     -0.002816      0.000000
     25 O3    c       0.005902      0.003521     -0.010337      0.000000
     26 O3    c       0.013195      0.007904     -0.000267      0.000000
     27 O2    c      -0.003705      0.002757      0.000160      0.000000
     28 O3    c      -0.006680     -0.000077     -0.004058      0.000000
     29 O2    c      -0.007246     -0.001569      0.008565      0.000000
     30 O2    c      -0.011006     -0.003392     -0.001012      0.000000
     31 O3    c       0.009166     -0.006815     -0.002384      0.000000
     32 O2    c      -0.000614      0.001859      0.002772      0.000000
     33 O3    c      -0.019550     -0.000249      0.005347      0.000000
     34 O2    c       0.003999      0.000724      0.000983      0.000000
     35 O3    c      -0.007376      0.000044      0.000206      0.000000
     36 O2    c       0.007249      0.000524     -0.004185      0.000000
     37 O2    c      -0.003747     -0.000251     -0.001053      0.000000
     38 O2    c       0.008177     -0.000573      0.001165      0.000000
     39 O2    c       0.003026      0.001012     -0.009435      0.000000
     40 O2    c       0.006757      0.004366      0.000829      0.000000
     41 O2    c      -0.004407      0.004310      0.001450      0.000000
     42 O2    c      -0.001668     -0.001215     -0.003756      0.000000
     43 O2    c      -0.001461     -0.001009      0.008275      0.000000
     44 O2    c      -0.009325     -0.005337      0.000697      0.000000
     45 O2    c       0.002515     -0.001963     -0.000955      0.000000
     46 O2    c       0.003451     -0.001085      0.002823      0.000000
     47 O2    c       0.004487     -0.000063      0.002017      0.000000
     48 O2    c      -0.012968      0.000083      0.000767      0.000000
     49 O2    c      -0.001739      0.006777      0.000680      0.000000
     50 O3    c       0.003729     -0.007683      0.000400      0.000000
     51 O2    c      -0.001624     -0.003040      0.001331      0.000000
     52 O3    c       0.001045      0.002228      0.002487      0.000000
     53 O2    c       0.024398      0.001504     -0.001925      0.000000
     54 O3    c      -0.000313     -0.001858     -0.003759      0.000000
     55 O2    c      -0.015091      0.001664      0.003484      0.000000
     56 O3    c      -0.018767     -0.003145      0.005315      0.000000
     57 O2    c       0.000323      0.001235     -0.005221      0.000000
     58 O3    c      -0.000778     -0.001729      0.007404      0.000000
     59 O2    c      -0.001632      0.000806      0.002017      0.000000
     60 O3    c       0.001727     -0.000768     -0.000338      0.000000
     61 O2    c      -0.000293     -0.001051      0.002539      0.000000
     62 O2    c       0.001811      0.000818     -0.005610      0.000000
     63 O2    c       0.001518     -0.001018      0.000529      0.000000
     64 O2    c      -0.000226      0.000478      0.001459      0.000000
     65 O2    c       0.002183      0.002914     -0.001489      0.000000
     66 O2    c      -0.000408     -0.002129     -0.000808      0.000000
     67 O2    c       0.000790     -0.006815      0.000193      0.000000
     68 O2    c      -0.002298      0.005696      0.000084      0.000000
     69 O2    c       0.011405      0.001823     -0.003903      0.000000
     70 O2    c       0.015868     -0.001343     -0.003345      0.000000
     71 O2    c      -0.005464      0.000765      0.002342      0.000000
     72 O2    c      -0.019572     -0.001435      0.003531      0.000000
     73 O3    s      -0.003111     -0.001963      0.004320      0.000000
     74 O3    s      -0.003061     -0.003851     -0.001940      0.000000
     75 O2    s      -0.000129     -0.001730      0.001538      0.000000
     76 O3    s       0.004698      0.001717      0.002530      0.000000
     77 O2    s      -0.000053      0.000206     -0.000900      0.000000
     78 O2    s       0.003905      0.000897      0.001819      0.000000
     79 O3    s       0.000563      0.003606     -0.001002      0.000000
     80 O2    s      -0.002037      0.000172     -0.000975      0.000000
     81 O3    s       0.006506     -0.000590     -0.000826      0.000000
     82 O2    s      -0.001496     -0.000936      0.002100      0.000000
     83 O3    s       0.004625      0.000375     -0.004135      0.000000
     84 O2    s       0.001883      0.000663      0.000625      0.000000
     85 O2    s       0.001010      0.000893     -0.001107      0.000000
     86 O2    s      -0.000244     -0.000221     -0.001579      0.000000
     87 O2    s       0.000813     -0.000299      0.001928      0.000000
     88 O2    s      -0.001341     -0.000653     -0.001561      0.000000
     89 O2    s      -0.002900     -0.001770      0.000225      0.000000
     90 O2    s       0.002904      0.000351      0.002077      0.000000
     91 O2    s      -0.000393      0.000449     -0.002343      0.000000
     92 O2    s       0.000834      0.001402      0.001923      0.000000
     93 O2    s       0.000548      0.001941     -0.001271      0.000000
     94 O2    s      -0.000468     -0.000912     -0.002407      0.000000
     95 O2    s       0.000759     -0.000183      0.000901      0.000000
     96 O2    s      -0.000423     -0.000605      0.001328      0.000000
     97 O2    s      -0.000051      0.000817     -0.000678      0.000000
     98 O3    s      -0.005549      0.001821     -0.000050      0.000000
     99 O2    s      -0.003033      0.001258      0.002080      0.000000
    100 O3    s       0.005502     -0.002644      0.001191      0.000000
    101 O2    s      -0.000517     -0.000822     -0.000373      0.000000
    102 O3    s      -0.003596      0.000728      0.001117      0.000000
    103 O2    s       0.000564      0.001234      0.001376      0.000000
    104 O3    s       0.009447      0.000673     -0.000860      0.000000
    105 O2    s       0.001213     -0.000865     -0.000274      0.000000
    106 O3    s       0.000108      0.001592     -0.003576      0.000000
    107 O2    s      -0.000607      0.000517      0.000321      0.000000
    108 O3    s      -0.000162     -0.000538     -0.000243      0.000000
    109 O2    s      -0.004267     -0.000846      0.000336      0.000000
    110 O2    s       0.005972      0.000907      0.000377      0.000000
    111 O2    s       0.002185     -0.000455     -0.000682      0.000000
    112 O2    s      -0.002943      0.000542      0.000156      0.000000
    113 O2    s       0.003663     -0.001673     -0.001236      0.000000
    114 O2    s      -0.005322      0.001072     -0.000764      0.000000
    115 O2    s      -0.003180      0.000596      0.000612      0.000000
    116 O2    s       0.004657     -0.000260      0.000025      0.000000
    117 O2    s      -0.003088      0.000502     -0.001078      0.000000
    118 O2    s      -0.001170     -0.000349     -0.001210      0.000000
    119 O2    s       0.003070     -0.000124      0.000508      0.000000
    120 O2    s       0.000880      0.000114      0.000365      0.000000
--------------------------------------------------------------------------------
  Maximum abs         0.024398      0.009555      0.013056      0.000000
--------------------------------------------------------------------------------


  Born effective charge tensors : 

-------------------------------------------------------------------------------
  Atom             x           y             z
-------------------------------------------------------------------------------
    1 Ge    x       4.1994     -0.1403     -0.4242
            y       0.1016      3.9114      0.0159
            z      -0.2666      0.0518      4.6759
-------------------------------------------------------------------------------
    2 Ge    x       3.9411      0.3259      0.1566
            y       0.2731      4.1749      0.2371
            z       0.1509      0.0676      3.4512
-------------------------------------------------------------------------------
    3 Ge    x       3.9708     -0.2966      0.1098
            y      -0.3855      4.1924     -0.2189
            z       0.2084     -0.0578      3.4424
-------------------------------------------------------------------------------
    4 Si    x       3.5911      0.1097     -0.0102
            y       0.1822      3.4292     -0.0825
            z       0.6262      0.0711      3.7735
-------------------------------------------------------------------------------
    5 Si    x       3.6974     -0.0496     -0.1423
            y       0.0030      3.2901      0.0166
            z      -0.9156      0.0018      4.0058
-------------------------------------------------------------------------------
    6 Si    x       3.5768     -0.3553      0.2858
            y      -0.0485      3.4910      0.0386
            z       0.3125     -0.1501      3.8482
-------------------------------------------------------------------------------
    7 Si    x       3.5089     -0.0146     -0.0442
            y       0.0163      3.2559     -0.0011
            z      -0.5530     -0.0363      3.0286
-------------------------------------------------------------------------------
    8 Si    x       3.6144     -0.0688      0.4891
            y       0.0242      3.3306      0.0024
            z       0.4558     -0.0428      3.5795
-------------------------------------------------------------------------------
    9 Si    x       3.5266     -0.0864     -0.2532
            y       0.0460      3.2695      0.0156
            z      -0.3871      0.0370      3.1439
-------------------------------------------------------------------------------
   10 Si    x       3.5459     -0.0656      0.0154
            y       0.0453      3.2762     -0.0099
            z       0.6145      0.0038      2.9238
-------------------------------------------------------------------------------
   11 Si    x       3.3893      0.4126     -0.2477
            y       0.3359      3.5909     -0.3134
            z      -0.2428     -0.2234      3.0168
-------------------------------------------------------------------------------
   12 Si    x       3.1918     -0.2546     -0.0853
            y      -0.2381      3.4181      0.1528
            z      -0.0926      0.0536      2.7957
-------------------------------------------------------------------------------
   13 Si    x       3.5320      0.2438      0.0445
            y       0.1800      3.5116     -0.1754
            z      -0.0143     -0.0705      2.8706
-------------------------------------------------------------------------------
   14 Si    x       3.2737      0.2473      0.1097
            y       0.0378      3.7560      0.0325
            z       0.1407      0.0306      2.8970
-------------------------------------------------------------------------------
   15 Si    x       3.7785     -0.2491     -0.1296
            y      -0.3991      3.5965      0.2983
            z      -0.2349      0.1679      3.0390
-------------------------------------------------------------------------------
   16 Si    x       3.2623     -0.1600      0.1378
            y      -0.1715      3.7491     -0.0668
            z       0.1460      0.0062      2.9012
-------------------------------------------------------------------------------
   17 Si    x       3.2676      0.3178     -0.1384
            y       0.1824      3.3996     -0.1647
            z      -0.1454     -0.0426      2.6917
-------------------------------------------------------------------------------
   18 Si    x       3.2139      0.3064      0.1084
            y       0.1617      3.4370      0.1676
            z       0.1473      0.0882      2.7323
-------------------------------------------------------------------------------
   19 Si    x       3.2801     -0.2626     -0.1476
            y      -0.2305      3.4249      0.1950
            z      -0.1456      0.0564      2.7258
-------------------------------------------------------------------------------
   20 Si    x       3.2600     -0.2894      0.1153
            y      -0.2321      3.4323     -0.1797
            z       0.1302     -0.0525      2.6677
-------------------------------------------------------------------------------
   21 Si    x       3.3161      0.3478     -0.1110
            y       0.1825      3.5441     -0.1060
            z      -0.0983      0.0143      3.0212
-------------------------------------------------------------------------------
   22 Si    x       3.2790      0.3326      0.1395
            y       0.1673      3.4244      0.1658
            z       0.1139      0.0324      2.6670
-------------------------------------------------------------------------------
   23 Si    x       3.3139     -0.3091     -0.0890
            y      -0.2413      3.5143      0.0939
            z      -0.1036     -0.0186      2.9928
-------------------------------------------------------------------------------
   24 Si    x       3.2458     -0.2512      0.1224
            y      -0.2126      3.4165     -0.1908
            z       0.1336     -0.0623      2.7247
-------------------------------------------------------------------------------
   25 O3    x      -2.1273     -0.9847      0.5527
            y      -1.0119     -2.3311      0.5593
            z       0.5771      0.5722     -1.6391
-------------------------------------------------------------------------------
   26 O3    x      -2.0861     -0.9553     -0.2939
            y      -0.9998     -2.3709     -0.3081
            z      -0.3901     -0.2922     -1.5511
-------------------------------------------------------------------------------
   27 O2    x      -1.7008      0.7408      0.2304
            y       0.7106     -1.9994     -0.2596
            z       0.3271     -0.2595     -1.3204
-------------------------------------------------------------------------------
   28 O3    x      -1.9752      0.9319     -0.3984
            y       0.9354     -2.5516      0.3788
            z      -0.4424      0.3777     -1.5286
-------------------------------------------------------------------------------
   29 O2    x      -1.6960     -0.7103      0.2017
            y      -0.7050     -1.9799      0.2264
            z       0.3068      0.2350     -1.3292
-------------------------------------------------------------------------------
   30 O2    x      -1.7942     -0.6700     -0.3711
            y      -0.7093     -1.8713     -0.3706
            z      -0.3821     -0.3410     -1.3718
-------------------------------------------------------------------------------
   31 O3    x      -2.0875      0.9521      0.5407
            y       0.9418     -2.3441     -0.4958
            z       0.5623     -0.4916     -1.5984
-------------------------------------------------------------------------------
   32 O2    x      -1.7277      0.6873     -0.3030
            y       0.7055     -1.9005      0.3251
            z      -0.3801      0.2854     -1.3646
-------------------------------------------------------------------------------
   33 O3    x      -2.0290      0.0562      1.1157
            y      -0.0052     -1.2127     -0.0307
            z       1.3624     -0.0840     -3.3821
-------------------------------------------------------------------------------
   34 O2    x      -1.6123      0.0731     -0.7498
            y       0.0077     -1.0924      0.0591
            z      -0.9550      0.1092     -2.6694
-------------------------------------------------------------------------------
   35 O3    x      -2.0150      0.0930     -0.8941
            y       0.0439     -1.2216      0.0726
            z      -0.9116      0.0981     -2.8564
-------------------------------------------------------------------------------
   36 O2    x      -1.7115      0.0490      0.7196
            y       0.0217     -1.1368     -0.0528
            z       0.6887     -0.0787     -2.2182
-------------------------------------------------------------------------------
   37 O2    x      -1.7901      0.0358     -0.7426
            y       0.0082     -1.1331      0.0252
            z      -0.7262      0.0300     -2.1376
-------------------------------------------------------------------------------
   38 O2    x      -1.7391      0.0657      0.6865
            y       0.0041     -1.1027     -0.0445
            z       0.7036     -0.0544     -2.2332
-------------------------------------------------------------------------------
   39 O2    x      -1.7299     -0.7342      0.2705
            y      -0.6833     -1.9564      0.2959
            z       0.3305      0.2897     -1.2234
-------------------------------------------------------------------------------
   40 O2    x      -1.7037     -0.7176     -0.3851
            y      -0.6743     -2.0050     -0.4192
            z      -0.3598     -0.3788     -1.2697
-------------------------------------------------------------------------------
   41 O2    x      -1.6921      0.7329      0.3822
            y       0.6520     -2.0136     -0.3936
            z       0.3628     -0.3618     -1.2700
-------------------------------------------------------------------------------
   42 O2    x      -1.7222      0.7488     -0.2654
            y       0.6776     -2.0138      0.2897
            z      -0.3411      0.2787     -1.1860
-------------------------------------------------------------------------------
   43 O2    x      -1.7236     -0.7226      0.3553
            y      -0.6751     -1.9733      0.3726
            z       0.3462      0.3495     -1.2652
-------------------------------------------------------------------------------
   44 O2    x      -1.7533     -0.7385     -0.2420
            y      -0.6976     -1.9538     -0.2726
            z      -0.3211     -0.2720     -1.2064
-------------------------------------------------------------------------------
   45 O2    x      -1.7102      0.7334      0.2645
            y       0.6672     -1.9977     -0.2846
            z       0.3339     -0.2840     -1.2086
-------------------------------------------------------------------------------
   46 O2    x      -1.6773      0.7068     -0.3743
            y       0.6441     -2.0079      0.3759
            z      -0.3544      0.3571     -1.2726
-------------------------------------------------------------------------------
   47 O2    x      -1.8491      0.0529     -0.6457
            y       0.0173     -1.1533      0.0380
            z      -0.3718      0.0421     -1.7382
-------------------------------------------------------------------------------
   48 O2    x      -1.9124      0.0498      0.5777
            y       0.0056     -1.1630     -0.0363
            z       0.3116     -0.0364     -1.6669
-------------------------------------------------------------------------------
   49 O2    x      -1.1824      0.0811      0.0605
            y       0.1200     -2.4933     -0.0210
            z       0.0805     -0.0186     -1.1065
-------------------------------------------------------------------------------
   50 O3    x      -1.3029     -0.0203     -0.0869
            y       0.0318     -3.2174     -0.1121
            z      -0.0973     -0.1044     -1.2049
-------------------------------------------------------------------------------
   51 O2    x      -1.1589     -0.0021      0.0569
            y       0.0295     -2.5575      0.0388
            z       0.0706      0.0337     -1.0791
-------------------------------------------------------------------------------
   52 O3    x      -1.3403      0.1390     -0.0954
            y       0.1795     -3.1737      0.1298
            z      -0.1238      0.1265     -1.2190
-------------------------------------------------------------------------------
   53 O2    x      -2.3898     -0.0251     -0.0100
            y       0.0071     -1.2408      0.0674
            z      -0.0044      0.0472     -1.1011
-------------------------------------------------------------------------------
   54 O3    x      -2.9422     -0.1732     -0.0868
            y      -0.1626     -1.4130     -0.1099
            z      -0.0974     -0.0785     -1.2528
-------------------------------------------------------------------------------
   55 O2    x      -2.4087     -0.0966     -0.0002
            y      -0.0696     -1.2348     -0.0578
            z      -0.0251     -0.0416     -1.0887
-------------------------------------------------------------------------------
   56 O3    x      -2.9959     -0.0172     -0.1134
            y       0.0221     -1.3760      0.0948
            z      -0.1331      0.0614     -1.2536
-------------------------------------------------------------------------------
   57 O2    x      -1.2064     -0.1381     -0.0482
            y      -0.1000     -1.2897      0.0053
            z      -0.0539      0.0008     -2.0351
-------------------------------------------------------------------------------
   58 O3    x      -1.3334     -0.1606     -0.0423
            y      -0.1247     -1.4608     -0.0931
            z      -0.0172     -0.0681     -2.5980
-------------------------------------------------------------------------------
   59 O2    x      -1.1840      0.1215     -0.0059
            y       0.1046     -1.2683     -0.0311
            z      -0.0033     -0.0252     -2.0605
-------------------------------------------------------------------------------
   60 O3    x      -1.3283      0.1531     -0.0233
            y       0.1369     -1.4444      0.0738
            z      -0.0173      0.0273     -2.6067
-------------------------------------------------------------------------------
   61 O2    x      -1.1759     -0.1159      0.0380
            y      -0.0799     -1.2893     -0.0066
            z       0.0221     -0.0168     -2.0800
-------------------------------------------------------------------------------
   62 O2    x      -1.2027     -0.1304      0.0242
            y      -0.0880     -1.2629     -0.0594
            z       0.0445     -0.0573     -2.0708
-------------------------------------------------------------------------------
   63 O2    x      -1.1965      0.1189     -0.0026
            y       0.1095     -1.3008      0.0203
            z      -0.0060      0.0341     -2.0527
-------------------------------------------------------------------------------
   64 O2    x      -1.2071      0.1179      0.0038
            y       0.1110     -1.2634      0.0464
            z       0.0106      0.0427     -2.0818
-------------------------------------------------------------------------------
   65 O2    x      -1.2382      0.0305      0.0703
            y       0.0491     -2.5179     -0.0013
            z       0.0946     -0.0150     -1.0079
-------------------------------------------------------------------------------
   66 O2    x      -1.2213      0.0191     -0.0731
            y       0.0507     -2.5236      0.0341
            z      -0.0946      0.0083     -1.0218
-------------------------------------------------------------------------------
   67 O2    x      -1.2399      0.0298      0.0711
            y       0.0673     -2.5537      0.0186
            z       0.0883      0.0313     -1.0127
-------------------------------------------------------------------------------
   68 O2    x      -1.2296      0.0401     -0.0761
            y       0.0659     -2.5158     -0.0169
            z      -0.0910     -0.0063     -1.0057
-------------------------------------------------------------------------------
   69 O2    x      -2.4273     -0.0504     -0.0017
            y      -0.0306     -1.2264      0.0642
            z      -0.0047      0.0321     -1.0499
-------------------------------------------------------------------------------
   70 O2    x      -2.4096     -0.0477      0.0358
            y      -0.0147     -1.2480     -0.0606
            z       0.0347     -0.0362     -1.0431
-------------------------------------------------------------------------------
   71 O2    x      -2.4528     -0.0691      0.0133
            y      -0.0265     -1.2293     -0.0635
            z       0.0215     -0.0292     -1.0399
-------------------------------------------------------------------------------
   72 O2    x      -2.4366     -0.0711      0.0484
            y      -0.0493     -1.2497      0.0668
            z       0.0442      0.0360     -1.0368
-------------------------------------------------------------------------------




  Elastic Constant Matrix: (Units=GPa)

-------------------------------------------------------------------------------
  Indices      1         2         3         4         5         6    
-------------------------------------------------------------------------------
       1     61.0755   41.4486   14.2384   -1.1259    5.0910  -20.4863
       2     41.4486   94.0242   14.7488   -1.2330    3.6673  -22.7555
       3     14.2384   14.7488   23.6289   -0.9802    1.9843   -7.7244
       4     -1.1259   -1.2330   -0.9802   10.4077   -2.0825    0.7530
       5      5.0910    3.6673    1.9843   -2.0825   18.4559    0.0852
       6    -20.4863  -22.7555   -7.7244    0.7530    0.0852   22.6989
-------------------------------------------------------------------------------


  Elastic Compliance Matrix: (Units=1/GPa)

-------------------------------------------------------------------------------
  Indices      1         2         3         4         5         6    
-------------------------------------------------------------------------------
       1    0.029096 -0.007547 -0.007009 -0.000778 -0.005936  0.016357
       2   -0.007547  0.016587 -0.002829  0.000052 -0.000945  0.008856
       3   -0.007009 -0.002829  0.051342  0.002592 -0.002770  0.008235
       4   -0.000778  0.000052  0.002592  0.098688  0.011075 -0.003083
       5   -0.005936 -0.000945 -0.002770  0.011075  0.057592 -0.007831
       6    0.016357  0.008856  0.008235 -0.003083 -0.007831  0.070630
-------------------------------------------------------------------------------

  Mechanical properties :

-------------------------------------------------------------------------------
  Convention :                    Reuss         Voigt         Hill
-------------------------------------------------------------------------------
  Bulk  Modulus (GPa)     =      16.06264      35.51113      25.78689
  Shear Modulus (GPa)     =      13.17674      17.53202      15.35438
-------------------------------------------------------------------------------
  Velocity S-wave (km/s)  =       2.60531       3.00519       2.81237
  Velocity P-wave (km/s)  =       4.16226       5.50765       4.88153
-------------------------------------------------------------------------------
  Compressibility (1/GPa) =    0.06225627
-------------------------------------------------------------------------------
  Stress axis :                     x             y             z
-------------------------------------------------------------------------------
  Youngs Moduli (GPa)     =      34.36930      60.28754      19.47710
-------------------------------------------------------------------------------
  Poissons Ratio (x)      =                     0.45498       0.13651
  Poissons Ratio (y)      =       0.25938                     0.05510
  Poissons Ratio (z)      =       0.24088       0.17056
-------------------------------------------------------------------------------


  Piezoelectric Strain Matrix: (Units=C/m**2)

-------------------------------------------------------------------------------
  Indices      1         2         3         4         5         6    
-------------------------------------------------------------------------------
       x     0.12109   0.48376  -0.04496   0.28300   0.02881   0.49957
       y    -0.61928  -1.21727  -0.46521  -0.12849   0.66189   0.02179
       z    -0.54107  -0.26923  -0.32679   0.34204   0.33051   0.18790
-------------------------------------------------------------------------------


  Piezoelectric Stress Matrix: (Units=10**-11 C/N)

-------------------------------------------------------------------------------
  Indices      1         2         3         4         5         6    
-------------------------------------------------------------------------------
       x     0.79678   1.16495   0.02419   2.65218  -0.01703   4.00814
       y    -0.90441  -1.46405  -1.80882  -0.62054   4.26409  -2.79893
       z    -1.05750   0.19118  -1.07059   3.63963   2.57227  -0.42969
-------------------------------------------------------------------------------


  Static dielectric constant tensor : 

-------------------------------------------------------------------------------
              x         y         z
-------------------------------------------------------------------------------
       x     3.97667  -0.05661  -0.05131
       y    -0.05661   4.14009   0.00071
       z    -0.05131   0.00071   3.26960
--------------------------------------------------------------------------------

  High frequency dielectric constant tensor : 

-------------------------------------------------------------------------------
              x         y         z
-------------------------------------------------------------------------------
       x     1.67514  -0.00168   0.00041
       y    -0.00168   1.68171  -0.00025
       z     0.00041  -0.00025   1.61311
-------------------------------------------------------------------------------

  Static refractive indices : 

-------------------------------------------------------------------------------
    1 =    1.80717      2 =    1.99058      3 =    2.03914
-------------------------------------------------------------------------------

  High frequency refractive indices : 

-------------------------------------------------------------------------------
    1 =    1.27008      2 =    1.29412      3 =    1.29696
-------------------------------------------------------------------------------


  Time to end of optimisation =      10.6152 seconds


  Peak dynamic memory used =       5.01 MB 


  Timing analysis for GULP :

--------------------------------------------------------------------------------
  Task / Subroutine                                          Time (Seconds)
--------------------------------------------------------------------------------
  Calculation of reciprocal space energy and derivatives          0.7042
  Calculation of real space energy and derivatives                6.6681
  Calculation of three-body energy and derivatives                0.6068
  Calculation and manipulation of Hessian matrix                  3.2252
  Calculation of matrix inversion                                 0.0284
  Global summation overhead                                       0.0001
--------------------------------------------------------------------------------
  Total CPU time                                                 10.6152
--------------------------------------------------------------------------------


  Dump file written as c00074.vasp.grs
  CIF file written as c00074.vasp.cif


  Job Finished at 11:39.38  7th October    2025                               

