********************************************************************************
*                       GENERAL UTILITY LATTICE PROGRAM                        *
*                                 Julian Gale                                  *
*                       Curtin Institute for Computation                       *
*                    School of Molecular and Life Sciences                     *
*                    Curtin University, Western Australia                      *
********************************************************************************
* Version = 6.1.2 * Last modified =   3rd November 2022                        *
********************************************************************************
*  optimise     - perform optimisation run                                     *
*  conp         - constant pressure calculation                                *
*  property     - calculate properties for final geometry                      *
********************************************************************************

  Job Started  at 11:29.43  7th October    2025                               

  Number of CPUs =     1


  Total number of configurations input =      1

********************************************************************************
*  Input for Configuration =   1 : c00022.vasp                                 *
********************************************************************************

  Formula = Ge3Si21O48                                                  

  Number of irreducible atoms/shells =     120


  Total number atoms/shells =     120

  Dimensionality = 3               :  Bulk   



  Cartesian lattice vectors (Angstroms) :

       17.182800    0.000000    0.000000
        0.000000    7.513760    0.000000
        0.000000    0.000000   10.447700

  Cell parameters (Angstroms/Degrees):

  a =      17.1828    alpha =  90.0000
  b =       7.5138    beta  =  90.0000
  c =      10.4477    gamma =  90.0000

  Initial cell volume =        1348.875752 Angs**3

  Temperature of configuration =   0.00     K 

  Pressure of configuration =         0.000 GPa 

  Fractional coordinates of asymmetric unit :

--------------------------------------------------------------------------------
   No.  Atomic       x           y          z         Charge      Occupancy
        Label      (Frac)      (Frac)     (Frac)        (e)         (Frac)  
--------------------------------------------------------------------------------
      1 Ge    c    0.052090    0.000000    0.372270     4.00000    1.000000    
      2 Ge    c    0.556730 *  0.000000 *  0.122130 *   4.00000    1.000000    
      3 Ge    c    0.056730 *  0.000000 *  0.877870 *   4.00000    1.000000    
      4 Si    c    0.447910 *  0.000000 *  0.372270 *   4.00000    1.000000    
      5 Si    c    0.947910 *  0.000000 *  0.627730 *   4.00000    1.000000    
      6 Si    c    0.552090 *  0.000000 *  0.627730 *   4.00000    1.000000    
      7 Si    c    0.943270 *  0.000000 *  0.122130 *   4.00000    1.000000    
      8 Si    c    0.443270 *  0.000000 *  0.877870 *   4.00000    1.000000    
      9 Si    c    0.160190 *  0.293910 *  0.273440 *   4.00000    1.000000    
     10 Si    c    0.339810 *  0.706090 *  0.273440 *   4.00000    1.000000    
     11 Si    c    0.839810 *  0.293910 *  0.726560 *   4.00000    1.000000    
     12 Si    c    0.660190 *  0.706090 *  0.726560 *   4.00000    1.000000    
     13 Si    c    0.839810 *  0.706090 *  0.726560 *   4.00000    1.000000    
     14 Si    c    0.660190 *  0.293910 *  0.726560 *   4.00000    1.000000    
     15 Si    c    0.160190 *  0.706090 *  0.273440 *   4.00000    1.000000    
     16 Si    c    0.339810 *  0.293910 *  0.273440 *   4.00000    1.000000    
     17 Si    c    0.660660 *  0.294090 *  0.017440 *   4.00000    1.000000    
     18 Si    c    0.839340 *  0.705910 *  0.017440 *   4.00000    1.000000    
     19 Si    c    0.339340 *  0.294090 *  0.982560 *   4.00000    1.000000    
     20 Si    c    0.160660 *  0.705910 *  0.982560 *   4.00000    1.000000    
     21 Si    c    0.339340 *  0.705910 *  0.982560 *   4.00000    1.000000    
     22 Si    c    0.160660 *  0.294090 *  0.982560 *   4.00000    1.000000    
     23 Si    c    0.660660 *  0.705910 *  0.017440 *   4.00000    1.000000    
     24 Si    c    0.839340 *  0.294090 *  0.017440 *   4.00000    1.000000    
     25 O3    c    0.106570 *  0.174340 *  0.366200 *   1.33043    1.000000    
     26 O2    c    0.393430 *  0.825660 *  0.366200 *   0.87073    1.000000    
     27 O2    c    0.893430 *  0.174340 *  0.633800 *   0.87073    1.000000    
     28 O2    c    0.606570 *  0.825660 *  0.633800 *   0.87073    1.000000    
     29 O2    c    0.893430 *  0.825660 *  0.633800 *   0.87073    1.000000    
     30 O2    c    0.606570 *  0.174340 *  0.633800 *   0.87073    1.000000    
     31 O3    c    0.106570 *  0.825660 *  0.366200 *   1.33043    1.000000    
     32 O2    c    0.393430 *  0.174340 *  0.366200 *   0.87073    1.000000    
     33 O3    c    0.000000 *  0.000000 *  0.500000 *   1.33043    1.000000    
     34 O2    c    0.500000 *  0.000000 *  0.500000 *   0.87073    1.000000    
     35 O3    c    0.994520 *  0.000000 *  0.250840 *   1.33043    1.000000    
     36 O3    c    0.505480 *  0.000000 *  0.250840 *   1.33043    1.000000    
     37 O3    c    0.005480 *  0.000000 *  0.749160 *   1.33043    1.000000    
     38 O2    c    0.494520 *  0.000000 *  0.749160 *   0.87073    1.000000    
     39 O3    c    0.610230 *  0.175520 *  0.115390 *   1.33043    1.000000    
     40 O2    c    0.889770 *  0.824480 *  0.115390 *   0.87073    1.000000    
     41 O2    c    0.389770 *  0.175520 *  0.884610 *   0.87073    1.000000    
     42 O3    c    0.110230 *  0.824480 *  0.884610 *   1.33043    1.000000    
     43 O2    c    0.389770 *  0.824480 *  0.884610 *   0.87073    1.000000    
     44 O3    c    0.110230 *  0.175520 *  0.884610 *   1.33043    1.000000    
     45 O3    c    0.610230 *  0.824480 *  0.115390 *   1.33043    1.000000    
     46 O2    c    0.889770 *  0.175520 *  0.115390 *   0.87073    1.000000    
     47 O3    c    0.500000 *  0.000000 *  0.000000 *   1.33043    1.000000    
     48 O3    c    0.000000 *  0.000000 *  0.000000 *   1.33043    1.000000    
     49 O2    c    0.151750 *  0.500000 *  0.313330 *   0.87073    1.000000    
     50 O2    c    0.348250 *  0.500000 *  0.313330 *   0.87073    1.000000    
     51 O2    c    0.848250 *  0.500000 *  0.686670 *   0.87073    1.000000    
     52 O2    c    0.651750 *  0.500000 *  0.686670 *   0.87073    1.000000    
     53 O2    c    0.250000 *  0.234950 *  0.285720 *   0.87073    1.000000    
     54 O2    c    0.250000 *  0.765050 *  0.285720 *   0.87073    1.000000    
     55 O2    c    0.750000 *  0.234950 *  0.714280 *   0.87073    1.000000    
     56 O2    c    0.750000 *  0.765050 *  0.714280 *   0.87073    1.000000    
     57 O2    c    0.131410 *  0.268650 *  0.127790 *   0.87073    1.000000    
     58 O2    c    0.368590 *  0.731350 *  0.127790 *   0.87073    1.000000    
     59 O2    c    0.868590 *  0.268650 *  0.872210 *   0.87073    1.000000    
     60 O2    c    0.631410 *  0.731350 *  0.872210 *   0.87073    1.000000    
     61 O2    c    0.868590 *  0.731350 *  0.872210 *   0.87073    1.000000    
     62 O2    c    0.631410 *  0.268650 *  0.872210 *   0.87073    1.000000    
     63 O2    c    0.131410 *  0.731350 *  0.127790 *   0.87073    1.000000    
     64 O2    c    0.368590 *  0.268650 *  0.127790 *   0.87073    1.000000    
     65 O2    c    0.653920 *  0.500000 *  0.058200 *   0.87073    1.000000    
     66 O2    c    0.846080 *  0.500000 *  0.058200 *   0.87073    1.000000    
     67 O2    c    0.346080 *  0.500000 *  0.941800 *   0.87073    1.000000    
     68 O2    c    0.153920 *  0.500000 *  0.941800 *   0.87073    1.000000    
     69 O2    c    0.750000 *  0.231060 *  0.027050 *   0.87073    1.000000    
     70 O2    c    0.750000 *  0.768940 *  0.027050 *   0.87073    1.000000    
     71 O2    c    0.250000 *  0.231060 *  0.972950 *   0.87073    1.000000    
     72 O2    c    0.250000 *  0.768940 *  0.972950 *   0.87073    1.000000    
     73 O3    s    0.106570 *  0.174340 *  0.366200 *  -3.33043    1.000000    
     74 O2    s    0.393430 *  0.825660 *  0.366200 *  -2.87073    1.000000    
     75 O2    s    0.893430 *  0.174340 *  0.633800 *  -2.87073    1.000000    
     76 O2    s    0.606570 *  0.825660 *  0.633800 *  -2.87073    1.000000    
     77 O2    s    0.893430 *  0.825660 *  0.633800 *  -2.87073    1.000000    
     78 O2    s    0.606570 *  0.174340 *  0.633800 *  -2.87073    1.000000    
     79 O3    s    0.106570 *  0.825660 *  0.366200 *  -3.33043    1.000000    
     80 O2    s    0.393430 *  0.174340 *  0.366200 *  -2.87073    1.000000    
     81 O3    s    0.000000 *  0.000000 *  0.500000 *  -3.33043    1.000000    
     82 O2    s    0.500000 *  0.000000 *  0.500000 *  -2.87073    1.000000    
     83 O3    s    0.994520 *  0.000000 *  0.250840 *  -3.33043    1.000000    
     84 O3    s    0.505480 *  0.000000 *  0.250840 *  -3.33043    1.000000    
     85 O3    s    0.005480 *  0.000000 *  0.749160 *  -3.33043    1.000000    
     86 O2    s    0.494520 *  0.000000 *  0.749160 *  -2.87073    1.000000    
     87 O3    s    0.610230 *  0.175520 *  0.115390 *  -3.33043    1.000000    
     88 O2    s    0.889770 *  0.824480 *  0.115390 *  -2.87073    1.000000    
     89 O2    s    0.389770 *  0.175520 *  0.884610 *  -2.87073    1.000000    
     90 O3    s    0.110230 *  0.824480 *  0.884610 *  -3.33043    1.000000    
     91 O2    s    0.389770 *  0.824480 *  0.884610 *  -2.87073    1.000000    
     92 O3    s    0.110230 *  0.175520 *  0.884610 *  -3.33043    1.000000    
     93 O3    s    0.610230 *  0.824480 *  0.115390 *  -3.33043    1.000000    
     94 O2    s    0.889770 *  0.175520 *  0.115390 *  -2.87073    1.000000    
     95 O3    s    0.500000 *  0.000000 *  0.000000 *  -3.33043    1.000000    
     96 O3    s    0.000000 *  0.000000 *  0.000000 *  -3.33043    1.000000    
     97 O2    s    0.151750 *  0.500000 *  0.313330 *  -2.87073    1.000000    
     98 O2    s    0.348250 *  0.500000 *  0.313330 *  -2.87073    1.000000    
     99 O2    s    0.848250 *  0.500000 *  0.686670 *  -2.87073    1.000000    
    100 O2    s    0.651750 *  0.500000 *  0.686670 *  -2.87073    1.000000    
    101 O2    s    0.250000 *  0.234950 *  0.285720 *  -2.87073    1.000000    
    102 O2    s    0.250000 *  0.765050 *  0.285720 *  -2.87073    1.000000    
    103 O2    s    0.750000 *  0.234950 *  0.714280 *  -2.87073    1.000000    
    104 O2    s    0.750000 *  0.765050 *  0.714280 *  -2.87073    1.000000    
    105 O2    s    0.131410 *  0.268650 *  0.127790 *  -2.87073    1.000000    
    106 O2    s    0.368590 *  0.731350 *  0.127790 *  -2.87073    1.000000    
    107 O2    s    0.868590 *  0.268650 *  0.872210 *  -2.87073    1.000000    
    108 O2    s    0.631410 *  0.731350 *  0.872210 *  -2.87073    1.000000    
    109 O2    s    0.868590 *  0.731350 *  0.872210 *  -2.87073    1.000000    
    110 O2    s    0.631410 *  0.268650 *  0.872210 *  -2.87073    1.000000    
    111 O2    s    0.131410 *  0.731350 *  0.127790 *  -2.87073    1.000000    
    112 O2    s    0.368590 *  0.268650 *  0.127790 *  -2.87073    1.000000    
    113 O2    s    0.653920 *  0.500000 *  0.058200 *  -2.87073    1.000000    
    114 O2    s    0.846080 *  0.500000 *  0.058200 *  -2.87073    1.000000    
    115 O2    s    0.346080 *  0.500000 *  0.941800 *  -2.87073    1.000000    
    116 O2    s    0.153920 *  0.500000 *  0.941800 *  -2.87073    1.000000    
    117 O2    s    0.750000 *  0.231060 *  0.027050 *  -2.87073    1.000000    
    118 O2    s    0.750000 *  0.768940 *  0.027050 *  -2.87073    1.000000    
    119 O2    s    0.250000 *  0.231060 *  0.972950 *  -2.87073    1.000000    
    120 O2    s    0.250000 *  0.768940 *  0.972950 *  -2.87073    1.000000    
--------------------------------------------------------------------------------



********************************************************************************
*  General input information                                                   *
********************************************************************************

  Species output for all configurations : 

--------------------------------------------------------------------------------
  Species    Type    Atomic    Atomic    Charge       Radii (Angs)     Library
                     Number     Mass       (e)     Cova   Ionic  VDW   Symbol
--------------------------------------------------------------------------------
    Ge       Core       32      72.61   4.000000   1.170  0.000  1.750 Ge       
    Si       Core       14      28.09   4.000000   1.200  0.000  2.100 Si       
    O1       Core        8      16.00   1.733957   0.730  0.000  0.000 O1       
    O2       Core        8      16.00   0.870733   0.730  0.000  1.360 O2       
    O3       Core        8      16.00   1.330431   0.730  0.000  1.360 O3       
    O1       Shell       8       0.00  -3.733957   0.730  0.000  0.000 O1       
    O2       Shell       8       0.00  -2.870733   0.730  0.000  0.000 O2       
    O3       Shell       8       0.00  -3.330431   0.730  0.000  0.000 O3       
--------------------------------------------------------------------------------


  Lattice summation method               =    Ewald          (3-D)
                                         =    Parry          (2-D)
                                         =    Saunders et al (1-D)
  Accuracy factor for lattice sums       =   12.000


  Analytic derivatives to be used

  Time limit = Infinity

  Maximum range for interatomic potentials =    100000.000000 Angstroms

  General interatomic potentials :

--------------------------------------------------------------------------------
Atom  Types   Potential      Parameter       Value         Units   Cutoffs(Ang)
  1     2                                                            Min /  Max 
--------------------------------------------------------------------------------
Si   c O1   s Buckingham    Buckingham A     1315.2478    eV        0.000 16.000
                            Buckingham rho  0.31775900    Ang       
                            Buckingham C     10.141118    eV*Ang^6  
--------------------------------------------------------------------------------
Si   c O2   s Buckingham    Buckingham A     1315.2478    eV        0.000 16.000
                            Buckingham rho  0.31775900    Ang       
                            Buckingham C     10.141118    eV*Ang^6  
--------------------------------------------------------------------------------
Si   c O3   s Buckingham    Buckingham A     1315.2478    eV        0.000 16.000
                            Buckingham rho  0.31775900    Ang       
                            Buckingham C     10.141118    eV*Ang^6  
--------------------------------------------------------------------------------
Ge   c O1   s Buckingham    Buckingham A     1497.3996    eV        0.000 16.000
                            Buckingham rho  0.32564600    Ang       
                            Buckingham C     16.808599    eV*Ang^6  
--------------------------------------------------------------------------------
Ge   c O2   s Buckingham    Buckingham A     1497.3996    eV        0.000 16.000
                            Buckingham rho  0.32564600    Ang       
                            Buckingham C     16.808599    eV*Ang^6  
--------------------------------------------------------------------------------
Ge   c O3   s Buckingham    Buckingham A     1497.3996    eV        0.000 16.000
                            Buckingham rho  0.32564600    Ang       
                            Buckingham C     16.808599    eV*Ang^6  
--------------------------------------------------------------------------------
O1   s O1   s Buckingham    Buckingham A     22764.000    eV        0.000 16.000
                            Buckingham rho  0.14900000    Ang       
                            Buckingham C     10.937044    eV*Ang^6  
--------------------------------------------------------------------------------
O1   s O2   s Buckingham    Buckingham A     22764.000    eV        0.000 16.000
                            Buckingham rho  0.14900000    Ang       
                            Buckingham C     10.937044    eV*Ang^6  
--------------------------------------------------------------------------------
O1   s O3   s Buckingham    Buckingham A     22764.000    eV        0.000 16.000
                            Buckingham rho  0.14900000    Ang       
                            Buckingham C     10.937044    eV*Ang^6  
--------------------------------------------------------------------------------
O2   s O2   s Buckingham    Buckingham A     22764.000    eV        0.000 16.000
                            Buckingham rho  0.14900000    Ang       
                            Buckingham C     10.937044    eV*Ang^6  
--------------------------------------------------------------------------------
O2   s O3   s Buckingham    Buckingham A     22764.000    eV        0.000 16.000
                            Buckingham rho  0.14900000    Ang       
                            Buckingham C     10.937044    eV*Ang^6  
--------------------------------------------------------------------------------
O3   s O3   s Buckingham    Buckingham A     22764.000    eV        0.000 16.000
                            Buckingham rho  0.14900000    Ang       
                            Buckingham C     10.937044    eV*Ang^6  
--------------------------------------------------------------------------------
O1   c O1   s Spring (c-s)  Spring k 2       180.31577    eV*Ang^-2 0.000  0.800
                            Spring k 4       0.0000000    eV*Ang^-4 
--------------------------------------------------------------------------------
O2   c O2   s Spring (c-s)  Spring k 2       75.969800    eV*Ang^-2 0.000  0.800
                            Spring k 4       0.0000000    eV*Ang^-4 
--------------------------------------------------------------------------------
O3   c O3   s Spring (c-s)  Spring k 2       128.14270    eV*Ang^-2 0.000  0.800
                            Spring k 4       0.0000000    eV*Ang^-4 
--------------------------------------------------------------------------------

  General Three-body potentials :

--------------------------------------------------------------------------------
  Atoms       Potential      Parameter       Value         Units   Cutoffs(Ang)
  1 / 2 / 3                                                          Min /  Max 
--------------------------------------------------------------------------------
Si    core    Harmonic      Three-body cnst  1.2614000    eV*rad^-2 0.000  1.900
O1    shel                  Three-body angl  109.47000    degrees   0.000  1.900
O1    shel                  Three-body k4    0.0000000    eV*rad^-4 0.000  3.500
                            Three-body k3    0.0000000    eV*rad^-3 
--------------------------------------------------------------------------------
Si    core    Harmonic      Three-body cnst  1.2614000    eV*rad^-2 0.000  1.900
O1    shel                  Three-body angl  109.47000    degrees   0.000  1.900
õ(1   shel                  Three-body k4    0.0000000    eV*rad^-4 0.000  3.500
                            Three-body k3    0.0000000    eV*rad^-3 
--------------------------------------------------------------------------------
Si    core    Harmonic      Three-body cnst  1.2614000    eV*rad^-2 0.000  1.900
õ(1   shel                  Three-body angl  109.47000    degrees   0.000  1.900
õ(1   shel                  Three-body k4    0.0000000    eV*rad^-4 0.000  3.500
                            Three-body k3    0.0000000    eV*rad^-3 
--------------------------------------------------------------------------------
Si    core    Harmonic      Three-body cnst  1.2614000    eV*rad^-2 0.000  1.900
O1    shel                  Three-body angl  109.47000    degrees   0.000  1.900
O2    shel                  Three-body k4    0.0000000    eV*rad^-4 0.000  3.500
                            Three-body k3    0.0000000    eV*rad^-3 
--------------------------------------------------------------------------------
Si    core    Harmonic      Three-body cnst  1.2614000    eV*rad^-2 0.000  1.900
O1    shel                  Three-body angl  109.47000    degrees   0.000  1.900
õ(2   shel                  Three-body k4    0.0000000    eV*rad^-4 0.000  3.500
                            Three-body k3    0.0000000    eV*rad^-3 
--------------------------------------------------------------------------------
Si    core    Harmonic      Three-body cnst  1.2614000    eV*rad^-2 0.000  1.900
O2    shel                  Three-body angl  109.47000    degrees   0.000  1.900
õ(1   shel                  Three-body k4    0.0000000    eV*rad^-4 0.000  3.500
                            Three-body k3    0.0000000    eV*rad^-3 
--------------------------------------------------------------------------------
Si    core    Harmonic      Three-body cnst  1.2614000    eV*rad^-2 0.000  1.900
õ(1   shel                  Three-body angl  109.47000    degrees   0.000  1.900
õ(2   shel                  Three-body k4    0.0000000    eV*rad^-4 0.000  3.500
                            Three-body k3    0.0000000    eV*rad^-3 
--------------------------------------------------------------------------------
Si    core    Harmonic      Three-body cnst  1.2614000    eV*rad^-2 0.000  1.900
O2    shel                  Three-body angl  109.47000    degrees   0.000  1.900
O2    shel                  Three-body k4    0.0000000    eV*rad^-4 0.000  3.500
                            Three-body k3    0.0000000    eV*rad^-3 
--------------------------------------------------------------------------------
Si    core    Harmonic      Three-body cnst  1.2614000    eV*rad^-2 0.000  1.900
O2    shel                  Three-body angl  109.47000    degrees   0.000  1.900
õ(2   shel                  Three-body k4    0.0000000    eV*rad^-4 0.000  3.500
                            Three-body k3    0.0000000    eV*rad^-3 
--------------------------------------------------------------------------------
Si    core    Harmonic      Three-body cnst  1.2614000    eV*rad^-2 0.000  1.900
õ(2   shel                  Three-body angl  109.47000    degrees   0.000  1.900
õ(2   shel                  Three-body k4    0.0000000    eV*rad^-4 0.000  3.500
                            Three-body k3    0.0000000    eV*rad^-3 
--------------------------------------------------------------------------------

********************************************************************************
*  Output for configuration   1 : c00022.vasp                                  *
********************************************************************************


  Components of energy : 

--------------------------------------------------------------------------------
  Interatomic potentials     =         760.39759413 eV    
  Three-body potentials      =           0.00959988 eV    
  Monopole - monopole (real) =       -2676.00317478 eV    
  Monopole - monopole (recip)=       -1115.35404472 eV    
  Monopole - monopole (total)=       -3791.35721950 eV    
--------------------------------------------------------------------------------
  Total lattice energy       =       -3030.95002549 eV    
--------------------------------------------------------------------------------
  Total lattice energy       =         -292440.3451 kJ/(mole unit cells)
--------------------------------------------------------------------------------


  Number of variables =      363

  Maximum number of calculations  =          1000
  Maximum Hessian update interval =            10
  Maximum step size               =   0.100000000
  Maximum parameter tolerance     =   0.000010000
  Maximum function  tolerance     =   0.000010000
  Maximum gradient  tolerance     =   0.001000000
  Maximum gradient  component     =   0.010000000

  Symmetry not applied to optimisation

  Cell parameters to be optimised using strains

  Newton-Raphson optimiser to be used

  BFGS hessian update to be used

  Lower half triangular hessian to be used

  Minimiser to switch to RFO
  When gradient norm is less than     0.050000

  Dumpfile to be written after every cycle

  Start of bulk optimisation :

  Cycle:      0 Energy:     -3030.950025  Gnorm:      4.287912  CPU:    0.126
  ** Hessian calculated **
  Cycle:      1 Energy:     -3061.816290  Gnorm:      0.975064  CPU:    0.271
  ** Hessian calculated **
  Cycle:      2 Energy:     -3064.268687  Gnorm:      0.532473  CPU:    0.497
  Cycle:      3 Energy:     -3065.048811  Gnorm:      0.347130  CPU:    0.612
  Cycle:      4 Energy:     -3065.729813  Gnorm:      0.274553  CPU:    0.748
  Cycle:      5 Energy:     -3066.369254  Gnorm:      0.205045  CPU:    0.884
  Cycle:      6 Energy:     -3066.751671  Gnorm:      0.168476  CPU:    1.000
  Cycle:      7 Energy:     -3066.983774  Gnorm:      0.125734  CPU:    1.115
  Cycle:      8 Energy:     -3067.117004  Gnorm:      0.107328  CPU:    1.228
  Cycle:      9 Energy:     -3067.194873  Gnorm:      0.082272  CPU:    1.363
  Cycle:     10 Energy:     -3067.244861  Gnorm:      0.073796  CPU:    1.498
  Cycle:     11 Energy:     -3067.294370  Gnorm:      0.070556  CPU:    1.632
  ** Hessian calculated **
  Cycle:     12 Energy:     -3067.348713  Gnorm:      0.067347  CPU:    1.873
  Cycle:     13 Energy:     -3067.436044  Gnorm:      0.061726  CPU:    2.027
  Cycle:     14 Energy:     -3067.540284  Gnorm:      0.054031  CPU:    2.163
  Cycle:     15 Energy:     -3067.667400  Gnorm:      0.042661  CPU:    2.299
  ** Hessian has wrong structure
  ** Imaginary eigenvectors =   5
  Cycle:     16 Energy:     -3067.689963  Gnorm:      0.092346  CPU:    2.605
  ** Hessian has wrong structure
  ** Imaginary eigenvectors =   3
  ** Hessian has wrong structure
  ** Imaginary eigenvectors =   3
  Cycle:     17 Energy:     -3067.737952  Gnorm:      0.098938  CPU:    3.208
  ** Hessian has wrong structure
  ** Imaginary eigenvectors =   2
  ** Hessian has wrong structure
  ** Imaginary eigenvectors =   1
  Cycle:     18 Energy:     -3067.777780  Gnorm:      0.102488  CPU:    3.665
  ** Hessian has required structure
  Cycle:     19 Energy:     -3068.035069  Gnorm:      0.063175  CPU:    3.966
  ** Hessian has required structure
  Cycle:     20 Energy:     -3068.118986  Gnorm:      0.050781  CPU:    4.149
  ** Hessian has required structure
  Cycle:     21 Energy:     -3068.169087  Gnorm:      0.029799  CPU:    4.333
  ** Hessian has required structure
  Cycle:     22 Energy:     -3068.214893  Gnorm:      0.035814  CPU:    4.538
  ** Hessian has required structure
  Cycle:     23 Energy:     -3068.240571  Gnorm:      0.023825  CPU:    4.721
  ** Hessian has required structure
  Cycle:     24 Energy:     -3068.257302  Gnorm:      0.017128  CPU:    4.926
  ** Hessian has required structure
  Cycle:     25 Energy:     -3068.266868  Gnorm:      0.014953  CPU:    5.108
  ** Hessian has required structure
  Cycle:     26 Energy:     -3068.272878  Gnorm:      0.011318  CPU:    5.291
  ** Hessian has required structure
  Cycle:     27 Energy:     -3068.276204  Gnorm:      0.006334  CPU:    5.476
  ** Hessian has required structure
  Cycle:     28 Energy:     -3068.278171  Gnorm:      0.006448  CPU:    5.660
  ** Hessian has required structure
  Cycle:     29 Energy:     -3068.280060  Gnorm:      0.006048  CPU:    5.967
  ** Hessian has required structure
  Cycle:     30 Energy:     -3068.281141  Gnorm:      0.007308  CPU:    6.155
  ** Hessian has required structure
  Cycle:     31 Energy:     -3068.281711  Gnorm:      0.003234  CPU:    6.343
  ** Hessian has required structure
  Cycle:     32 Energy:     -3068.281808  Gnorm:      0.002341  CPU:    6.550
  ** Hessian has required structure
  Cycle:     33 Energy:     -3068.281896  Gnorm:      0.001381  CPU:    6.759
  ** Hessian has required structure
  Cycle:     34 Energy:     -3068.281945  Gnorm:      0.000798  CPU:    6.968
  ** Hessian has required structure
  Cycle:     35 Energy:     -3068.281966  Gnorm:      0.000440  CPU:    7.176
  ** Hessian has required structure
  Cycle:     36 Energy:     -3068.281974  Gnorm:      0.000243  CPU:    7.385
  ** Hessian has required structure
  Cycle:     37 Energy:     -3068.281976  Gnorm:      0.000174  CPU:    7.551
  ** Hessian has required structure
  Cycle:     38 Energy:     -3068.281977  Gnorm:      0.000124  CPU:    7.718
  ** Hessian has required structure
  Cycle:     39 Energy:     -3068.281978  Gnorm:      0.000087  CPU:    7.982
  ** Hessian has required structure
  Cycle:     40 Energy:     -3068.281978  Gnorm:      0.000061  CPU:    8.149
  ** Hessian has required structure


  **** Optimisation achieved ****


  Final energy =   -3068.28197800 eV      
  Final Gnorm  =       0.00004319

  Components of energy : 

--------------------------------------------------------------------------------
  Interatomic potentials     =         817.34012300 eV    
  Three-body potentials      =           0.23786792 eV    
  Monopole - monopole (real) =       -2210.10126294 eV    
  Monopole - monopole (recip)=       -1675.75870598 eV    
  Monopole - monopole (total)=       -3885.85996892 eV    
--------------------------------------------------------------------------------
  Total lattice energy       =       -3068.28197800 eV    
--------------------------------------------------------------------------------
  Total lattice energy       =         -296042.3079 kJ/(mole unit cells)
--------------------------------------------------------------------------------

  Final fractional coordinates of atoms :

--------------------------------------------------------------------------------
   No.  Atomic        x           y          z          Radius
        Label       (Frac)      (Frac)     (Frac)       (Angs) 
--------------------------------------------------------------------------------
     1  Ge    c     0.052090    0.000000    0.372270    0.000000
     2  Ge    c     0.563509    0.975522    0.123231    0.000000
     3  Ge    c     0.059228    0.998878    0.889246    0.000000
     4  Si    c     0.456587    0.978453    0.372956    0.000000
     5  Si    c     0.951169    0.995705    0.632844    0.000000
     6  Si    c     0.550332    0.980826    0.634524    0.000000
     7  Si    c     0.947447    0.988256    0.123183    0.000000
     8  Si    c     0.448973    0.988462    0.884440    0.000000
     9  Si    c     0.157790    0.307202    0.272978    0.000000
    10  Si    c     0.356460    0.669853    0.278311    0.000000
    11  Si    c     0.850310    0.306135    0.709995    0.000000
    12  Si    c     0.653015    0.671527    0.722061    0.000000
    13  Si    c     0.833867    0.710115    0.713753    0.000000
    14  Si    c     0.669342    0.263967    0.719355    0.000000
    15  Si    c     0.176139    0.717766    0.272271    0.000000
    16  Si    c     0.338395    0.264571    0.276167    0.000000
    17  Si    c     0.678095    0.254817    0.016012    0.000000
    18  Si    c     0.836060    0.705095    0.013134    0.000000
    19  Si    c     0.336606    0.269601    0.977262    0.000000
    20  Si    c     0.178250    0.720368    0.976924    0.000000
    21  Si    c     0.359463    0.667123    0.980568    0.000000
    22  Si    c     0.155038    0.318114    0.977829    0.000000
    23  Si    c     0.654730    0.655528    0.018629    0.000000
    24  Si    c     0.859109    0.307686    0.007977    0.000000
    25  O3    c     0.096645    0.204170    0.359234    0.000000
    26  O2    c     0.417556    0.784404    0.360883    0.000000
    27  O2    c     0.908994    0.188526    0.625435    0.000000
    28  O2    c     0.592254    0.789045    0.639521    0.000000
    29  O2    c     0.882635    0.846655    0.627629    0.000000
    30  O2    c     0.617148    0.132597    0.633989    0.000000
    31  O3    c     0.124069    0.840685    0.359372    0.000000
    32  O2    c     0.388801    0.126695    0.359263    0.000000
    33  O3    c     0.013378    0.977360    0.522574    0.000000
    34  O2    c     0.497358    0.996195    0.509558    0.000000
    35  O3    c     0.973594    0.978209    0.269138    0.000000
    36  O3    c     0.523774    0.006657    0.269997    0.000000
    37  O3    c     0.996641    0.966677    0.765581    0.000000
    38  O2    c     0.492399    0.009509    0.751738    0.000000
    39  O3    c     0.644169    0.113424    0.111185    0.000000
    40  O2    c     0.876118    0.851454    0.100936    0.000000
    41  O2    c     0.375481    0.124229    0.887023    0.000000
    42  O3    c     0.138600    0.855045    0.880789    0.000000
    43  O2    c     0.419221    0.786103    0.899331    0.000000
    44  O3    c     0.095735    0.212409    0.888986    0.000000
    45  O3    c     0.595796    0.760104    0.107046    0.000000
    46  O2    c     0.920513    0.188561    0.086785    0.000000
    47  O3    c     0.502851    0.044738    0.001945    0.000000
    48  O3    c     0.018139    0.936338    0.032569    0.000000
    49  O2    c     0.147785    0.516289    0.291237    0.000000
    50  O2    c     0.368184    0.462474    0.308040    0.000000
    51  O2    c     0.863167    0.512701    0.679364    0.000000
    52  O2    c     0.639244    0.464221    0.695873    0.000000
    53  O2    c     0.246613    0.247699    0.310653    0.000000
    54  O2    c     0.268084    0.729552    0.310976    0.000000
    55  O2    c     0.760576    0.251058    0.679416    0.000000
    56  O2    c     0.741291    0.725991    0.682468    0.000000
    57  O2    c     0.140100    0.256919    0.124925    0.000000
    58  O2    c     0.376020    0.708885    0.129847    0.000000
    59  O2    c     0.872251    0.268587    0.858121    0.000000
    60  O2    c     0.638123    0.712959    0.871160    0.000000
    61  O2    c     0.847093    0.752227    0.863592    0.000000
    62  O2    c     0.662164    0.205346    0.867362    0.000000
    63  O2    c     0.166825    0.779215    0.124644    0.000000
    64  O2    c     0.349806    0.221098    0.126641    0.000000
    65  O2    c     0.640363    0.447800    0.039672    0.000000
    66  O2    c     0.875513    0.513142    0.039501    0.000000
    67  O2    c     0.375367    0.461630    0.950476    0.000000
    68  O2    c     0.140322    0.526143    0.959653    0.000000
    69  O2    c     0.770831    0.260257    0.044830    0.000000
    70  O2    c     0.745023    0.702346    0.050852    0.000000
    71  O2    c     0.244792    0.272562    0.942741    0.000000
    72  O2    c     0.270401    0.714479    0.944862    0.000000
    73  O3    s     0.099406    0.198354    0.351315    0.000000
    74  O2    s     0.414934    0.792239    0.353046    0.000000
    75  O2    s     0.906983    0.181570    0.635217    0.000000
    76  O2    s     0.594490    0.796440    0.648013    0.000000
    77  O2    s     0.884326    0.846971    0.637594    0.000000
    78  O2    s     0.615857    0.131028    0.643488    0.000000
    79  O3    s     0.123677    0.840746    0.351126    0.000000
    80  O2    s     0.390390    0.126261    0.351345    0.000000
    81  O3    s     0.009926    0.981323    0.521674    0.000000
    82  O2    s     0.498866    0.992274    0.508366    0.000000
    83  O3    s     0.977430    0.981089    0.262494    0.000000
    84  O3    s     0.520297    0.000901    0.267593    0.000000
    85  O3    s     0.997774    0.972669    0.763397    0.000000
    86  O2    s     0.493928    0.003720    0.754064    0.000000
    87  O3    s     0.641344    0.117716    0.101777    0.000000
    88  O2    s     0.879187    0.849471    0.093288    0.000000
    89  O2    s     0.378857    0.126114    0.896830    0.000000
    90  O3    s     0.136595    0.851931    0.891700    0.000000
    91  O2    s     0.415786    0.794090    0.906741    0.000000
    92  O3    s     0.098941    0.206373    0.898136    0.000000
    93  O3    s     0.599343    0.766507    0.099115    0.000000
    94  O2    s     0.916470    0.181332    0.081695    0.000000
    95  O3    s     0.502448    0.032982    0.000145    0.000000
    96  O3    s     0.014201    0.946733    0.030245    0.000000
    97  O2    s     0.151938    0.514886    0.287202    0.000000
    98  O2    s     0.363757    0.464017    0.301463    0.000000
    99  O2    s     0.858676    0.511124    0.686291    0.000000
   100  O2    s     0.643950    0.465341    0.701187    0.000000
   101  O2    s     0.247257    0.255668    0.303069    0.000000
   102  O2    s     0.267878    0.721877    0.303402    0.000000
   103  O2    s     0.760423    0.258368    0.686934    0.000000
   104  O2    s     0.741889    0.718446    0.690047    0.000000
   105  O2    s     0.143382    0.268019    0.125195    0.000000
   106  O2    s     0.372293    0.700570    0.129804    0.000000
   107  O2    s     0.868574    0.276602    0.858333    0.000000
   108  O2    s     0.641376    0.702864    0.870582    0.000000
   109  O2    s     0.844522    0.742803    0.863576    0.000000
   110  O2    s     0.664553    0.216549    0.867029    0.000000
   111  O2    s     0.168962    0.766892    0.124957    0.000000
   112  O2    s     0.347208    0.230780    0.126843    0.000000
   113  O2    s     0.645880    0.450088    0.034900    0.000000
   114  O2    s     0.869703    0.511342    0.033434    0.000000
   115  O2    s     0.369638    0.463703    0.956496    0.000000
   116  O2    s     0.145905    0.523752    0.963450    0.000000
   117  O2    s     0.770692    0.265131    0.037454    0.000000
   118  O2    s     0.745372    0.697577    0.043198    0.000000
   119  O2    s     0.245330    0.277180    0.950366    0.000000
   120  O2    s     0.270362    0.709730    0.952388    0.000000
--------------------------------------------------------------------------------

  Final Cartesian lattice vectors (Angstroms) :

       17.017176    0.010324   -0.068466
        0.004593    7.566196    0.020820
       -0.040936    0.028461   10.448058


  Final cell parameters and derivatives :

--------------------------------------------------------------------------------
       a           17.017317 Angstrom     dE/de1(xx)     0.000462 eV/strain
       b            7.566226 Angstrom     dE/de2(yy)    -0.000681 eV/strain
       c           10.448177 Angstrom     dE/de3(zz)     0.002568 eV/strain
       alpha       89.686404 Degrees      dE/de4(yz)     0.000004 eV/strain
       beta        90.454908 Degrees      dE/de5(xz)     0.000195 eV/strain
       gamma       89.931091 Degrees      dE/de6(xy)    -0.000042 eV/strain
--------------------------------------------------------------------------------

  Primitive cell volume =          1345.210832 Angs**3

  Density of cell =      1.945112 g/cm**3

  Non-primitive cell volume =          1345.210832 Angs**3


  Final internal derivatives :

--------------------------------------------------------------------------------
   No.  Atomic          a             b             c           Radius
        Label          (eV)          (eV)          (eV)        (eV/Angs)
--------------------------------------------------------------------------------
      1 Ge    c       0.000000      0.000000      0.000000      0.000000
      2 Ge    c       0.003135     -0.000855      0.000968      0.000000
      3 Ge    c      -0.000990      0.000003     -0.000570      0.000000
      4 Si    c      -0.004899     -0.000431     -0.001247      0.000000
      5 Si    c       0.001289      0.000062     -0.000384      0.000000
      6 Si    c       0.004744     -0.000503     -0.000557      0.000000
      7 Si    c       0.001403     -0.000151     -0.000439      0.000000
      8 Si    c      -0.003655     -0.000886     -0.000805      0.000000
      9 Si    c      -0.000026      0.000131      0.000024      0.000000
     10 Si    c       0.000417     -0.000246     -0.000023      0.000000
     11 Si    c       0.000030      0.000063      0.000279      0.000000
     12 Si    c      -0.000762     -0.000005     -0.000124      0.000000
     13 Si    c       0.000094     -0.000113      0.000124      0.000000
     14 Si    c      -0.000208      0.000158     -0.000010      0.000000
     15 Si    c       0.000237     -0.000095      0.000235      0.000000
     16 Si    c      -0.000318      0.000535      0.000090      0.000000
     17 Si    c       0.001214      0.000329      0.000251      0.000000
     18 Si    c      -0.000834     -0.000311      0.000146      0.000000
     19 Si    c       0.000339      0.000290     -0.000131      0.000000
     20 Si    c       0.000748     -0.000166     -0.000165      0.000000
     21 Si    c       0.000346     -0.000267      0.000152      0.000000
     22 Si    c      -0.000083      0.000117      0.000097      0.000000
     23 Si    c      -0.000180     -0.000314      0.000048      0.000000
     24 Si    c      -0.000744      0.000137     -0.000245      0.000000
     25 O3    c      -0.000241     -0.000159      0.000192      0.000000
     26 O2    c       0.000591      0.000154      0.000169      0.000000
     27 O2    c       0.000019     -0.000086     -0.000048      0.000000
     28 O2    c      -0.000113     -0.000145     -0.000027      0.000000
     29 O2    c      -0.000205     -0.000093     -0.000040      0.000000
     30 O2    c       0.000353      0.000365     -0.000220      0.000000
     31 O3    c      -0.000497      0.000212     -0.000070      0.000000
     32 O2    c       0.000507     -0.000004      0.000455      0.000000
     33 O3    c      -0.001870      0.000019      0.000952      0.000000
     34 O2    c      -0.001929      0.000443      0.001068      0.000000
     35 O3    c       0.000754      0.000030      0.000204      0.000000
     36 O3    c       0.007294      0.000440     -0.000807      0.000000
     37 O3    c       0.002226      0.000123      0.001026      0.000000
     38 O2    c      -0.001470      0.000744      0.000613      0.000000
     39 O3    c       0.000093      0.000339      0.000146      0.000000
     40 O2    c       0.000146     -0.000104     -0.000034      0.000000
     41 O2    c      -0.000140      0.000318      0.000046      0.000000
     42 O3    c      -0.000304     -0.000010      0.000155      0.000000
     43 O2    c       0.000214     -0.000306     -0.000030      0.000000
     44 O3    c      -0.000664     -0.000588     -0.000299      0.000000
     45 O3    c       0.000224     -0.000463      0.000062      0.000000
     46 O2    c      -0.000366      0.000263      0.000044      0.000000
     47 O3    c      -0.001919      0.002446      0.000612      0.000000
     48 O3    c      -0.001969      0.000411      0.000284      0.000000
     49 O2    c       0.000144      0.000232     -0.000102      0.000000
     50 O2    c      -0.000082     -0.000353     -0.000245      0.000000
     51 O2    c      -0.000055     -0.000025      0.000188      0.000000
     52 O2    c      -0.000027     -0.000139      0.000063      0.000000
     53 O2    c       0.000801      0.000042      0.000116      0.000000
     54 O2    c      -0.000884     -0.000067      0.000028      0.000000
     55 O2    c      -0.000179      0.000046     -0.000001      0.000000
     56 O2    c       0.000528      0.000003     -0.000027      0.000000
     57 O2    c      -0.000249     -0.000074      0.000134      0.000000
     58 O2    c      -0.000085     -0.000151     -0.000170      0.000000
     59 O2    c      -0.000297      0.000137      0.000262      0.000000
     60 O2    c      -0.000213     -0.000164      0.000228      0.000000
     61 O2    c       0.000012     -0.000080      0.000109      0.000000
     62 O2    c       0.000610      0.000234     -0.000052      0.000000
     63 O2    c      -0.000098      0.000016     -0.000073      0.000000
     64 O2    c       0.000070      0.000097     -0.000064      0.000000
     65 O2    c       0.000578     -0.000351     -0.000317      0.000000
     66 O2    c      -0.000653      0.000350     -0.000460      0.000000
     67 O2    c      -0.000179     -0.000162      0.000219      0.000000
     68 O2    c       0.000095      0.000346      0.000078      0.000000
     69 O2    c      -0.001886      0.000450     -0.000248      0.000000
     70 O2    c       0.001679     -0.000235     -0.000153      0.000000
     71 O2    c       0.001759     -0.000017     -0.000145      0.000000
     72 O2    c      -0.001147     -0.000143      0.000050      0.000000
     73 O3    s      -0.000072     -0.000011      0.000014      0.000000
     74 O2    s      -0.001581     -0.000422     -0.000065      0.000000
     75 O2    s       0.000289      0.000019      0.000035      0.000000
     76 O2    s       0.001505     -0.000449     -0.000205      0.000000
     77 O2    s       0.000234      0.000011      0.000033      0.000000
     78 O2    s       0.002184      0.000283      0.000200      0.000000
     79 O3    s       0.000420     -0.000154      0.000067      0.000000
     80 O2    s      -0.002281      0.000376     -0.000417      0.000000
     81 O3    s       0.000908      0.000058     -0.000388      0.000000
     82 O2    s      -0.000549     -0.000199     -0.000186      0.000000
     83 O3    s      -0.000251     -0.000132     -0.000212      0.000000
     84 O3    s      -0.001783     -0.000173      0.000560      0.000000
     85 O3    s      -0.001044      0.000039     -0.000378      0.000000
     86 O2    s       0.000354     -0.000182     -0.000878      0.000000
     87 O3    s       0.002140      0.000346     -0.000140      0.000000
     88 O2    s      -0.000009     -0.000234      0.000018      0.000000
     89 O2    s      -0.001995      0.000194     -0.000097      0.000000
     90 O3    s      -0.000098     -0.000001      0.000141      0.000000
     91 O2    s      -0.001574     -0.000473     -0.000131      0.000000
     92 O3    s      -0.000473      0.000046     -0.000024      0.000000
     93 O3    s       0.001036     -0.000264      0.000135      0.000000
     94 O2    s       0.000082     -0.000158      0.000155      0.000000
     95 O3    s       0.000445     -0.000329      0.000395      0.000000
     96 O3    s       0.000862     -0.000050     -0.000561      0.000000
     97 O2    s      -0.000011      0.000133      0.000049      0.000000
     98 O2    s      -0.000413     -0.000070     -0.000023      0.000000
     99 O2    s      -0.000435      0.000026      0.000069      0.000000
    100 O2    s       0.000662     -0.000116      0.000153      0.000000
    101 O2    s       0.000137      0.000108     -0.000406      0.000000
    102 O2    s      -0.000198     -0.000053     -0.000232      0.000000
    103 O2    s      -0.000169      0.000212      0.000460      0.000000
    104 O2    s       0.000316     -0.000145      0.000439      0.000000
    105 O2    s       0.000135     -0.000029      0.000168      0.000000
    106 O2    s      -0.000190      0.000335      0.000099      0.000000
    107 O2    s      -0.000623      0.000065      0.000034      0.000000
    108 O2    s       0.000572      0.000147      0.000066      0.000000
    109 O2    s      -0.001130     -0.000113      0.000243      0.000000
    110 O2    s       0.000250     -0.000088      0.000315      0.000000
    111 O2    s       0.000610     -0.000110     -0.000055      0.000000
    112 O2    s      -0.000503     -0.000227      0.000279      0.000000
    113 O2    s       0.000855     -0.000227     -0.000236      0.000000
    114 O2    s      -0.000565      0.000006     -0.000114      0.000000
    115 O2    s      -0.000688     -0.000051     -0.000060      0.000000
    116 O2    s       0.000052      0.000317     -0.000101      0.000000
    117 O2    s       0.000088      0.000213     -0.000606      0.000000
    118 O2    s       0.000121     -0.000110     -0.000615      0.000000
    119 O2    s       0.000218      0.000020      0.000316      0.000000
    120 O2    s      -0.000079     -0.000092      0.000275      0.000000
--------------------------------------------------------------------------------
  Maximum abs         0.007294      0.002446      0.001247      0.000000
--------------------------------------------------------------------------------


  Born effective charge tensors : 

-------------------------------------------------------------------------------
  Atom             x           y             z
-------------------------------------------------------------------------------
    1 Ge    x       4.2941      0.1735     -0.4275
            y      -0.1329      3.8939     -0.0102
            z      -0.3975     -0.0953      4.6154
-------------------------------------------------------------------------------
    2 Ge    x       4.2119     -0.3029     -0.3461
            y       0.2470      3.9116      0.0060
            z      -0.6087      0.0839      3.8771
-------------------------------------------------------------------------------
    3 Ge    x       4.3458      0.2814      0.1599
            y      -0.2139      3.9214      0.0468
            z       0.7998      0.0904      3.6323
-------------------------------------------------------------------------------
    4 Si    x       3.6603      0.1786      0.1484
            y      -0.1281      3.2864     -0.0103
            z       0.2147      0.0249      4.0748
-------------------------------------------------------------------------------
    5 Si    x       3.8185     -0.1957     -0.1294
            y       0.1039      3.3235      0.0009
            z      -0.8177      0.0354      4.3616
-------------------------------------------------------------------------------
    6 Si    x       3.4661     -0.1432      0.1699
            y       0.1263      3.2388     -0.0105
            z       0.5271     -0.0210      3.7564
-------------------------------------------------------------------------------
    7 Si    x       3.7794     -0.2215      0.3425
            y       0.1782      3.3572      0.0169
            z       0.3706     -0.0125      3.7083
-------------------------------------------------------------------------------
    8 Si    x       3.6025      0.2602     -0.0998
            y      -0.1757      3.3252      0.0490
            z      -0.4349      0.0189      3.3048
-------------------------------------------------------------------------------
    9 Si    x       3.4597      0.3096     -0.2452
            y       0.4369      3.5228     -0.3529
            z      -0.2641     -0.1635      2.9686
-------------------------------------------------------------------------------
   10 Si    x       3.1474      0.1831      0.0677
            y       0.3062      3.4215      0.1661
            z       0.1072      0.0941      2.8243
-------------------------------------------------------------------------------
   11 Si    x       3.1756     -0.2016     -0.0601
            y      -0.2822      3.4145      0.1686
            z      -0.0709      0.0901      2.7904
-------------------------------------------------------------------------------
   12 Si    x       3.1909     -0.2110      0.0631
            y      -0.2979      3.4513     -0.1980
            z       0.0974     -0.0745      2.7775
-------------------------------------------------------------------------------
   13 Si    x       3.1810      0.2888     -0.1430
            y       0.1589      3.4465     -0.1364
            z      -0.1002     -0.0594      2.7836
-------------------------------------------------------------------------------
   14 Si    x       3.2147      0.3026      0.1410
            y       0.1812      3.4711      0.1739
            z       0.1163      0.0503      2.7601
-------------------------------------------------------------------------------
   15 Si    x       3.4110     -0.4216     -0.2766
            y      -0.3218      3.6140      0.3476
            z      -0.2603      0.1936      2.9635
-------------------------------------------------------------------------------
   16 Si    x       3.1547     -0.2775      0.1390
            y      -0.1719      3.4730     -0.1400
            z       0.1352     -0.0932      2.8230
-------------------------------------------------------------------------------
   17 Si    x       3.3165      0.4732     -0.3148
            y       0.1598      3.6410     -0.3958
            z      -0.1780     -0.2425      2.9265
-------------------------------------------------------------------------------
   18 Si    x       3.1595      0.3023      0.1633
            y       0.0563      3.4403      0.1734
            z       0.1037      0.1011      2.7359
-------------------------------------------------------------------------------
   19 Si    x       3.1860     -0.3293     -0.1891
            y      -0.0693      3.4396      0.1680
            z      -0.1157      0.0863      2.7335
-------------------------------------------------------------------------------
   20 Si    x       3.4070     -0.4851      0.3240
            y      -0.1986      3.6092     -0.3935
            z       0.2055     -0.1862      2.8637
-------------------------------------------------------------------------------
   21 Si    x       3.2230      0.2361     -0.1376
            y       0.2775      3.3901     -0.1512
            z      -0.1690     -0.0692      2.7093
-------------------------------------------------------------------------------
   22 Si    x       3.5394      0.3760      0.3290
            y       0.3999      3.4945      0.3497
            z       0.3102      0.1338      2.8362
-------------------------------------------------------------------------------
   23 Si    x       3.5049     -0.3555     -0.3384
            y      -0.4031      3.4974      0.3312
            z      -0.3358      0.1518      2.8929
-------------------------------------------------------------------------------
   24 Si    x       3.2125     -0.2267      0.1347
            y      -0.2710      3.3830     -0.1371
            z       0.1713     -0.0654      2.6960
-------------------------------------------------------------------------------
   25 O3    x      -2.0672     -0.9292      0.5753
            y      -0.8969     -2.3265      0.5366
            z       0.5757      0.5102     -1.6433
-------------------------------------------------------------------------------
   26 O2    x      -1.6105     -0.6582     -0.3543
            y      -0.6164     -2.0088     -0.3741
            z      -0.3797     -0.3767     -1.3941
-------------------------------------------------------------------------------
   27 O2    x      -1.6146      0.6586      0.2869
            y       0.6128     -2.0086     -0.2988
            z       0.3674     -0.3051     -1.3725
-------------------------------------------------------------------------------
   28 O2    x      -1.6500      0.7017     -0.3194
            y       0.6626     -2.0155      0.3354
            z      -0.3642      0.3211     -1.3462
-------------------------------------------------------------------------------
   29 O2    x      -1.7354     -0.6854      0.2839
            y      -0.7262     -1.9403      0.3231
            z       0.3432      0.2888     -1.3542
-------------------------------------------------------------------------------
   30 O2    x      -1.7819     -0.7137     -0.3197
            y      -0.7640     -1.9239     -0.3315
            z      -0.3649     -0.3075     -1.3437
-------------------------------------------------------------------------------
   31 O3    x      -2.1736      0.9463      0.5766
            y       1.0243     -2.2819     -0.5721
            z       0.6059     -0.5363     -1.6432
-------------------------------------------------------------------------------
   32 O2    x      -1.7379      0.6966     -0.3821
            y       0.7455     -1.9508      0.3864
            z      -0.4041      0.3703     -1.3791
-------------------------------------------------------------------------------
   33 O3    x      -2.0748      0.0242      1.1743
            y       0.0325     -1.2221     -0.0283
            z       1.4557     -0.0120     -3.3688
-------------------------------------------------------------------------------
   34 O2    x      -1.6144     -0.0068     -0.8272
            y       0.0004     -1.0953     -0.0052
            z      -1.0423     -0.0219     -2.7760
-------------------------------------------------------------------------------
   35 O3    x      -1.9601     -0.0167     -0.8985
            y      -0.0586     -1.2303     -0.0220
            z      -0.8889      0.0013     -2.8424
-------------------------------------------------------------------------------
   36 O3    x      -2.0959     -0.0127      0.9791
            y      -0.0423     -1.2528      0.0062
            z       0.9892     -0.0316     -2.7412
-------------------------------------------------------------------------------
   37 O3    x      -2.0730     -0.0195     -1.0159
            y      -0.0083     -1.2852     -0.0053
            z      -0.9655     -0.0108     -2.7301
-------------------------------------------------------------------------------
   38 O2    x      -1.7065     -0.0054      0.7342
            y       0.0198     -1.1324     -0.0098
            z       0.7151      0.0033     -2.2116
-------------------------------------------------------------------------------
   39 O3    x      -2.0695     -0.8906      0.5418
            y      -0.8613     -2.2807      0.6343
            z       0.4906      0.5606     -1.5765
-------------------------------------------------------------------------------
   40 O2    x      -1.7179     -0.6763     -0.4042
            y      -0.6353     -1.9276     -0.4160
            z      -0.3587     -0.3799     -1.2954
-------------------------------------------------------------------------------
   41 O2    x      -1.7439      0.6773      0.3549
            y       0.6498     -1.9003     -0.3803
            z       0.3476     -0.3470     -1.2702
-------------------------------------------------------------------------------
   42 O3    x      -2.1409      0.9163     -0.4461
            y       0.9025     -2.2484      0.5363
            z      -0.4734      0.4762     -1.5155
-------------------------------------------------------------------------------
   43 O2    x      -1.6268     -0.6484      0.3549
            y      -0.5295     -2.0342      0.3863
            z       0.3779      0.3753     -1.2499
-------------------------------------------------------------------------------
   44 O3    x      -2.0590     -0.9300     -0.5328
            y      -0.7943     -2.3578     -0.5024
            z      -0.5607     -0.4823     -1.4794
-------------------------------------------------------------------------------
   45 O3    x      -2.0038      0.8937      0.5872
            y       0.7609     -2.3661     -0.5702
            z       0.5789     -0.5461     -1.5438
-------------------------------------------------------------------------------
   46 O2    x      -1.6369      0.6246     -0.3802
            y       0.5008     -2.0357      0.4290
            z      -0.3540      0.3941     -1.2815
-------------------------------------------------------------------------------
   47 O3    x      -2.1335     -0.0248     -0.8440
            y      -0.0273     -1.3796     -0.0456
            z      -0.4818     -0.0233     -2.0445
-------------------------------------------------------------------------------
   48 O3    x      -2.2765      0.0931      0.8211
            y       0.1002     -1.3798     -0.0302
            z       0.4268      0.0177     -1.9228
-------------------------------------------------------------------------------
   49 O2    x      -1.1964     -0.0841      0.0600
            y      -0.1400     -2.5065      0.0020
            z       0.0710     -0.0167     -1.0691
-------------------------------------------------------------------------------
   50 O2    x      -1.1501     -0.0808     -0.0657
            y      -0.1482     -2.5493     -0.0148
            z      -0.0766      0.0030     -1.0781
-------------------------------------------------------------------------------
   51 O2    x      -1.1588      0.0695      0.0705
            y       0.1320     -2.5288     -0.0276
            z       0.0750     -0.0053     -1.0735
-------------------------------------------------------------------------------
   52 O2    x      -1.1663      0.0712     -0.0572
            y       0.1334     -2.5740     -0.0130
            z      -0.0669     -0.0248     -1.0482
-------------------------------------------------------------------------------
   53 O2    x      -2.3643      0.1431     -0.0231
            y       0.0824     -1.2741      0.0795
            z       0.0010      0.0510     -1.0775
-------------------------------------------------------------------------------
   54 O2    x      -2.3517      0.1277     -0.0377
            y       0.0616     -1.2632     -0.0733
            z      -0.0284     -0.0497     -1.0753
-------------------------------------------------------------------------------
   55 O2    x      -2.3907     -0.1336      0.0390
            y      -0.0742     -1.2556     -0.0649
            z       0.0412     -0.0399     -1.0577
-------------------------------------------------------------------------------
   56 O2    x      -2.3832     -0.1186      0.0436
            y      -0.0532     -1.2580      0.0712
            z       0.0026      0.0448     -1.0545
-------------------------------------------------------------------------------
   57 O2    x      -1.2541     -0.1475     -0.0402
            y      -0.1449     -1.3153      0.0083
            z      -0.0521      0.0162     -1.9920
-------------------------------------------------------------------------------
   58 O2    x      -1.2109     -0.1241      0.0434
            y      -0.1359     -1.2662     -0.0035
            z       0.0580     -0.0129     -2.0765
-------------------------------------------------------------------------------
   59 O2    x      -1.2116      0.1210     -0.0659
            y       0.1280     -1.2600     -0.0025
            z      -0.0821     -0.0216     -2.0574
-------------------------------------------------------------------------------
   60 O2    x      -1.2215      0.1350      0.0061
            y       0.1360     -1.2934      0.0339
            z       0.0186      0.0488     -2.0264
-------------------------------------------------------------------------------
   61 O2    x      -1.1637     -0.1194     -0.0450
            y      -0.0758     -1.2851      0.0279
            z      -0.0176      0.0081     -2.0683
-------------------------------------------------------------------------------
   62 O2    x      -1.1909     -0.1358     -0.0293
            y      -0.0904     -1.3148     -0.0112
            z      -0.0445      0.0105     -2.0201
-------------------------------------------------------------------------------
   63 O2    x      -1.2187      0.1434     -0.0243
            y       0.0969     -1.3412     -0.0046
            z      -0.0091      0.0112     -1.9831
-------------------------------------------------------------------------------
   64 O2    x      -1.1617      0.1219      0.0242
            y       0.0818     -1.2918      0.0231
            z       0.0116      0.0040     -2.0840
-------------------------------------------------------------------------------
   65 O2    x      -1.2604      0.0874      0.1025
            y       0.1631     -2.4140     -0.0082
            z       0.1113     -0.0192     -1.0373
-------------------------------------------------------------------------------
   66 O2    x      -1.2396      0.0952     -0.0891
            y       0.1833     -2.4770     -0.0372
            z      -0.1021     -0.0128     -1.0196
-------------------------------------------------------------------------------
   67 O2    x      -1.2333     -0.0911      0.0935
            y      -0.1833     -2.4729     -0.0234
            z       0.1066     -0.0063     -1.0216
-------------------------------------------------------------------------------
   68 O2    x      -1.2787     -0.0877     -0.0940
            y      -0.1679     -2.4180      0.0036
            z      -0.1045     -0.0057     -1.0143
-------------------------------------------------------------------------------
   69 O2    x      -2.3691     -0.1307      0.0072
            y      -0.0840     -1.2550      0.0658
            z       0.0195      0.0430     -1.0357
-------------------------------------------------------------------------------
   70 O2    x      -2.3875     -0.1617      0.0244
            y      -0.1026     -1.2596     -0.0678
            z       0.0191     -0.0370     -1.0461
-------------------------------------------------------------------------------
   71 O2    x      -2.4076      0.1601      0.0199
            y       0.1036     -1.2585     -0.0719
            z      -0.0018     -0.0335     -1.0392
-------------------------------------------------------------------------------
   72 O2    x      -2.3869      0.1313      0.0165
            y       0.0808     -1.2508      0.0649
            z       0.0081      0.0347     -1.0341
-------------------------------------------------------------------------------




  Elastic Constant Matrix: (Units=GPa)

-------------------------------------------------------------------------------
  Indices      1         2         3         4         5         6    
-------------------------------------------------------------------------------
       1     47.6897   22.0952   26.6788    1.0785    0.4843    1.1130
       2     22.0952   67.0813   22.6103    1.1181    1.4054    1.2107
       3     26.6788   22.6103   31.0128    0.2312   -1.6149    0.0381
       4      1.0785    1.1181    0.2312   11.3575    0.4579    0.5807
       5      0.4843    1.4054   -1.6149    0.4579   23.1909    0.4237
       6      1.1130    1.2107    0.0381    0.5807    0.4237   27.8849
-------------------------------------------------------------------------------


  Elastic Compliance Matrix: (Units=1/GPa)

-------------------------------------------------------------------------------
  Indices      1         2         3         4         5         6    
-------------------------------------------------------------------------------
       1    0.041016 -0.001903 -0.034032 -0.002821 -0.003030 -0.001403
       2   -0.001903  0.020011 -0.013047 -0.001405 -0.002041 -0.000715
       3   -0.034032 -0.013047  0.071343  0.002721  0.006385  0.001674
       4   -0.002821 -0.001405  0.002721  0.088539 -0.001385 -0.001653
       5   -0.003030 -0.002041  0.006385 -0.001385  0.043787 -0.000436
       6   -0.001403 -0.000715  0.001674 -0.001653 -0.000436  0.035988
-------------------------------------------------------------------------------

  Mechanical properties :

-------------------------------------------------------------------------------
  Convention :                    Reuss         Voigt         Hill
-------------------------------------------------------------------------------
  Bulk  Modulus (GPa)     =      29.06452      32.06138      30.56295
  Shear Modulus (GPa)     =      12.19170      17.44660      14.81915
-------------------------------------------------------------------------------
  Velocity S-wave (km/s)  =       2.50357       2.99490       2.76019
  Velocity P-wave (km/s)  =       4.82695       5.33313       5.08634
-------------------------------------------------------------------------------
  Compressibility (1/GPa) =    0.03440622
-------------------------------------------------------------------------------
  Stress axis :                     x             y             z
-------------------------------------------------------------------------------
  Youngs Moduli (GPa)     =      24.38059      49.97301      14.01689
-------------------------------------------------------------------------------
  Poissons Ratio (x)      =                     0.09512       0.47702
  Poissons Ratio (y)      =       0.04641                     0.18287
  Poissons Ratio (z)      =       0.82971       0.65198
-------------------------------------------------------------------------------


  Piezoelectric Strain Matrix: (Units=C/m**2)

-------------------------------------------------------------------------------
  Indices      1         2         3         4         5         6    
-------------------------------------------------------------------------------
       x    -0.05880   0.59253  -1.18754  -0.30765  -0.38662  -0.04002
       y    -0.12704  -0.16579   0.00719  -0.17474  -0.46117   0.54122
       z    -0.40317  -0.77188   1.57144  -0.00231  -0.01737   0.05458
-------------------------------------------------------------------------------


  Piezoelectric Stress Matrix: (Units=10**-11 C/N)

-------------------------------------------------------------------------------
  Indices      1         2         3         4         5         6    
-------------------------------------------------------------------------------
       x     3.89694   2.87120  -9.38240  -3.05347  -2.50989  -0.30916
       y    -0.40092  -0.23699   0.44854  -1.51167  -1.94183   2.02758
       z    -6.85634  -3.51808  13.58756   0.62265   1.20488   0.57231
-------------------------------------------------------------------------------


  Static dielectric constant tensor : 

-------------------------------------------------------------------------------
              x         y         z
-------------------------------------------------------------------------------
       x     3.99405   0.00980  -0.13373
       y     0.00980   3.99871   0.02798
       z    -0.13373   0.02798   3.54419
--------------------------------------------------------------------------------

  High frequency dielectric constant tensor : 

-------------------------------------------------------------------------------
              x         y         z
-------------------------------------------------------------------------------
       x     1.67329  -0.00005  -0.00022
       y    -0.00005   1.68292   0.00053
       z    -0.00022   0.00053   1.61319
-------------------------------------------------------------------------------

  Static refractive indices : 

-------------------------------------------------------------------------------
    1 =    1.87234      2 =    2.00009      3 =    2.00772
-------------------------------------------------------------------------------

  High frequency refractive indices : 

-------------------------------------------------------------------------------
    1 =    1.27011      2 =    1.29356      3 =    1.29727
-------------------------------------------------------------------------------


  Time to end of optimisation =       8.5285 seconds


  Peak dynamic memory used =       5.01 MB 


  Timing analysis for GULP :

--------------------------------------------------------------------------------
  Task / Subroutine                                          Time (Seconds)
--------------------------------------------------------------------------------
  Calculation of reciprocal space energy and derivatives          0.5430
  Calculation of real space energy and derivatives                5.4114
  Calculation of three-body energy and derivatives                0.4984
  Calculation and manipulation of Hessian matrix                  2.4186
  Calculation of matrix inversion                                 0.0247
  Global summation overhead                                       0.0001
--------------------------------------------------------------------------------
  Total CPU time                                                  8.5285
--------------------------------------------------------------------------------


  Dump file written as c00022.vasp.grs
  CIF file written as c00022.vasp.cif


  Job Finished at 11:29.52  7th October    2025                               

