********************************************************************************
*                       GENERAL UTILITY LATTICE PROGRAM                        *
*                                 Julian Gale                                  *
*                       Curtin Institute for Computation                       *
*                    School of Molecular and Life Sciences                     *
*                    Curtin University, Western Australia                      *
********************************************************************************
* Version = 6.1.2 * Last modified =   3rd November 2022                        *
********************************************************************************
*  optimise     - perform optimisation run                                     *
*  conp         - constant pressure calculation                                *
*  property     - calculate properties for final geometry                      *
********************************************************************************

  Job Started  at 11:32.46  7th October    2025                               

  Number of CPUs =     1


  Total number of configurations input =      1

********************************************************************************
*  Input for Configuration =   1 : c00038.vasp                                 *
********************************************************************************

  Formula = Ge3Si21O48                                                  

  Number of irreducible atoms/shells =     120


  Total number atoms/shells =     120

  Dimensionality = 3               :  Bulk   



  Cartesian lattice vectors (Angstroms) :

       17.182800    0.000000    0.000000
        0.000000    7.513760    0.000000
        0.000000    0.000000   10.447700

  Cell parameters (Angstroms/Degrees):

  a =      17.1828    alpha =  90.0000
  b =       7.5138    beta  =  90.0000
  c =      10.4477    gamma =  90.0000

  Initial cell volume =        1348.875752 Angs**3

  Temperature of configuration =   0.00     K 

  Pressure of configuration =         0.000 GPa 

  Fractional coordinates of asymmetric unit :

--------------------------------------------------------------------------------
   No.  Atomic       x           y          z         Charge      Occupancy
        Label      (Frac)      (Frac)     (Frac)        (e)         (Frac)  
--------------------------------------------------------------------------------
      1 Ge    c    0.052090    0.000000    0.372270     4.00000    1.000000    
      2 Ge    c    0.943270 *  0.000000 *  0.122130 *   4.00000    1.000000    
      3 Ge    c    0.839340 *  0.705910 *  0.017440 *   4.00000    1.000000    
      4 Si    c    0.447910 *  0.000000 *  0.372270 *   4.00000    1.000000    
      5 Si    c    0.947910 *  0.000000 *  0.627730 *   4.00000    1.000000    
      6 Si    c    0.552090 *  0.000000 *  0.627730 *   4.00000    1.000000    
      7 Si    c    0.556730 *  0.000000 *  0.122130 *   4.00000    1.000000    
      8 Si    c    0.443270 *  0.000000 *  0.877870 *   4.00000    1.000000    
      9 Si    c    0.056730 *  0.000000 *  0.877870 *   4.00000    1.000000    
     10 Si    c    0.160190 *  0.293910 *  0.273440 *   4.00000    1.000000    
     11 Si    c    0.339810 *  0.706090 *  0.273440 *   4.00000    1.000000    
     12 Si    c    0.839810 *  0.293910 *  0.726560 *   4.00000    1.000000    
     13 Si    c    0.660190 *  0.706090 *  0.726560 *   4.00000    1.000000    
     14 Si    c    0.839810 *  0.706090 *  0.726560 *   4.00000    1.000000    
     15 Si    c    0.660190 *  0.293910 *  0.726560 *   4.00000    1.000000    
     16 Si    c    0.160190 *  0.706090 *  0.273440 *   4.00000    1.000000    
     17 Si    c    0.339810 *  0.293910 *  0.273440 *   4.00000    1.000000    
     18 Si    c    0.660660 *  0.294090 *  0.017440 *   4.00000    1.000000    
     19 Si    c    0.339340 *  0.294090 *  0.982560 *   4.00000    1.000000    
     20 Si    c    0.160660 *  0.705910 *  0.982560 *   4.00000    1.000000    
     21 Si    c    0.339340 *  0.705910 *  0.982560 *   4.00000    1.000000    
     22 Si    c    0.160660 *  0.294090 *  0.982560 *   4.00000    1.000000    
     23 Si    c    0.660660 *  0.705910 *  0.017440 *   4.00000    1.000000    
     24 Si    c    0.839340 *  0.294090 *  0.017440 *   4.00000    1.000000    
     25 O3    c    0.106570 *  0.174340 *  0.366200 *   1.33043    1.000000    
     26 O2    c    0.393430 *  0.825660 *  0.366200 *   0.87073    1.000000    
     27 O2    c    0.893430 *  0.174340 *  0.633800 *   0.87073    1.000000    
     28 O2    c    0.606570 *  0.825660 *  0.633800 *   0.87073    1.000000    
     29 O2    c    0.893430 *  0.825660 *  0.633800 *   0.87073    1.000000    
     30 O2    c    0.606570 *  0.174340 *  0.633800 *   0.87073    1.000000    
     31 O3    c    0.106570 *  0.825660 *  0.366200 *   1.33043    1.000000    
     32 O2    c    0.393430 *  0.174340 *  0.366200 *   0.87073    1.000000    
     33 O3    c    0.000000 *  0.000000 *  0.500000 *   1.33043    1.000000    
     34 O2    c    0.500000 *  0.000000 *  0.500000 *   0.87073    1.000000    
     35 O1    c    0.994520 *  0.000000 *  0.250840 *   1.73396    1.000000    
     36 O2    c    0.505480 *  0.000000 *  0.250840 *   0.87073    1.000000    
     37 O2    c    0.005480 *  0.000000 *  0.749160 *   0.87073    1.000000    
     38 O2    c    0.494520 *  0.000000 *  0.749160 *   0.87073    1.000000    
     39 O2    c    0.610230 *  0.175520 *  0.115390 *   0.87073    1.000000    
     40 O1    c    0.889770 *  0.824480 *  0.115390 *   1.73396    1.000000    
     41 O2    c    0.389770 *  0.175520 *  0.884610 *   0.87073    1.000000    
     42 O2    c    0.110230 *  0.824480 *  0.884610 *   0.87073    1.000000    
     43 O2    c    0.389770 *  0.824480 *  0.884610 *   0.87073    1.000000    
     44 O2    c    0.110230 *  0.175520 *  0.884610 *   0.87073    1.000000    
     45 O2    c    0.610230 *  0.824480 *  0.115390 *   0.87073    1.000000    
     46 O3    c    0.889770 *  0.175520 *  0.115390 *   1.33043    1.000000    
     47 O2    c    0.500000 *  0.000000 *  0.000000 *   0.87073    1.000000    
     48 O3    c    0.000000 *  0.000000 *  0.000000 *   1.33043    1.000000    
     49 O2    c    0.151750 *  0.500000 *  0.313330 *   0.87073    1.000000    
     50 O2    c    0.348250 *  0.500000 *  0.313330 *   0.87073    1.000000    
     51 O2    c    0.848250 *  0.500000 *  0.686670 *   0.87073    1.000000    
     52 O2    c    0.651750 *  0.500000 *  0.686670 *   0.87073    1.000000    
     53 O2    c    0.250000 *  0.234950 *  0.285720 *   0.87073    1.000000    
     54 O2    c    0.250000 *  0.765050 *  0.285720 *   0.87073    1.000000    
     55 O2    c    0.750000 *  0.234950 *  0.714280 *   0.87073    1.000000    
     56 O2    c    0.750000 *  0.765050 *  0.714280 *   0.87073    1.000000    
     57 O2    c    0.131410 *  0.268650 *  0.127790 *   0.87073    1.000000    
     58 O2    c    0.368590 *  0.731350 *  0.127790 *   0.87073    1.000000    
     59 O2    c    0.868590 *  0.268650 *  0.872210 *   0.87073    1.000000    
     60 O2    c    0.631410 *  0.731350 *  0.872210 *   0.87073    1.000000    
     61 O3    c    0.868590 *  0.731350 *  0.872210 *   1.33043    1.000000    
     62 O2    c    0.631410 *  0.268650 *  0.872210 *   0.87073    1.000000    
     63 O2    c    0.131410 *  0.731350 *  0.127790 *   0.87073    1.000000    
     64 O2    c    0.368590 *  0.268650 *  0.127790 *   0.87073    1.000000    
     65 O2    c    0.653920 *  0.500000 *  0.058200 *   0.87073    1.000000    
     66 O3    c    0.846080 *  0.500000 *  0.058200 *   1.33043    1.000000    
     67 O2    c    0.346080 *  0.500000 *  0.941800 *   0.87073    1.000000    
     68 O2    c    0.153920 *  0.500000 *  0.941800 *   0.87073    1.000000    
     69 O2    c    0.750000 *  0.231060 *  0.027050 *   0.87073    1.000000    
     70 O3    c    0.750000 *  0.768940 *  0.027050 *   1.33043    1.000000    
     71 O2    c    0.250000 *  0.231060 *  0.972950 *   0.87073    1.000000    
     72 O2    c    0.250000 *  0.768940 *  0.972950 *   0.87073    1.000000    
     73 O3    s    0.106570 *  0.174340 *  0.366200 *  -3.33043    1.000000    
     74 O2    s    0.393430 *  0.825660 *  0.366200 *  -2.87073    1.000000    
     75 O2    s    0.893430 *  0.174340 *  0.633800 *  -2.87073    1.000000    
     76 O2    s    0.606570 *  0.825660 *  0.633800 *  -2.87073    1.000000    
     77 O2    s    0.893430 *  0.825660 *  0.633800 *  -2.87073    1.000000    
     78 O2    s    0.606570 *  0.174340 *  0.633800 *  -2.87073    1.000000    
     79 O3    s    0.106570 *  0.825660 *  0.366200 *  -3.33043    1.000000    
     80 O2    s    0.393430 *  0.174340 *  0.366200 *  -2.87073    1.000000    
     81 O3    s    0.000000 *  0.000000 *  0.500000 *  -3.33043    1.000000    
     82 O2    s    0.500000 *  0.000000 *  0.500000 *  -2.87073    1.000000    
     83 O1    s    0.994520 *  0.000000 *  0.250840 *  -3.73396    1.000000    
     84 O2    s    0.505480 *  0.000000 *  0.250840 *  -2.87073    1.000000    
     85 O2    s    0.005480 *  0.000000 *  0.749160 *  -2.87073    1.000000    
     86 O2    s    0.494520 *  0.000000 *  0.749160 *  -2.87073    1.000000    
     87 O2    s    0.610230 *  0.175520 *  0.115390 *  -2.87073    1.000000    
     88 O1    s    0.889770 *  0.824480 *  0.115390 *  -3.73396    1.000000    
     89 O2    s    0.389770 *  0.175520 *  0.884610 *  -2.87073    1.000000    
     90 O2    s    0.110230 *  0.824480 *  0.884610 *  -2.87073    1.000000    
     91 O2    s    0.389770 *  0.824480 *  0.884610 *  -2.87073    1.000000    
     92 O2    s    0.110230 *  0.175520 *  0.884610 *  -2.87073    1.000000    
     93 O2    s    0.610230 *  0.824480 *  0.115390 *  -2.87073    1.000000    
     94 O3    s    0.889770 *  0.175520 *  0.115390 *  -3.33043    1.000000    
     95 O2    s    0.500000 *  0.000000 *  0.000000 *  -2.87073    1.000000    
     96 O3    s    0.000000 *  0.000000 *  0.000000 *  -3.33043    1.000000    
     97 O2    s    0.151750 *  0.500000 *  0.313330 *  -2.87073    1.000000    
     98 O2    s    0.348250 *  0.500000 *  0.313330 *  -2.87073    1.000000    
     99 O2    s    0.848250 *  0.500000 *  0.686670 *  -2.87073    1.000000    
    100 O2    s    0.651750 *  0.500000 *  0.686670 *  -2.87073    1.000000    
    101 O2    s    0.250000 *  0.234950 *  0.285720 *  -2.87073    1.000000    
    102 O2    s    0.250000 *  0.765050 *  0.285720 *  -2.87073    1.000000    
    103 O2    s    0.750000 *  0.234950 *  0.714280 *  -2.87073    1.000000    
    104 O2    s    0.750000 *  0.765050 *  0.714280 *  -2.87073    1.000000    
    105 O2    s    0.131410 *  0.268650 *  0.127790 *  -2.87073    1.000000    
    106 O2    s    0.368590 *  0.731350 *  0.127790 *  -2.87073    1.000000    
    107 O2    s    0.868590 *  0.268650 *  0.872210 *  -2.87073    1.000000    
    108 O2    s    0.631410 *  0.731350 *  0.872210 *  -2.87073    1.000000    
    109 O3    s    0.868590 *  0.731350 *  0.872210 *  -3.33043    1.000000    
    110 O2    s    0.631410 *  0.268650 *  0.872210 *  -2.87073    1.000000    
    111 O2    s    0.131410 *  0.731350 *  0.127790 *  -2.87073    1.000000    
    112 O2    s    0.368590 *  0.268650 *  0.127790 *  -2.87073    1.000000    
    113 O2    s    0.653920 *  0.500000 *  0.058200 *  -2.87073    1.000000    
    114 O3    s    0.846080 *  0.500000 *  0.058200 *  -3.33043    1.000000    
    115 O2    s    0.346080 *  0.500000 *  0.941800 *  -2.87073    1.000000    
    116 O2    s    0.153920 *  0.500000 *  0.941800 *  -2.87073    1.000000    
    117 O2    s    0.750000 *  0.231060 *  0.027050 *  -2.87073    1.000000    
    118 O3    s    0.750000 *  0.768940 *  0.027050 *  -3.33043    1.000000    
    119 O2    s    0.250000 *  0.231060 *  0.972950 *  -2.87073    1.000000    
    120 O2    s    0.250000 *  0.768940 *  0.972950 *  -2.87073    1.000000    
--------------------------------------------------------------------------------



********************************************************************************
*  General input information                                                   *
********************************************************************************

  Species output for all configurations : 

--------------------------------------------------------------------------------
  Species    Type    Atomic    Atomic    Charge       Radii (Angs)     Library
                     Number     Mass       (e)     Cova   Ionic  VDW   Symbol
--------------------------------------------------------------------------------
    Ge       Core       32      72.61   4.000000   1.170  0.000  1.750 Ge       
    Si       Core       14      28.09   4.000000   1.200  0.000  2.100 Si       
    O1       Core        8      16.00   1.733957   0.730  0.000  1.360 O1       
    O2       Core        8      16.00   0.870733   0.730  0.000  1.360 O2       
    O3       Core        8      16.00   1.330431   0.730  0.000  1.360 O3       
    O1       Shell       8       0.00  -3.733957   0.730  0.000  0.000 O1       
    O2       Shell       8       0.00  -2.870733   0.730  0.000  0.000 O2       
    O3       Shell       8       0.00  -3.330431   0.730  0.000  0.000 O3       
--------------------------------------------------------------------------------


  Lattice summation method               =    Ewald          (3-D)
                                         =    Parry          (2-D)
                                         =    Saunders et al (1-D)
  Accuracy factor for lattice sums       =   12.000


  Analytic derivatives to be used

  Time limit = Infinity

  Maximum range for interatomic potentials =    100000.000000 Angstroms

  General interatomic potentials :

--------------------------------------------------------------------------------
Atom  Types   Potential      Parameter       Value         Units   Cutoffs(Ang)
  1     2                                                            Min /  Max 
--------------------------------------------------------------------------------
Si   c O1   s Buckingham    Buckingham A     1315.2478    eV        0.000 16.000
                            Buckingham rho  0.31775900    Ang       
                            Buckingham C     10.141118    eV*Ang^6  
--------------------------------------------------------------------------------
Si   c O2   s Buckingham    Buckingham A     1315.2478    eV        0.000 16.000
                            Buckingham rho  0.31775900    Ang       
                            Buckingham C     10.141118    eV*Ang^6  
--------------------------------------------------------------------------------
Si   c O3   s Buckingham    Buckingham A     1315.2478    eV        0.000 16.000
                            Buckingham rho  0.31775900    Ang       
                            Buckingham C     10.141118    eV*Ang^6  
--------------------------------------------------------------------------------
Ge   c O1   s Buckingham    Buckingham A     1497.3996    eV        0.000 16.000
                            Buckingham rho  0.32564600    Ang       
                            Buckingham C     16.808599    eV*Ang^6  
--------------------------------------------------------------------------------
Ge   c O2   s Buckingham    Buckingham A     1497.3996    eV        0.000 16.000
                            Buckingham rho  0.32564600    Ang       
                            Buckingham C     16.808599    eV*Ang^6  
--------------------------------------------------------------------------------
Ge   c O3   s Buckingham    Buckingham A     1497.3996    eV        0.000 16.000
                            Buckingham rho  0.32564600    Ang       
                            Buckingham C     16.808599    eV*Ang^6  
--------------------------------------------------------------------------------
O1   s O1   s Buckingham    Buckingham A     22764.000    eV        0.000 16.000
                            Buckingham rho  0.14900000    Ang       
                            Buckingham C     10.937044    eV*Ang^6  
--------------------------------------------------------------------------------
O1   s O2   s Buckingham    Buckingham A     22764.000    eV        0.000 16.000
                            Buckingham rho  0.14900000    Ang       
                            Buckingham C     10.937044    eV*Ang^6  
--------------------------------------------------------------------------------
O1   s O3   s Buckingham    Buckingham A     22764.000    eV        0.000 16.000
                            Buckingham rho  0.14900000    Ang       
                            Buckingham C     10.937044    eV*Ang^6  
--------------------------------------------------------------------------------
O2   s O2   s Buckingham    Buckingham A     22764.000    eV        0.000 16.000
                            Buckingham rho  0.14900000    Ang       
                            Buckingham C     10.937044    eV*Ang^6  
--------------------------------------------------------------------------------
O2   s O3   s Buckingham    Buckingham A     22764.000    eV        0.000 16.000
                            Buckingham rho  0.14900000    Ang       
                            Buckingham C     10.937044    eV*Ang^6  
--------------------------------------------------------------------------------
O3   s O3   s Buckingham    Buckingham A     22764.000    eV        0.000 16.000
                            Buckingham rho  0.14900000    Ang       
                            Buckingham C     10.937044    eV*Ang^6  
--------------------------------------------------------------------------------
O1   c O1   s Spring (c-s)  Spring k 2       180.31577    eV*Ang^-2 0.000  0.800
                            Spring k 4       0.0000000    eV*Ang^-4 
--------------------------------------------------------------------------------
O2   c O2   s Spring (c-s)  Spring k 2       75.969800    eV*Ang^-2 0.000  0.800
                            Spring k 4       0.0000000    eV*Ang^-4 
--------------------------------------------------------------------------------
O3   c O3   s Spring (c-s)  Spring k 2       128.14270    eV*Ang^-2 0.000  0.800
                            Spring k 4       0.0000000    eV*Ang^-4 
--------------------------------------------------------------------------------

  General Three-body potentials :

--------------------------------------------------------------------------------
  Atoms       Potential      Parameter       Value         Units   Cutoffs(Ang)
  1 / 2 / 3                                                          Min /  Max 
--------------------------------------------------------------------------------
Si    core    Harmonic      Three-body cnst  1.2614000    eV*rad^-2 0.000  1.900
O1    shel                  Three-body angl  109.47000    degrees   0.000  1.900
O1    shel                  Three-body k4    0.0000000    eV*rad^-4 0.000  3.500
                            Three-body k3    0.0000000    eV*rad^-3 
--------------------------------------------------------------------------------
Si    core    Harmonic      Three-body cnst  1.2614000    eV*rad^-2 0.000  1.900
O1    shel                  Three-body angl  109.47000    degrees   0.000  1.900
õ(1   shel                  Three-body k4    0.0000000    eV*rad^-4 0.000  3.500
                            Three-body k3    0.0000000    eV*rad^-3 
--------------------------------------------------------------------------------
Si    core    Harmonic      Three-body cnst  1.2614000    eV*rad^-2 0.000  1.900
õ(1   shel                  Three-body angl  109.47000    degrees   0.000  1.900
õ(1   shel                  Three-body k4    0.0000000    eV*rad^-4 0.000  3.500
                            Three-body k3    0.0000000    eV*rad^-3 
--------------------------------------------------------------------------------
Si    core    Harmonic      Three-body cnst  1.2614000    eV*rad^-2 0.000  1.900
O1    shel                  Three-body angl  109.47000    degrees   0.000  1.900
O2    shel                  Three-body k4    0.0000000    eV*rad^-4 0.000  3.500
                            Three-body k3    0.0000000    eV*rad^-3 
--------------------------------------------------------------------------------
Si    core    Harmonic      Three-body cnst  1.2614000    eV*rad^-2 0.000  1.900
O1    shel                  Three-body angl  109.47000    degrees   0.000  1.900
õ(2   shel                  Three-body k4    0.0000000    eV*rad^-4 0.000  3.500
                            Three-body k3    0.0000000    eV*rad^-3 
--------------------------------------------------------------------------------
Si    core    Harmonic      Three-body cnst  1.2614000    eV*rad^-2 0.000  1.900
O2    shel                  Three-body angl  109.47000    degrees   0.000  1.900
õ(1   shel                  Three-body k4    0.0000000    eV*rad^-4 0.000  3.500
                            Three-body k3    0.0000000    eV*rad^-3 
--------------------------------------------------------------------------------
Si    core    Harmonic      Three-body cnst  1.2614000    eV*rad^-2 0.000  1.900
õ(1   shel                  Three-body angl  109.47000    degrees   0.000  1.900
õ(2   shel                  Three-body k4    0.0000000    eV*rad^-4 0.000  3.500
                            Three-body k3    0.0000000    eV*rad^-3 
--------------------------------------------------------------------------------
Si    core    Harmonic      Three-body cnst  1.2614000    eV*rad^-2 0.000  1.900
O2    shel                  Three-body angl  109.47000    degrees   0.000  1.900
O2    shel                  Three-body k4    0.0000000    eV*rad^-4 0.000  3.500
                            Three-body k3    0.0000000    eV*rad^-3 
--------------------------------------------------------------------------------
Si    core    Harmonic      Three-body cnst  1.2614000    eV*rad^-2 0.000  1.900
O2    shel                  Three-body angl  109.47000    degrees   0.000  1.900
õ(2   shel                  Three-body k4    0.0000000    eV*rad^-4 0.000  3.500
                            Three-body k3    0.0000000    eV*rad^-3 
--------------------------------------------------------------------------------
Si    core    Harmonic      Three-body cnst  1.2614000    eV*rad^-2 0.000  1.900
õ(2   shel                  Three-body angl  109.47000    degrees   0.000  1.900
õ(2   shel                  Three-body k4    0.0000000    eV*rad^-4 0.000  3.500
                            Three-body k3    0.0000000    eV*rad^-3 
--------------------------------------------------------------------------------

********************************************************************************
*  Output for configuration   1 : c00038.vasp                                  *
********************************************************************************


  Components of energy : 

--------------------------------------------------------------------------------
  Interatomic potentials     =         760.36645445 eV    
  Three-body potentials      =           0.01374946 eV    
  Monopole - monopole (real) =       -2676.00317478 eV    
  Monopole - monopole (recip)=       -1115.35404472 eV    
  Monopole - monopole (total)=       -3791.35721950 eV    
--------------------------------------------------------------------------------
  Total lattice energy       =       -3030.97701559 eV    
--------------------------------------------------------------------------------
  Total lattice energy       =         -292442.9493 kJ/(mole unit cells)
--------------------------------------------------------------------------------


  Number of variables =      363

  Maximum number of calculations  =          1000
  Maximum Hessian update interval =            10
  Maximum step size               =   0.100000000
  Maximum parameter tolerance     =   0.000010000
  Maximum function  tolerance     =   0.000010000
  Maximum gradient  tolerance     =   0.001000000
  Maximum gradient  component     =   0.010000000

  Symmetry not applied to optimisation

  Cell parameters to be optimised using strains

  Newton-Raphson optimiser to be used

  BFGS hessian update to be used

  Lower half triangular hessian to be used

  Minimiser to switch to RFO
  When gradient norm is less than     0.050000

  Dumpfile to be written after every cycle

  Start of bulk optimisation :

  Cycle:      0 Energy:     -3030.977016  Gnorm:      4.334268  CPU:    0.115
  ** Hessian calculated **
  Cycle:      1 Energy:     -3061.638503  Gnorm:      0.940406  CPU:    0.245
  ** Hessian calculated **
  Cycle:      2 Energy:     -3064.018031  Gnorm:      0.502126  CPU:    0.444
  Cycle:      3 Energy:     -3064.702829  Gnorm:      0.312859  CPU:    0.549
  Cycle:      4 Energy:     -3065.242957  Gnorm:      0.253803  CPU:    0.673
  Cycle:      5 Energy:     -3065.794881  Gnorm:      0.204621  CPU:    0.796
  Cycle:      6 Energy:     -3066.259613  Gnorm:      0.181896  CPU:    0.919
  Cycle:      7 Energy:     -3066.474166  Gnorm:      0.133019  CPU:    1.022
  Cycle:      8 Energy:     -3066.598493  Gnorm:      0.101033  CPU:    1.127
  Cycle:      9 Energy:     -3066.657075  Gnorm:      0.075119  CPU:    1.229
  Cycle:     10 Energy:     -3066.705507  Gnorm:      0.065390  CPU:    1.351
  Cycle:     11 Energy:     -3066.748092  Gnorm:      0.066078  CPU:    1.473
  ** Hessian calculated **
  Cycle:     12 Energy:     -3066.792703  Gnorm:      0.064032  CPU:    1.690
  Cycle:     13 Energy:     -3066.864804  Gnorm:      0.060574  CPU:    1.830
  Cycle:     14 Energy:     -3066.950463  Gnorm:      0.056155  CPU:    1.952
  Cycle:     15 Energy:     -3067.080047  Gnorm:      0.048736  CPU:    2.094
  ** Hessian has wrong structure
  ** Imaginary eigenvectors =   4
  Cycle:     16 Energy:     -3067.148331  Gnorm:      0.103145  CPU:    2.410
  ** Hessian has wrong structure
  ** Imaginary eigenvectors =   3
  Cycle:     17 Energy:     -3067.183866  Gnorm:      0.103056  CPU:    2.879
  ** Hessian has wrong structure
  ** Imaginary eigenvectors =   2
  Cycle:     18 Energy:     -3067.248537  Gnorm:      0.120375  CPU:    3.268
  ** Hessian has wrong structure
  ** Imaginary eigenvectors =   1
  ** Hessian has required structure
  Cycle:     19 Energy:     -3067.600966  Gnorm:      0.073175  CPU:    3.797
  ** Hessian has required structure
  Cycle:     20 Energy:     -3067.708753  Gnorm:      0.040877  CPU:    3.959
  ** Hessian has required structure
  Cycle:     21 Energy:     -3067.752581  Gnorm:      0.059595  CPU:    4.132
  ** Hessian has required structure
  Cycle:     22 Energy:     -3067.808751  Gnorm:      0.048028  CPU:    4.260
  ** Hessian has required structure
  Cycle:     23 Energy:     -3067.844186  Gnorm:      0.033137  CPU:    4.410
  ** Hessian has required structure
  Cycle:     24 Energy:     -3067.873869  Gnorm:      0.031796  CPU:    4.583
  ** Hessian has required structure
  Cycle:     25 Energy:     -3067.893210  Gnorm:      0.037307  CPU:    4.731
  ** Hessian has required structure
  Cycle:     26 Energy:     -3067.910312  Gnorm:      0.032488  CPU:    4.859
  ** Hessian has required structure
  Cycle:     27 Energy:     -3067.918921  Gnorm:      0.027254  CPU:    5.004
  ** Hessian has required structure
  Cycle:     28 Energy:     -3067.926649  Gnorm:      0.026016  CPU:    5.150
  ** Hessian has required structure
  Cycle:     29 Energy:     -3067.948918  Gnorm:      0.022314  CPU:    5.397
  ** Hessian has required structure
  Cycle:     30 Energy:     -3067.966652  Gnorm:      0.022173  CPU:    5.541
  ** Hessian has required structure
  Cycle:     31 Energy:     -3067.975204  Gnorm:      0.014329  CPU:    5.687
  ** Hessian has required structure
  Cycle:     32 Energy:     -3067.978665  Gnorm:      0.015728  CPU:    5.836
  ** Hessian has required structure
  Cycle:     33 Energy:     -3067.982084  Gnorm:      0.009095  CPU:    5.983
  ** Hessian has required structure
  Cycle:     34 Energy:     -3067.983268  Gnorm:      0.006721  CPU:    6.147
  ** Hessian has required structure
  Cycle:     35 Energy:     -3067.984265  Gnorm:      0.004979  CPU:    6.310
  ** Hessian has required structure
  Cycle:     36 Energy:     -3067.985182  Gnorm:      0.004148  CPU:    6.474
  ** Hessian has required structure
  Cycle:     37 Energy:     -3067.985752  Gnorm:      0.003931  CPU:    6.622
  ** Hessian has required structure
  Cycle:     38 Energy:     -3067.986261  Gnorm:      0.002691  CPU:    6.770
  ** Hessian has required structure
  Cycle:     39 Energy:     -3067.986764  Gnorm:      0.001436  CPU:    7.013
  ** Hessian has required structure
  Cycle:     40 Energy:     -3067.986916  Gnorm:      0.000827  CPU:    7.180
  ** Hessian has required structure
  Cycle:     41 Energy:     -3067.986960  Gnorm:      0.000521  CPU:    7.332
  ** Hessian has required structure
  Cycle:     42 Energy:     -3067.986978  Gnorm:      0.000329  CPU:    7.481
  ** Hessian has required structure
  Cycle:     43 Energy:     -3067.986989  Gnorm:      0.000172  CPU:    7.649
  ** Hessian has required structure
  Cycle:     44 Energy:     -3067.986989  Gnorm:      0.000155  CPU:    7.782
  ** Hessian has required structure
  Cycle:     45 Energy:     -3067.986989  Gnorm:      0.000151  CPU:    7.915
  ** Hessian has required structure
  Cycle:     46 Energy:     -3067.986989  Gnorm:      0.000150  CPU:    8.048
  ** Hessian has required structure
  Cycle:     47 Energy:     -3067.986989  Gnorm:      0.000150  CPU:    8.237
  ** Hessian has required structure
  Cycle:     48 Energy:     -3067.986989  Gnorm:      0.000150  CPU:    8.418
  ** Hessian has required structure
  Cycle:     49 Energy:     -3067.986989  Gnorm:      0.000150  CPU:    8.698
  ** Hessian calculated **


  **** Optimisation achieved ****


  Final energy =   -3067.98698949 eV      
  Final Gnorm  =       0.00015010

  Components of energy : 

--------------------------------------------------------------------------------
  Interatomic potentials     =         816.67926404 eV    
  Three-body potentials      =           0.25106465 eV    
  Monopole - monopole (real) =       -2204.86831112 eV    
  Monopole - monopole (recip)=       -1680.04900706 eV    
  Monopole - monopole (total)=       -3884.91731818 eV    
--------------------------------------------------------------------------------
  Total lattice energy       =       -3067.98698949 eV    
--------------------------------------------------------------------------------
  Total lattice energy       =         -296013.8460 kJ/(mole unit cells)
--------------------------------------------------------------------------------

  Final fractional coordinates of atoms :

--------------------------------------------------------------------------------
   No.  Atomic        x           y          z          Radius
        Label       (Frac)      (Frac)     (Frac)       (Angs) 
--------------------------------------------------------------------------------
     1  Ge    c     0.052090    0.000000    0.372270    0.000000
     2  Ge    c     0.943798    0.982176    0.111919    0.000000
     3  Ge    c     0.848076    0.654781    0.034972    0.000000
     4  Si    c     0.452431    0.005957    0.365295    0.000000
     5  Si    c     0.946174    0.990287    0.626956    0.000000
     6  Si    c     0.546384    0.010982    0.630195    0.000000
     7  Si    c     0.551742    0.001128    0.111894    0.000000
     8  Si    c     0.437210    0.004553    0.874757    0.000000
     9  Si    c     0.052125    0.002976    0.870432    0.000000
    10  Si    c     0.170465    0.281075    0.284612    0.000000
    11  Si    c     0.336176    0.720943    0.274600    0.000000
    12  Si    c     0.827847    0.277448    0.722321    0.000000
    13  Si    c     0.665563    0.720931    0.721542    0.000000
    14  Si    c     0.844121    0.685237    0.726960    0.000000
    15  Si    c     0.649234    0.316953    0.714407    0.000000
    16  Si    c     0.155666    0.688974    0.284566    0.000000
    17  Si    c     0.350825    0.316373    0.275541    0.000000
    18  Si    c     0.643053    0.318777    0.016341    0.000000
    19  Si    c     0.344112    0.319129    0.974394    0.000000
    20  Si    c     0.147360    0.689601    0.984834    0.000000
    21  Si    c     0.328241    0.719824    0.972341    0.000000
    22  Si    c     0.163018    0.284635    0.984220    0.000000
    23  Si    c     0.665545    0.712051    0.025930    0.000000
    24  Si    c     0.821921    0.254802    0.025133    0.000000
    25  O3    c     0.124912    0.157533    0.382029    0.000000
    26  O2    c     0.386580    0.854917    0.359569    0.000000
    27  O2    c     0.882467    0.146396    0.642161    0.000000
    28  O2    c     0.612677    0.860096    0.642701    0.000000
    29  O2    c     0.905018    0.800719    0.644522    0.000000
    30  O2    c     0.588274    0.201470    0.631719    0.000000
    31  O3    c     0.098170    0.795818    0.374755    0.000000
    32  O2    c     0.410708    0.197608    0.359539    0.000000
    33  O3    c     0.979906    0.005169    0.484944    0.000000
    34  O2    c     0.500969    0.987009    0.496548    0.000000
    35  O1    c     0.004156    0.048138    0.230604    0.000000
    36  O2    c     0.511776    0.980483    0.248975    0.000000
    37  O2    c     0.021142    0.010229    0.722758    0.000000
    38  O2    c     0.482838    0.991904    0.742008    0.000000
    39  O2    c     0.584308    0.199298    0.098029    0.000000
    40  O1    c     0.916039    0.766452    0.123866    0.000000
    41  O2    c     0.398971    0.199362    0.885285    0.000000
    42  O2    c     0.087520    0.807112    0.900122    0.000000
    43  O2    c     0.369017    0.858197    0.877086    0.000000
    44  O2    c     0.118466    0.151296    0.890201    0.000000
    45  O2    c     0.621699    0.859511    0.108339    0.000000
    46  O3    c     0.855004    0.096784    0.109191    0.000000
    47  O2    c     0.492961    0.957995    0.995341    0.000000
    48  O3    c     0.981694    0.041852    0.963464    0.000000
    49  O2    c     0.143346    0.482059    0.307388    0.000000
    50  O2    c     0.365284    0.521800    0.305116    0.000000
    51  O2    c     0.859254    0.476641    0.703983    0.000000
    52  O2    c     0.634065    0.524839    0.690491    0.000000
    53  O2    c     0.262918    0.263667    0.311941    0.000000
    54  O2    c     0.245477    0.741631    0.312427    0.000000
    55  O2    c     0.737740    0.267567    0.673215    0.000000
    56  O2    c     0.755952    0.735194    0.679460    0.000000
    57  O2    c     0.152561    0.228091    0.134599    0.000000
    58  O2    c     0.345396    0.765569    0.122409    0.000000
    59  O2    c     0.829769    0.219073    0.871609    0.000000
    60  O2    c     0.662962    0.763419    0.873813    0.000000
    61  O3    c     0.857711    0.727911    0.876215    0.000000
    62  O2    c     0.634495    0.270403    0.864889    0.000000
    63  O2    c     0.133077    0.739797    0.135054    0.000000
    64  O2    c     0.365096    0.277198    0.124130    0.000000
    65  O2    c     0.622295    0.523062    0.042171    0.000000
    66  O3    c     0.867921    0.434449    0.055367    0.000000
    67  O2    c     0.359984    0.523648    0.941444    0.000000
    68  O2    c     0.129570    0.483199    0.962200    0.000000
    69  O2    c     0.731650    0.284131    0.061777    0.000000
    70  O3    c     0.752862    0.699994    0.078714    0.000000
    71  O2    c     0.253732    0.276003    0.946927    0.000000
    72  O2    c     0.235709    0.731448    0.944957    0.000000
    73  O3    s     0.123858    0.157939    0.371173    0.000000
    74  O2    s     0.387961    0.856060    0.350567    0.000000
    75  O2    s     0.883176    0.144300    0.649538    0.000000
    76  O2    s     0.611437    0.860841    0.650309    0.000000
    77  O2    s     0.902840    0.808404    0.651491    0.000000
    78  O2    s     0.590482    0.193902    0.640552    0.000000
    79  O3    s     0.100489    0.800973    0.365187    0.000000
    80  O2    s     0.408504    0.190352    0.350836    0.000000
    81  O3    s     0.982672    0.003087    0.490251    0.000000
    82  O2    s     0.500561    0.992096    0.496752    0.000000
    83  O1    s     0.002735    0.038522    0.231671    0.000000
    84  O2    s     0.509618    0.985874    0.246168    0.000000
    85  O2    s     0.016732    0.007354    0.728760    0.000000
    86  O2    s     0.484647    0.995546    0.745052    0.000000
    87  O2    s     0.587337    0.191365    0.090369    0.000000
    88  O1    s     0.912953    0.774301    0.116202    0.000000
    89  O2    s     0.396964    0.191951    0.894054    0.000000
    90  O2    s     0.090530    0.814146    0.906550    0.000000
    91  O2    s     0.371713    0.858354    0.887459    0.000000
    92  O2    s     0.116432    0.150455    0.898672    0.000000
    93  O2    s     0.618907    0.858617    0.099383    0.000000
    94  O3    s     0.858221    0.104946    0.100358    0.000000
    95  O2    s     0.493285    0.968064    0.994835    0.000000
    96  O3    s     0.986182    0.032969    0.965462    0.000000
    97  O2    s     0.147653    0.483366    0.302377    0.000000
    98  O2    s     0.360587    0.520785    0.298641    0.000000
    99  O2    s     0.854346    0.477447    0.708283    0.000000
   100  O2    s     0.639028    0.523151    0.696326    0.000000
   101  O2    s     0.262460    0.271330    0.304988    0.000000
   102  O2    s     0.245652    0.733795    0.305386    0.000000
   103  O2    s     0.737895    0.273806    0.682609    0.000000
   104  O2    s     0.755488    0.728481    0.688788    0.000000
   105  O2    s     0.155427    0.239152    0.134113    0.000000
   106  O2    s     0.342585    0.756037    0.122627    0.000000
   107  O2    s     0.828693    0.229234    0.871218    0.000000
   108  O2    s     0.663520    0.753392    0.873422    0.000000
   109  O3    s     0.855602    0.717923    0.873510    0.000000
   110  O2    s     0.636950    0.280354    0.864978    0.000000
   111  O2    s     0.136726    0.729745    0.134516    0.000000
   112  O2    s     0.361359    0.285711    0.124209    0.000000
   113  O2    s     0.628903    0.520496    0.037727    0.000000
   114  O3    s     0.861905    0.435523    0.050823    0.000000
   115  O2    s     0.354890    0.522445    0.948291    0.000000
   116  O2    s     0.134948    0.484426    0.966925    0.000000
   117  O2    s     0.731603    0.284887    0.052732    0.000000
   118  O3    s     0.751521    0.697582    0.069721    0.000000
   119  O2    s     0.253655    0.281771    0.954095    0.000000
   120  O2    s     0.236079    0.725488    0.952371    0.000000
--------------------------------------------------------------------------------

  Final Cartesian lattice vectors (Angstroms) :

       17.104678    0.062615   -0.093382
        0.027585    7.578834    0.027996
       -0.054393    0.036974   10.314203


  Final cell parameters and derivatives :

--------------------------------------------------------------------------------
       a           17.105048 Angstrom     dE/de1(xx)     0.002285 eV/strain
       b            7.578936 Angstrom     dE/de2(yy)    -0.002540 eV/strain
       c           10.314413 Angstrom     dE/de3(zz)     0.010066 eV/strain
       alpha       89.584066 Degrees      dE/de4(yz)    -0.000084 eV/strain
       beta        90.614191 Degrees      dE/de5(xz)     0.000480 eV/strain
       gamma       89.582885 Degrees      dE/de6(xy)    -0.001545 eV/strain
--------------------------------------------------------------------------------

  Primitive cell volume =          1336.992154 Angs**3

  Density of cell =      1.957069 g/cm**3

  Non-primitive cell volume =          1336.992154 Angs**3


  Final internal derivatives :

--------------------------------------------------------------------------------
   No.  Atomic          a             b             c           Radius
        Label          (eV)          (eV)          (eV)        (eV/Angs)
--------------------------------------------------------------------------------
      1 Ge    c       0.000000      0.000000      0.000000      0.000000
      2 Ge    c       0.001702     -0.000743     -0.001129      0.000000
      3 Ge    c       0.000948     -0.002604      0.000306      0.000000
      4 Si    c      -0.021264      0.001709     -0.002743      0.000000
      5 Si    c       0.000615     -0.000319      0.000086      0.000000
      6 Si    c       0.016971      0.002773      0.001039      0.000000
      7 Si    c       0.012268      0.003316     -0.001181      0.000000
      8 Si    c      -0.010821      0.001729     -0.001840      0.000000
      9 Si    c      -0.000255      0.000644      0.000743      0.000000
     10 Si    c       0.000547      0.000136      0.000209      0.000000
     11 Si    c       0.000016     -0.000981      0.001010      0.000000
     12 Si    c      -0.000386      0.000800      0.002141      0.000000
     13 Si    c       0.001304     -0.000738     -0.000826      0.000000
     14 Si    c       0.000716     -0.000249      0.000539      0.000000
     15 Si    c      -0.001711     -0.000019     -0.001096      0.000000
     16 Si    c       0.000429     -0.000242      0.000147      0.000000
     17 Si    c       0.001199      0.000280      0.000709      0.000000
     18 Si    c      -0.000285     -0.000392      0.001684      0.000000
     19 Si    c       0.001336      0.000567     -0.000659      0.000000
     20 Si    c       0.000820     -0.000630     -0.000278      0.000000
     21 Si    c       0.001280     -0.000295     -0.000957      0.000000
     22 Si    c       0.000155      0.000112     -0.000385      0.000000
     23 Si    c       0.004762     -0.000008      0.002064      0.000000
     24 Si    c      -0.004628      0.001569     -0.001005      0.000000
     25 O3    c      -0.001020     -0.000464      0.000073      0.000000
     26 O2    c      -0.000126     -0.000887      0.001245      0.000000
     27 O2    c       0.000475     -0.000369     -0.000042      0.000000
     28 O2    c       0.002340     -0.001797     -0.000721      0.000000
     29 O2    c      -0.000368      0.000126      0.000108      0.000000
     30 O2    c      -0.002109     -0.000413      0.000111      0.000000
     31 O3    c      -0.000306      0.000330      0.000000      0.000000
     32 O2    c       0.000966      0.000273     -0.000159      0.000000
     33 O3    c       0.003100      0.000007     -0.001089      0.000000
     34 O2    c      -0.002077     -0.002717      0.002313      0.000000
     35 O1    c      -0.000219      0.000009      0.000737      0.000000
     36 O2    c       0.017475     -0.001988      0.002017      0.000000
     37 O2    c      -0.001798     -0.000064     -0.000361      0.000000
     38 O2    c      -0.008532     -0.001798      0.001483      0.000000
     39 O2    c       0.000279      0.001779     -0.000585      0.000000
     40 O1    c      -0.001245      0.000001     -0.000903      0.000000
     41 O2    c      -0.000592      0.001774      0.000059      0.000000
     42 O2    c      -0.000424      0.000720     -0.000448      0.000000
     43 O2    c      -0.000088     -0.000654     -0.000016      0.000000
     44 O2    c      -0.001540     -0.000454     -0.000012      0.000000
     45 O2    c       0.003371     -0.002105      0.000106      0.000000
     46 O3    c      -0.002641      0.000403     -0.000402      0.000000
     47 O2    c      -0.007861     -0.005566      0.001540      0.000000
     48 O3    c       0.002577     -0.000724      0.000146      0.000000
     49 O2    c       0.000153      0.000281     -0.000060      0.000000
     50 O2    c       0.000238     -0.000265      0.000024      0.000000
     51 O2    c      -0.002259     -0.001539      0.001176      0.000000
     52 O2    c       0.000175      0.000644      0.000687      0.000000
     53 O2    c       0.001386      0.000161     -0.000118      0.000000
     54 O2    c      -0.000569      0.000023      0.000139      0.000000
     55 O2    c       0.002885      0.000428      0.000822      0.000000
     56 O2    c      -0.003214     -0.000323      0.000649      0.000000
     57 O2    c       0.000062      0.000007     -0.000376      0.000000
     58 O2    c       0.000043     -0.000119     -0.000597      0.000000
     59 O2    c      -0.001276      0.001385      0.000675      0.000000
     60 O2    c       0.000139     -0.000205     -0.000459      0.000000
     61 O3    c      -0.001013     -0.001166      0.000198      0.000000
     62 O2    c      -0.000650      0.000368     -0.000327      0.000000
     63 O2    c      -0.000610      0.000154      0.000023      0.000000
     64 O2    c       0.000012      0.000297      0.000150      0.000000
     65 O2    c       0.000413      0.001066     -0.000659      0.000000
     66 O3    c      -0.006903      0.000583     -0.004020      0.000000
     67 O2    c       0.000173     -0.000397      0.000123      0.000000
     68 O2    c       0.000276      0.000299      0.000178      0.000000
     69 O2    c       0.012666      0.001205     -0.001495      0.000000
     70 O3    c      -0.011436     -0.002140     -0.002007      0.000000
     71 O2    c       0.000083      0.000196      0.000040      0.000000
     72 O2    c      -0.000494     -0.000100     -0.000124      0.000000
     73 O3    s      -0.000252      0.000051     -0.000324      0.000000
     74 O2    s      -0.008988     -0.000727     -0.001507      0.000000
     75 O2    s      -0.000889      0.001062      0.000863      0.000000
     76 O2    s       0.009025     -0.000586      0.000557      0.000000
     77 O2    s       0.000397     -0.000110      0.000338      0.000000
     78 O2    s       0.006802      0.001718     -0.000250      0.000000
     79 O3    s      -0.000119     -0.000027      0.000132      0.000000
     80 O2    s      -0.007390      0.001715      0.000069      0.000000
     81 O3    s      -0.000865      0.000121      0.000668      0.000000
     82 O2    s      -0.000042      0.001229     -0.000485      0.000000
     83 O1    s      -0.000270     -0.000023     -0.000202      0.000000
     84 O2    s      -0.000577      0.000590      0.001979      0.000000
     85 O2    s       0.000276      0.000097      0.000149      0.000000
     86 O2    s       0.002250      0.000506     -0.001608      0.000000
     87 O2    s       0.007775      0.002021     -0.000329      0.000000
     88 O1    s       0.000654     -0.000284      0.000122      0.000000
     89 O2    s      -0.007460      0.001131     -0.000590      0.000000
     90 O2    s      -0.000696      0.000265      0.000221      0.000000
     91 O2    s      -0.006691     -0.000584     -0.000752      0.000000
     92 O2    s       0.000029     -0.000273      0.000369      0.000000
     93 O2    s       0.009467     -0.000956     -0.000466      0.000000
     94 O3    s      -0.000791      0.001746     -0.000451      0.000000
     95 O2    s      -0.001707     -0.000282     -0.000339      0.000000
     96 O3    s      -0.000723     -0.000167     -0.000514      0.000000
     97 O2    s      -0.000312      0.000066      0.000100      0.000000
     98 O2    s      -0.001069     -0.000201     -0.000259      0.000000
     99 O2    s      -0.003007     -0.000810      0.000880      0.000000
    100 O2    s       0.003206      0.000258      0.001092      0.000000
    101 O2    s      -0.000307     -0.000128      0.000091      0.000000
    102 O2    s      -0.000643      0.000065      0.000093      0.000000
    103 O2    s       0.002614      0.001181      0.002613      0.000000
    104 O2    s      -0.000028     -0.000968      0.001080      0.000000
    105 O2    s      -0.000171     -0.000073      0.000162      0.000000
    106 O2    s       0.002099      0.001073      0.000918      0.000000
    107 O2    s      -0.005772      0.001246      0.001122      0.000000
    108 O2    s       0.000855     -0.000128      0.000277      0.000000
    109 O3    s      -0.001028      0.000110     -0.000215      0.000000
    110 O2    s       0.002975     -0.000513      0.000086      0.000000
    111 O2    s       0.000734     -0.000241     -0.000003      0.000000
    112 O2    s      -0.000168     -0.000867      0.000210      0.000000
    113 O2    s       0.002143      0.000317     -0.000994      0.000000
    114 O3    s      -0.002011     -0.002630     -0.000578      0.000000
    115 O2    s      -0.001068     -0.000162      0.000130      0.000000
    116 O2    s       0.000148     -0.000020      0.000151      0.000000
    117 O2    s       0.002119      0.000999     -0.002749      0.000000
    118 O3    s       0.005817      0.000586     -0.000783      0.000000
    119 O2    s      -0.000250     -0.000116     -0.000082      0.000000
    120 O2    s      -0.000726      0.000042      0.000032      0.000000
--------------------------------------------------------------------------------
  Maximum abs         0.021264      0.005566      0.004020      0.000000
--------------------------------------------------------------------------------


  Born effective charge tensors : 

-------------------------------------------------------------------------------
  Atom             x           y             z
-------------------------------------------------------------------------------
    1 Ge    x       4.3078     -0.1841     -0.1296
            y       0.1289      3.8737     -0.0143
            z      -0.8980     -0.0784      4.5062
-------------------------------------------------------------------------------
    2 Ge    x       4.3696      0.4449      0.1783
            y      -0.1775      3.9359      0.0215
            z       0.7972      0.1985      3.7555
-------------------------------------------------------------------------------
    3 Ge    x       4.1475      0.3561      0.2003
            y       0.3551      4.1528      0.2500
            z       0.3035      0.0333      3.3235
-------------------------------------------------------------------------------
    4 Si    x       3.3964     -0.1297      0.2126
            y       0.1332      3.2323      0.0072
            z       0.4856     -0.0388      3.8364
-------------------------------------------------------------------------------
    5 Si    x       3.6458      0.1183     -0.5162
            y      -0.1045      3.2732     -0.0216
            z      -0.4321     -0.0571      4.1834
-------------------------------------------------------------------------------
    6 Si    x       3.4738      0.1552      0.2064
            y      -0.1255      3.2320     -0.0079
            z       0.4189      0.1004      3.8417
-------------------------------------------------------------------------------
    7 Si    x       3.4224      0.1808     -0.2253
            y      -0.1930      3.2317     -0.0261
            z      -0.4696     -0.0633      3.1128
-------------------------------------------------------------------------------
    8 Si    x       3.4578     -0.1510     -0.2383
            y       0.1613      3.2566      0.0105
            z      -0.5398      0.0164      3.1256
-------------------------------------------------------------------------------
    9 Si    x       3.8152     -0.1797      0.2493
            y       0.1163      3.3347      0.0372
            z       0.2998      0.0214      3.2507
-------------------------------------------------------------------------------
   10 Si    x       3.3298      0.3982     -0.3076
            y       0.2821      3.5886     -0.3739
            z      -0.2218     -0.1992      3.0361
-------------------------------------------------------------------------------
   11 Si    x       3.1599      0.2842      0.1293
            y       0.1836      3.4649      0.1524
            z       0.0931      0.0829      2.8196
-------------------------------------------------------------------------------
   12 Si    x       3.2695     -0.3105     -0.1046
            y      -0.1803      3.4449      0.1556
            z      -0.1599      0.0454      2.7244
-------------------------------------------------------------------------------
   13 Si    x       3.1962     -0.3199      0.0818
            y      -0.1718      3.4877     -0.1424
            z       0.1547     -0.0766      2.7838
-------------------------------------------------------------------------------
   14 Si    x       3.3183      0.2614      0.0122
            y       0.3266      3.5406     -0.1354
            z      -0.0746     -0.0004      3.0619
-------------------------------------------------------------------------------
   15 Si    x       3.2088      0.2342      0.0336
            y       0.3051      3.4492      0.1919
            z       0.1085      0.0713      2.8056
-------------------------------------------------------------------------------
   16 Si    x       3.3998     -0.3185     -0.2582
            y      -0.4037      3.5093      0.3393
            z      -0.2739      0.1930      3.0381
-------------------------------------------------------------------------------
   17 Si    x       3.1403     -0.2009      0.0806
            y      -0.2983      3.4309     -0.1598
            z       0.0885     -0.0807      2.8160
-------------------------------------------------------------------------------
   18 Si    x       3.2093      0.2754     -0.1430
            y       0.2518      3.3563     -0.1738
            z      -0.2049     -0.0389      2.7184
-------------------------------------------------------------------------------
   19 Si    x       3.2577     -0.2356     -0.1633
            y      -0.2618      3.4154      0.1782
            z      -0.1324      0.0844      2.7234
-------------------------------------------------------------------------------
   20 Si    x       3.2742     -0.2248      0.1429
            y      -0.2556      3.4152     -0.1899
            z       0.1609     -0.0522      2.7067
-------------------------------------------------------------------------------
   21 Si    x       3.2353      0.3203     -0.2041
            y       0.1151      3.4459     -0.1738
            z      -0.1016     -0.0754      2.7382
-------------------------------------------------------------------------------
   22 Si    x       3.2315      0.2855      0.2109
            y       0.0958      3.4579      0.2166
            z       0.1312      0.0739      2.7533
-------------------------------------------------------------------------------
   23 Si    x       3.5322     -0.3953     -0.0067
            y      -0.0964      3.5189      0.1950
            z      -0.0621      0.0873      2.8098
-------------------------------------------------------------------------------
   24 Si    x       3.4443     -0.4557      0.2282
            y      -0.0032      3.8892     -0.2523
            z       0.2037     -0.1545      2.9039
-------------------------------------------------------------------------------
   25 O3    x      -2.0616     -0.8876      0.4836
            y      -0.9579     -2.2506      0.5387
            z       0.5449      0.4946     -1.6678
-------------------------------------------------------------------------------
   26 O2    x      -1.7459     -0.7102     -0.3335
            y      -0.7547     -1.9359     -0.3518
            z      -0.3589     -0.3269     -1.3572
-------------------------------------------------------------------------------
   27 O2    x      -1.8044      0.7335      0.3548
            y       0.7579     -1.9436     -0.3407
            z       0.3756     -0.3346     -1.3319
-------------------------------------------------------------------------------
   28 O2    x      -1.7763      0.7233     -0.3250
            y       0.7810     -1.9625      0.3485
            z      -0.3799      0.3295     -1.3299
-------------------------------------------------------------------------------
   29 O2    x      -1.6989     -0.7049      0.3280
            y      -0.6620     -2.0246      0.3283
            z       0.3391      0.3175     -1.3313
-------------------------------------------------------------------------------
   30 O2    x      -1.6533     -0.7011     -0.3099
            y      -0.6696     -2.0090     -0.3108
            z      -0.3679     -0.3249     -1.3563
-------------------------------------------------------------------------------
   31 O3    x      -1.9844      0.8943      0.5127
            y       0.8685     -2.3293     -0.5134
            z       0.6216     -0.5353     -1.6638
-------------------------------------------------------------------------------
   32 O2    x      -1.6173      0.6846     -0.3189
            y       0.6519     -2.0072      0.3306
            z      -0.3519      0.3248     -1.3595
-------------------------------------------------------------------------------
   33 O3    x      -2.0355     -0.0295      1.1143
            y       0.0062     -1.2023      0.0126
            z       1.3841      0.0599     -3.3702
-------------------------------------------------------------------------------
   34 O2    x      -1.5858     -0.0155     -0.8261
            y      -0.0063     -1.0919     -0.0129
            z      -1.0328     -0.0385     -2.8239
-------------------------------------------------------------------------------
   35 O1    x      -2.1551     -0.1145     -0.9807
            y      -0.0654     -1.3779     -0.0670
            z      -0.9664     -0.0943     -2.8339
-------------------------------------------------------------------------------
   36 O2    x      -1.6528     -0.0041      0.7192
            y       0.0207     -1.1236     -0.0048
            z       0.6845      0.0098     -2.2564
-------------------------------------------------------------------------------
   37 O2    x      -1.8180     -0.0262     -0.6673
            y      -0.0421     -1.1210     -0.0247
            z      -0.6596     -0.0207     -2.1327
-------------------------------------------------------------------------------
   38 O2    x      -1.7551     -0.0091      0.7470
            y      -0.0108     -1.1091     -0.0037
            z       0.7763     -0.0061     -2.2281
-------------------------------------------------------------------------------
   39 O2    x      -1.6344     -0.6788      0.3433
            y      -0.5624     -2.0146      0.3616
            z       0.3651      0.3455     -1.2271
-------------------------------------------------------------------------------
   40 O1    x      -2.1220     -0.8976     -0.4165
            y      -0.7618     -2.6159     -0.3545
            z      -0.5007     -0.3546     -1.5008
-------------------------------------------------------------------------------
   41 O2    x      -1.6292      0.6780      0.3569
            y       0.5925     -2.0245     -0.3867
            z       0.3695     -0.3675     -1.2654
-------------------------------------------------------------------------------
   42 O2    x      -1.6832      0.6769     -0.4210
            y       0.5707     -2.0282      0.4472
            z      -0.3792      0.3913     -1.2873
-------------------------------------------------------------------------------
   43 O2    x      -1.7450     -0.6934      0.3404
            y      -0.6836     -1.9086      0.3732
            z       0.3331      0.3341     -1.2775
-------------------------------------------------------------------------------
   44 O2    x      -1.7614     -0.7105     -0.4679
            y      -0.6653     -1.9310     -0.4567
            z      -0.3817     -0.3791     -1.3076
-------------------------------------------------------------------------------
   45 O2    x      -1.7424      0.6946      0.3120
            y       0.6658     -1.9215     -0.3415
            z       0.3298     -0.3247     -1.2395
-------------------------------------------------------------------------------
   46 O3    x      -2.1406      0.8387     -0.3666
            y       0.8278     -2.2171      0.5032
            z      -0.4139      0.4525     -1.4553
-------------------------------------------------------------------------------
   47 O2    x      -1.7873     -0.0106     -0.5984
            y      -0.0093     -1.1934     -0.0019
            z      -0.3337      0.0131     -1.6894
-------------------------------------------------------------------------------
   48 O3    x      -2.2514      0.0597      0.8260
            y       0.0910     -1.3270     -0.0150
            z       0.4556      0.0274     -1.9966
-------------------------------------------------------------------------------
   49 O2    x      -1.1810      0.0651      0.0739
            y       0.1070     -2.4672     -0.0055
            z       0.0821     -0.0058     -1.0899
-------------------------------------------------------------------------------
   50 O2    x      -1.1475      0.0558     -0.0625
            y       0.1163     -2.5473     -0.0008
            z      -0.0682     -0.0074     -1.0683
-------------------------------------------------------------------------------
   51 O2    x      -1.2070     -0.0757      0.0412
            y      -0.1378     -2.5896      0.0072
            z       0.0665     -0.0109     -1.0388
-------------------------------------------------------------------------------
   52 O2    x      -1.1654     -0.0621     -0.0504
            y      -0.1371     -2.5621     -0.0425
            z      -0.0785     -0.0035     -1.0650
-------------------------------------------------------------------------------
   53 O2    x      -2.3443     -0.0913      0.0281
            y      -0.0363     -1.2557      0.0723
            z       0.0283      0.0495     -1.0695
-------------------------------------------------------------------------------
   54 O2    x      -2.3642     -0.1173      0.0339
            y      -0.0731     -1.2648     -0.0694
            z       0.0529     -0.0456     -1.0772
-------------------------------------------------------------------------------
   55 O2    x      -2.3964      0.1176     -0.0217
            y       0.0663     -1.2445     -0.0693
            z      -0.0272     -0.0375     -1.0844
-------------------------------------------------------------------------------
   56 O2    x      -2.3950      0.1092      0.0137
            y       0.0481     -1.2667      0.0695
            z       0.0306      0.0409     -1.0730
-------------------------------------------------------------------------------
   57 O2    x      -1.1956     -0.1329     -0.0706
            y      -0.0977     -1.3190      0.0027
            z      -0.0617     -0.0033     -2.0522
-------------------------------------------------------------------------------
   58 O2    x      -1.1756     -0.1293     -0.0158
            y      -0.0941     -1.2865     -0.0052
            z      -0.0188      0.0010     -2.0721
-------------------------------------------------------------------------------
   59 O2    x      -1.2212      0.1309      0.0228
            y       0.0644     -1.2846      0.0457
            z       0.0511      0.0596     -2.0142
-------------------------------------------------------------------------------
   60 O2    x      -1.1645      0.1117      0.0849
            y       0.0547     -1.3060      0.0282
            z       0.0414      0.0099     -2.0714
-------------------------------------------------------------------------------
   61 O3    x      -1.3601     -0.1568     -0.0806
            y      -0.1413     -1.4536     -0.0168
            z      -0.0872      0.0300     -2.5703
-------------------------------------------------------------------------------
   62 O2    x      -1.1917     -0.1255      0.0680
            y      -0.1204     -1.2726      0.0003
            z       0.0795     -0.0150     -2.0710
-------------------------------------------------------------------------------
   63 O2    x      -1.2476      0.1394     -0.0790
            y       0.1436     -1.2965      0.0094
            z      -0.0823      0.0001     -2.0437
-------------------------------------------------------------------------------
   64 O2    x      -1.2013      0.1250     -0.0064
            y       0.1308     -1.2681     -0.0065
            z      -0.0035     -0.0029     -2.0590
-------------------------------------------------------------------------------
   65 O2    x      -1.2420     -0.0651      0.0755
            y      -0.1465     -2.4578     -0.0454
            z       0.1074     -0.0284     -1.0206
-------------------------------------------------------------------------------
   66 O3    x      -1.5192     -0.2314     -0.1219
            y      -0.3192     -2.9215     -0.0978
            z      -0.1675     -0.1111     -1.1578
-------------------------------------------------------------------------------
   67 O2    x      -1.2081      0.0565      0.0949
            y       0.1265     -2.5093      0.0035
            z       0.0912     -0.0030     -1.0298
-------------------------------------------------------------------------------
   68 O2    x      -1.2371      0.0669     -0.0852
            y       0.1287     -2.5565     -0.0105
            z      -0.0931     -0.0067     -1.0083
-------------------------------------------------------------------------------
   69 O2    x      -2.3448      0.1877      0.0052
            y       0.1132     -1.2556      0.0488
            z      -0.0087      0.0229     -1.0710
-------------------------------------------------------------------------------
   70 O3    x      -3.0162      0.2273     -0.1331
            y       0.1543     -1.3929     -0.0663
            z      -0.1099     -0.0206     -1.2220
-------------------------------------------------------------------------------
   71 O2    x      -2.4389     -0.1087      0.0503
            y      -0.0631     -1.2458     -0.0634
            z       0.0307     -0.0351     -1.0279
-------------------------------------------------------------------------------
   72 O2    x      -2.4368     -0.0957      0.0586
            y      -0.0532     -1.2433      0.0700
            z       0.0172      0.0373     -1.0283
-------------------------------------------------------------------------------




  Elastic Constant Matrix: (Units=GPa)

-------------------------------------------------------------------------------
  Indices      1         2         3         4         5         6    
-------------------------------------------------------------------------------
       1     54.3955   25.6516   28.2685    1.2205   -2.9030    0.0319
       2     25.6516   70.8544   21.2808    1.2298   -2.4298    0.4647
       3     28.2685   21.2808   42.3618    0.6229   -2.3927    0.2825
       4      1.2205    1.2298    0.6229   11.8229    0.9299    0.8172
       5     -2.9030   -2.4298   -2.3927    0.9299   24.2117    0.6166
       6      0.0319    0.4647    0.2825    0.8172    0.6166   28.4035
-------------------------------------------------------------------------------


  Elastic Compliance Matrix: (Units=1/GPa)

-------------------------------------------------------------------------------
  Indices      1         2         3         4         5         6    
-------------------------------------------------------------------------------
       1    0.030063 -0.005668 -0.017111 -0.001740  0.001405  0.000249
       2   -0.005668  0.017730 -0.005072 -0.001028  0.000644 -0.000218
       3   -0.017111 -0.005072  0.037636  0.000241  0.001157 -0.000304
       4   -0.001740 -0.001028  0.000241  0.085294 -0.003504 -0.002361
       5    0.001405  0.000644  0.001157 -0.003504  0.041805 -0.000830
       6    0.000249 -0.000218 -0.000304 -0.002361 -0.000830  0.035299
-------------------------------------------------------------------------------

  Mechanical properties :

-------------------------------------------------------------------------------
  Convention :                    Reuss         Voigt         Hill
-------------------------------------------------------------------------------
  Bulk  Modulus (GPa)     =      33.63792      35.33485      34.48639
  Shear Modulus (GPa)     =      15.95215      19.04834      17.50025
-------------------------------------------------------------------------------
  Velocity S-wave (km/s)  =       2.85500       3.11979       2.99033
  Velocity P-wave (km/s)  =       5.29679       5.57068       5.43546
-------------------------------------------------------------------------------
  Compressibility (1/GPa) =    0.02972836
-------------------------------------------------------------------------------
  Stress axis :                     x             y             z
-------------------------------------------------------------------------------
  Youngs Moduli (GPa)     =      33.26377      56.40165      26.57034
-------------------------------------------------------------------------------
  Poissons Ratio (x)      =                     0.31967       0.45464
  Poissons Ratio (y)      =       0.18853                     0.13476
  Poissons Ratio (z)      =       0.56916       0.28605
-------------------------------------------------------------------------------


  Piezoelectric Strain Matrix: (Units=C/m**2)

-------------------------------------------------------------------------------
  Indices      1         2         3         4         5         6    
-------------------------------------------------------------------------------
       x    -0.11649  -0.18754   0.32044   0.09308   0.16391   0.08245
       y     0.38580  -0.46943  -0.46972  -0.22750   0.32284  -0.13699
       z    -0.13764  -0.23610  -0.94784   0.07006  -0.43460  -0.06401
-------------------------------------------------------------------------------


  Piezoelectric Stress Matrix: (Units=10**-11 C/N)

-------------------------------------------------------------------------------
  Indices      1         2         3         4         5         6    
-------------------------------------------------------------------------------
       x    -0.78332  -0.42981   1.51915   0.76433   0.65441   0.24689
       y     2.31115  -0.76560  -2.15383  -2.05147   1.41040  -0.42254
       z     1.26698   0.10634  -3.25866   0.79032  -1.98031  -0.17586
-------------------------------------------------------------------------------


  Static dielectric constant tensor : 

-------------------------------------------------------------------------------
              x         y         z
-------------------------------------------------------------------------------
       x     3.94966   0.04216  -0.05879
       y     0.04216   4.07412   0.11011
       z    -0.05879   0.11011   3.41470
--------------------------------------------------------------------------------

  High frequency dielectric constant tensor : 

-------------------------------------------------------------------------------
              x         y         z
-------------------------------------------------------------------------------
       x     1.67958  -0.00019  -0.00193
       y    -0.00019   1.68794   0.00035
       z    -0.00193   0.00035   1.61811
-------------------------------------------------------------------------------

  Static refractive indices : 

-------------------------------------------------------------------------------
    1 =    1.84100      2 =    1.98745      3 =    2.02466
-------------------------------------------------------------------------------

  High frequency refractive indices : 

-------------------------------------------------------------------------------
    1 =    1.27203      2 =    1.29601      3 =    1.29921
-------------------------------------------------------------------------------


  Time to end of optimisation =       9.1054 seconds


  Peak dynamic memory used =       5.01 MB 


  Timing analysis for GULP :

--------------------------------------------------------------------------------
  Task / Subroutine                                          Time (Seconds)
--------------------------------------------------------------------------------
  Calculation of reciprocal space energy and derivatives          0.5575
  Calculation of real space energy and derivatives                5.8367
  Calculation of three-body energy and derivatives                0.6053
  Calculation and manipulation of Hessian matrix                  2.5466
  Calculation of matrix inversion                                 0.0296
  Global summation overhead                                       0.0001
--------------------------------------------------------------------------------
  Total CPU time                                                  9.1054
--------------------------------------------------------------------------------


  Dump file written as c00038.vasp.grs
  CIF file written as c00038.vasp.cif


  Job Finished at 11:32.55  7th October    2025                               

