********************************************************************************
*                       GENERAL UTILITY LATTICE PROGRAM                        *
*                                 Julian Gale                                  *
*                       Curtin Institute for Computation                       *
*                    School of Molecular and Life Sciences                     *
*                    Curtin University, Western Australia                      *
********************************************************************************
* Version = 6.1.2 * Last modified =   3rd November 2022                        *
********************************************************************************
*  optimise     - perform optimisation run                                     *
*  conp         - constant pressure calculation                                *
*  property     - calculate properties for final geometry                      *
********************************************************************************

  Job Started  at 11:35.14  7th October    2025                               

  Number of CPUs =     1


  Total number of configurations input =      1

********************************************************************************
*  Input for Configuration =   1 : c00052.vasp                                 *
********************************************************************************

  Formula = Ge3Si21O48                                                  

  Number of irreducible atoms/shells =     120


  Total number atoms/shells =     120

  Dimensionality = 3               :  Bulk   



  Cartesian lattice vectors (Angstroms) :

       17.182800    0.000000    0.000000
        0.000000    7.513760    0.000000
        0.000000    0.000000   10.447700

  Cell parameters (Angstroms/Degrees):

  a =      17.1828    alpha =  90.0000
  b =       7.5138    beta  =  90.0000
  c =      10.4477    gamma =  90.0000

  Initial cell volume =        1348.875752 Angs**3

  Temperature of configuration =   0.00     K 

  Pressure of configuration =         0.000 GPa 

  Fractional coordinates of asymmetric unit :

--------------------------------------------------------------------------------
   No.  Atomic       x           y          z         Charge      Occupancy
        Label      (Frac)      (Frac)     (Frac)        (e)         (Frac)  
--------------------------------------------------------------------------------
      1 Ge    c    0.052090    0.000000    0.372270     4.00000    1.000000    
      2 Ge    c    0.056730 *  0.000000 *  0.877870 *   4.00000    1.000000    
      3 Ge    c    0.839810 *  0.293910 *  0.726560 *   4.00000    1.000000    
      4 Si    c    0.447910 *  0.000000 *  0.372270 *   4.00000    1.000000    
      5 Si    c    0.947910 *  0.000000 *  0.627730 *   4.00000    1.000000    
      6 Si    c    0.552090 *  0.000000 *  0.627730 *   4.00000    1.000000    
      7 Si    c    0.556730 *  0.000000 *  0.122130 *   4.00000    1.000000    
      8 Si    c    0.943270 *  0.000000 *  0.122130 *   4.00000    1.000000    
      9 Si    c    0.443270 *  0.000000 *  0.877870 *   4.00000    1.000000    
     10 Si    c    0.160190 *  0.293910 *  0.273440 *   4.00000    1.000000    
     11 Si    c    0.339810 *  0.706090 *  0.273440 *   4.00000    1.000000    
     12 Si    c    0.660190 *  0.706090 *  0.726560 *   4.00000    1.000000    
     13 Si    c    0.839810 *  0.706090 *  0.726560 *   4.00000    1.000000    
     14 Si    c    0.660190 *  0.293910 *  0.726560 *   4.00000    1.000000    
     15 Si    c    0.160190 *  0.706090 *  0.273440 *   4.00000    1.000000    
     16 Si    c    0.339810 *  0.293910 *  0.273440 *   4.00000    1.000000    
     17 Si    c    0.660660 *  0.294090 *  0.017440 *   4.00000    1.000000    
     18 Si    c    0.839340 *  0.705910 *  0.017440 *   4.00000    1.000000    
     19 Si    c    0.339340 *  0.294090 *  0.982560 *   4.00000    1.000000    
     20 Si    c    0.160660 *  0.705910 *  0.982560 *   4.00000    1.000000    
     21 Si    c    0.339340 *  0.705910 *  0.982560 *   4.00000    1.000000    
     22 Si    c    0.160660 *  0.294090 *  0.982560 *   4.00000    1.000000    
     23 Si    c    0.660660 *  0.705910 *  0.017440 *   4.00000    1.000000    
     24 Si    c    0.839340 *  0.294090 *  0.017440 *   4.00000    1.000000    
     25 O3    c    0.106570 *  0.174340 *  0.366200 *   1.33043    1.000000    
     26 O2    c    0.393430 *  0.825660 *  0.366200 *   0.87073    1.000000    
     27 O3    c    0.893430 *  0.174340 *  0.633800 *   1.33043    1.000000    
     28 O2    c    0.606570 *  0.825660 *  0.633800 *   0.87073    1.000000    
     29 O2    c    0.893430 *  0.825660 *  0.633800 *   0.87073    1.000000    
     30 O2    c    0.606570 *  0.174340 *  0.633800 *   0.87073    1.000000    
     31 O3    c    0.106570 *  0.825660 *  0.366200 *   1.33043    1.000000    
     32 O2    c    0.393430 *  0.174340 *  0.366200 *   0.87073    1.000000    
     33 O3    c    0.000000 *  0.000000 *  0.500000 *   1.33043    1.000000    
     34 O2    c    0.500000 *  0.000000 *  0.500000 *   0.87073    1.000000    
     35 O3    c    0.994520 *  0.000000 *  0.250840 *   1.33043    1.000000    
     36 O2    c    0.505480 *  0.000000 *  0.250840 *   0.87073    1.000000    
     37 O3    c    0.005480 *  0.000000 *  0.749160 *   1.33043    1.000000    
     38 O2    c    0.494520 *  0.000000 *  0.749160 *   0.87073    1.000000    
     39 O2    c    0.610230 *  0.175520 *  0.115390 *   0.87073    1.000000    
     40 O2    c    0.889770 *  0.824480 *  0.115390 *   0.87073    1.000000    
     41 O2    c    0.389770 *  0.175520 *  0.884610 *   0.87073    1.000000    
     42 O3    c    0.110230 *  0.824480 *  0.884610 *   1.33043    1.000000    
     43 O2    c    0.389770 *  0.824480 *  0.884610 *   0.87073    1.000000    
     44 O3    c    0.110230 *  0.175520 *  0.884610 *   1.33043    1.000000    
     45 O2    c    0.610230 *  0.824480 *  0.115390 *   0.87073    1.000000    
     46 O2    c    0.889770 *  0.175520 *  0.115390 *   0.87073    1.000000    
     47 O2    c    0.500000 *  0.000000 *  0.000000 *   0.87073    1.000000    
     48 O3    c    0.000000 *  0.000000 *  0.000000 *   1.33043    1.000000    
     49 O2    c    0.151750 *  0.500000 *  0.313330 *   0.87073    1.000000    
     50 O2    c    0.348250 *  0.500000 *  0.313330 *   0.87073    1.000000    
     51 O3    c    0.848250 *  0.500000 *  0.686670 *   1.33043    1.000000    
     52 O2    c    0.651750 *  0.500000 *  0.686670 *   0.87073    1.000000    
     53 O2    c    0.250000 *  0.234950 *  0.285720 *   0.87073    1.000000    
     54 O2    c    0.250000 *  0.765050 *  0.285720 *   0.87073    1.000000    
     55 O3    c    0.750000 *  0.234950 *  0.714280 *   1.33043    1.000000    
     56 O2    c    0.750000 *  0.765050 *  0.714280 *   0.87073    1.000000    
     57 O2    c    0.131410 *  0.268650 *  0.127790 *   0.87073    1.000000    
     58 O2    c    0.368590 *  0.731350 *  0.127790 *   0.87073    1.000000    
     59 O3    c    0.868590 *  0.268650 *  0.872210 *   1.33043    1.000000    
     60 O2    c    0.631410 *  0.731350 *  0.872210 *   0.87073    1.000000    
     61 O2    c    0.868590 *  0.731350 *  0.872210 *   0.87073    1.000000    
     62 O2    c    0.631410 *  0.268650 *  0.872210 *   0.87073    1.000000    
     63 O2    c    0.131410 *  0.731350 *  0.127790 *   0.87073    1.000000    
     64 O2    c    0.368590 *  0.268650 *  0.127790 *   0.87073    1.000000    
     65 O2    c    0.653920 *  0.500000 *  0.058200 *   0.87073    1.000000    
     66 O2    c    0.846080 *  0.500000 *  0.058200 *   0.87073    1.000000    
     67 O2    c    0.346080 *  0.500000 *  0.941800 *   0.87073    1.000000    
     68 O2    c    0.153920 *  0.500000 *  0.941800 *   0.87073    1.000000    
     69 O2    c    0.750000 *  0.231060 *  0.027050 *   0.87073    1.000000    
     70 O2    c    0.750000 *  0.768940 *  0.027050 *   0.87073    1.000000    
     71 O2    c    0.250000 *  0.231060 *  0.972950 *   0.87073    1.000000    
     72 O2    c    0.250000 *  0.768940 *  0.972950 *   0.87073    1.000000    
     73 O3    s    0.106570 *  0.174340 *  0.366200 *  -3.33043    1.000000    
     74 O2    s    0.393430 *  0.825660 *  0.366200 *  -2.87073    1.000000    
     75 O3    s    0.893430 *  0.174340 *  0.633800 *  -3.33043    1.000000    
     76 O2    s    0.606570 *  0.825660 *  0.633800 *  -2.87073    1.000000    
     77 O2    s    0.893430 *  0.825660 *  0.633800 *  -2.87073    1.000000    
     78 O2    s    0.606570 *  0.174340 *  0.633800 *  -2.87073    1.000000    
     79 O3    s    0.106570 *  0.825660 *  0.366200 *  -3.33043    1.000000    
     80 O2    s    0.393430 *  0.174340 *  0.366200 *  -2.87073    1.000000    
     81 O3    s    0.000000 *  0.000000 *  0.500000 *  -3.33043    1.000000    
     82 O2    s    0.500000 *  0.000000 *  0.500000 *  -2.87073    1.000000    
     83 O3    s    0.994520 *  0.000000 *  0.250840 *  -3.33043    1.000000    
     84 O2    s    0.505480 *  0.000000 *  0.250840 *  -2.87073    1.000000    
     85 O3    s    0.005480 *  0.000000 *  0.749160 *  -3.33043    1.000000    
     86 O2    s    0.494520 *  0.000000 *  0.749160 *  -2.87073    1.000000    
     87 O2    s    0.610230 *  0.175520 *  0.115390 *  -2.87073    1.000000    
     88 O2    s    0.889770 *  0.824480 *  0.115390 *  -2.87073    1.000000    
     89 O2    s    0.389770 *  0.175520 *  0.884610 *  -2.87073    1.000000    
     90 O3    s    0.110230 *  0.824480 *  0.884610 *  -3.33043    1.000000    
     91 O2    s    0.389770 *  0.824480 *  0.884610 *  -2.87073    1.000000    
     92 O3    s    0.110230 *  0.175520 *  0.884610 *  -3.33043    1.000000    
     93 O2    s    0.610230 *  0.824480 *  0.115390 *  -2.87073    1.000000    
     94 O2    s    0.889770 *  0.175520 *  0.115390 *  -2.87073    1.000000    
     95 O2    s    0.500000 *  0.000000 *  0.000000 *  -2.87073    1.000000    
     96 O3    s    0.000000 *  0.000000 *  0.000000 *  -3.33043    1.000000    
     97 O2    s    0.151750 *  0.500000 *  0.313330 *  -2.87073    1.000000    
     98 O2    s    0.348250 *  0.500000 *  0.313330 *  -2.87073    1.000000    
     99 O3    s    0.848250 *  0.500000 *  0.686670 *  -3.33043    1.000000    
    100 O2    s    0.651750 *  0.500000 *  0.686670 *  -2.87073    1.000000    
    101 O2    s    0.250000 *  0.234950 *  0.285720 *  -2.87073    1.000000    
    102 O2    s    0.250000 *  0.765050 *  0.285720 *  -2.87073    1.000000    
    103 O3    s    0.750000 *  0.234950 *  0.714280 *  -3.33043    1.000000    
    104 O2    s    0.750000 *  0.765050 *  0.714280 *  -2.87073    1.000000    
    105 O2    s    0.131410 *  0.268650 *  0.127790 *  -2.87073    1.000000    
    106 O2    s    0.368590 *  0.731350 *  0.127790 *  -2.87073    1.000000    
    107 O3    s    0.868590 *  0.268650 *  0.872210 *  -3.33043    1.000000    
    108 O2    s    0.631410 *  0.731350 *  0.872210 *  -2.87073    1.000000    
    109 O2    s    0.868590 *  0.731350 *  0.872210 *  -2.87073    1.000000    
    110 O2    s    0.631410 *  0.268650 *  0.872210 *  -2.87073    1.000000    
    111 O2    s    0.131410 *  0.731350 *  0.127790 *  -2.87073    1.000000    
    112 O2    s    0.368590 *  0.268650 *  0.127790 *  -2.87073    1.000000    
    113 O2    s    0.653920 *  0.500000 *  0.058200 *  -2.87073    1.000000    
    114 O2    s    0.846080 *  0.500000 *  0.058200 *  -2.87073    1.000000    
    115 O2    s    0.346080 *  0.500000 *  0.941800 *  -2.87073    1.000000    
    116 O2    s    0.153920 *  0.500000 *  0.941800 *  -2.87073    1.000000    
    117 O2    s    0.750000 *  0.231060 *  0.027050 *  -2.87073    1.000000    
    118 O2    s    0.750000 *  0.768940 *  0.027050 *  -2.87073    1.000000    
    119 O2    s    0.250000 *  0.231060 *  0.972950 *  -2.87073    1.000000    
    120 O2    s    0.250000 *  0.768940 *  0.972950 *  -2.87073    1.000000    
--------------------------------------------------------------------------------



********************************************************************************
*  General input information                                                   *
********************************************************************************

  Species output for all configurations : 

--------------------------------------------------------------------------------
  Species    Type    Atomic    Atomic    Charge       Radii (Angs)     Library
                     Number     Mass       (e)     Cova   Ionic  VDW   Symbol
--------------------------------------------------------------------------------
    Ge       Core       32      72.61   4.000000   1.170  0.000  1.750 Ge       
    Si       Core       14      28.09   4.000000   1.200  0.000  2.100 Si       
    O1       Core        8      16.00   1.733957   0.730  0.000  0.000 O1       
    O2       Core        8      16.00   0.870733   0.730  0.000  1.360 O2       
    O3       Core        8      16.00   1.330431   0.730  0.000  1.360 O3       
    O1       Shell       8       0.00  -3.733957   0.730  0.000  0.000 O1       
    O2       Shell       8       0.00  -2.870733   0.730  0.000  0.000 O2       
    O3       Shell       8       0.00  -3.330431   0.730  0.000  0.000 O3       
--------------------------------------------------------------------------------


  Lattice summation method               =    Ewald          (3-D)
                                         =    Parry          (2-D)
                                         =    Saunders et al (1-D)
  Accuracy factor for lattice sums       =   12.000


  Analytic derivatives to be used

  Time limit = Infinity

  Maximum range for interatomic potentials =    100000.000000 Angstroms

  General interatomic potentials :

--------------------------------------------------------------------------------
Atom  Types   Potential      Parameter       Value         Units   Cutoffs(Ang)
  1     2                                                            Min /  Max 
--------------------------------------------------------------------------------
Si   c O1   s Buckingham    Buckingham A     1315.2478    eV        0.000 16.000
                            Buckingham rho  0.31775900    Ang       
                            Buckingham C     10.141118    eV*Ang^6  
--------------------------------------------------------------------------------
Si   c O2   s Buckingham    Buckingham A     1315.2478    eV        0.000 16.000
                            Buckingham rho  0.31775900    Ang       
                            Buckingham C     10.141118    eV*Ang^6  
--------------------------------------------------------------------------------
Si   c O3   s Buckingham    Buckingham A     1315.2478    eV        0.000 16.000
                            Buckingham rho  0.31775900    Ang       
                            Buckingham C     10.141118    eV*Ang^6  
--------------------------------------------------------------------------------
Ge   c O1   s Buckingham    Buckingham A     1497.3996    eV        0.000 16.000
                            Buckingham rho  0.32564600    Ang       
                            Buckingham C     16.808599    eV*Ang^6  
--------------------------------------------------------------------------------
Ge   c O2   s Buckingham    Buckingham A     1497.3996    eV        0.000 16.000
                            Buckingham rho  0.32564600    Ang       
                            Buckingham C     16.808599    eV*Ang^6  
--------------------------------------------------------------------------------
Ge   c O3   s Buckingham    Buckingham A     1497.3996    eV        0.000 16.000
                            Buckingham rho  0.32564600    Ang       
                            Buckingham C     16.808599    eV*Ang^6  
--------------------------------------------------------------------------------
O1   s O1   s Buckingham    Buckingham A     22764.000    eV        0.000 16.000
                            Buckingham rho  0.14900000    Ang       
                            Buckingham C     10.937044    eV*Ang^6  
--------------------------------------------------------------------------------
O1   s O2   s Buckingham    Buckingham A     22764.000    eV        0.000 16.000
                            Buckingham rho  0.14900000    Ang       
                            Buckingham C     10.937044    eV*Ang^6  
--------------------------------------------------------------------------------
O1   s O3   s Buckingham    Buckingham A     22764.000    eV        0.000 16.000
                            Buckingham rho  0.14900000    Ang       
                            Buckingham C     10.937044    eV*Ang^6  
--------------------------------------------------------------------------------
O2   s O2   s Buckingham    Buckingham A     22764.000    eV        0.000 16.000
                            Buckingham rho  0.14900000    Ang       
                            Buckingham C     10.937044    eV*Ang^6  
--------------------------------------------------------------------------------
O2   s O3   s Buckingham    Buckingham A     22764.000    eV        0.000 16.000
                            Buckingham rho  0.14900000    Ang       
                            Buckingham C     10.937044    eV*Ang^6  
--------------------------------------------------------------------------------
O3   s O3   s Buckingham    Buckingham A     22764.000    eV        0.000 16.000
                            Buckingham rho  0.14900000    Ang       
                            Buckingham C     10.937044    eV*Ang^6  
--------------------------------------------------------------------------------
O1   c O1   s Spring (c-s)  Spring k 2       180.31577    eV*Ang^-2 0.000  0.800
                            Spring k 4       0.0000000    eV*Ang^-4 
--------------------------------------------------------------------------------
O2   c O2   s Spring (c-s)  Spring k 2       75.969800    eV*Ang^-2 0.000  0.800
                            Spring k 4       0.0000000    eV*Ang^-4 
--------------------------------------------------------------------------------
O3   c O3   s Spring (c-s)  Spring k 2       128.14270    eV*Ang^-2 0.000  0.800
                            Spring k 4       0.0000000    eV*Ang^-4 
--------------------------------------------------------------------------------

  General Three-body potentials :

--------------------------------------------------------------------------------
  Atoms       Potential      Parameter       Value         Units   Cutoffs(Ang)
  1 / 2 / 3                                                          Min /  Max 
--------------------------------------------------------------------------------
Si    core    Harmonic      Three-body cnst  1.2614000    eV*rad^-2 0.000  1.900
O1    shel                  Three-body angl  109.47000    degrees   0.000  1.900
O1    shel                  Three-body k4    0.0000000    eV*rad^-4 0.000  3.500
                            Three-body k3    0.0000000    eV*rad^-3 
--------------------------------------------------------------------------------
Si    core    Harmonic      Three-body cnst  1.2614000    eV*rad^-2 0.000  1.900
O1    shel                  Three-body angl  109.47000    degrees   0.000  1.900
õ(1   shel                  Three-body k4    0.0000000    eV*rad^-4 0.000  3.500
                            Three-body k3    0.0000000    eV*rad^-3 
--------------------------------------------------------------------------------
Si    core    Harmonic      Three-body cnst  1.2614000    eV*rad^-2 0.000  1.900
õ(1   shel                  Three-body angl  109.47000    degrees   0.000  1.900
õ(1   shel                  Three-body k4    0.0000000    eV*rad^-4 0.000  3.500
                            Three-body k3    0.0000000    eV*rad^-3 
--------------------------------------------------------------------------------
Si    core    Harmonic      Three-body cnst  1.2614000    eV*rad^-2 0.000  1.900
O1    shel                  Three-body angl  109.47000    degrees   0.000  1.900
O2    shel                  Three-body k4    0.0000000    eV*rad^-4 0.000  3.500
                            Three-body k3    0.0000000    eV*rad^-3 
--------------------------------------------------------------------------------
Si    core    Harmonic      Three-body cnst  1.2614000    eV*rad^-2 0.000  1.900
O1    shel                  Three-body angl  109.47000    degrees   0.000  1.900
õ(2   shel                  Three-body k4    0.0000000    eV*rad^-4 0.000  3.500
                            Three-body k3    0.0000000    eV*rad^-3 
--------------------------------------------------------------------------------
Si    core    Harmonic      Three-body cnst  1.2614000    eV*rad^-2 0.000  1.900
O2    shel                  Three-body angl  109.47000    degrees   0.000  1.900
õ(1   shel                  Three-body k4    0.0000000    eV*rad^-4 0.000  3.500
                            Three-body k3    0.0000000    eV*rad^-3 
--------------------------------------------------------------------------------
Si    core    Harmonic      Three-body cnst  1.2614000    eV*rad^-2 0.000  1.900
õ(1   shel                  Three-body angl  109.47000    degrees   0.000  1.900
õ(2   shel                  Three-body k4    0.0000000    eV*rad^-4 0.000  3.500
                            Three-body k3    0.0000000    eV*rad^-3 
--------------------------------------------------------------------------------
Si    core    Harmonic      Three-body cnst  1.2614000    eV*rad^-2 0.000  1.900
O2    shel                  Three-body angl  109.47000    degrees   0.000  1.900
O2    shel                  Three-body k4    0.0000000    eV*rad^-4 0.000  3.500
                            Three-body k3    0.0000000    eV*rad^-3 
--------------------------------------------------------------------------------
Si    core    Harmonic      Three-body cnst  1.2614000    eV*rad^-2 0.000  1.900
O2    shel                  Three-body angl  109.47000    degrees   0.000  1.900
õ(2   shel                  Three-body k4    0.0000000    eV*rad^-4 0.000  3.500
                            Three-body k3    0.0000000    eV*rad^-3 
--------------------------------------------------------------------------------
Si    core    Harmonic      Three-body cnst  1.2614000    eV*rad^-2 0.000  1.900
õ(2   shel                  Three-body angl  109.47000    degrees   0.000  1.900
õ(2   shel                  Three-body k4    0.0000000    eV*rad^-4 0.000  3.500
                            Three-body k3    0.0000000    eV*rad^-3 
--------------------------------------------------------------------------------

********************************************************************************
*  Output for configuration   1 : c00052.vasp                                  *
********************************************************************************


  Components of energy : 

--------------------------------------------------------------------------------
  Interatomic potentials     =         760.33974970 eV    
  Three-body potentials      =           0.01265442 eV    
  Monopole - monopole (real) =       -2676.00317479 eV    
  Monopole - monopole (recip)=       -1115.35404472 eV    
  Monopole - monopole (total)=       -3791.35721950 eV    
--------------------------------------------------------------------------------
  Total lattice energy       =       -3031.00481539 eV    
--------------------------------------------------------------------------------
  Total lattice energy       =         -292445.6315 kJ/(mole unit cells)
--------------------------------------------------------------------------------


  Number of variables =      363

  Maximum number of calculations  =          1000
  Maximum Hessian update interval =            10
  Maximum step size               =   0.100000000
  Maximum parameter tolerance     =   0.000010000
  Maximum function  tolerance     =   0.000010000
  Maximum gradient  tolerance     =   0.001000000
  Maximum gradient  component     =   0.010000000

  Symmetry not applied to optimisation

  Cell parameters to be optimised using strains

  Newton-Raphson optimiser to be used

  BFGS hessian update to be used

  Lower half triangular hessian to be used

  Minimiser to switch to RFO
  When gradient norm is less than     0.050000

  Dumpfile to be written after every cycle

  Start of bulk optimisation :

  Cycle:      0 Energy:     -3031.004815  Gnorm:      4.346799  CPU:    0.118
  ** Hessian calculated **
  Cycle:      1 Energy:     -3061.894738  Gnorm:      0.977079  CPU:    0.260
  ** Hessian calculated **
  Cycle:      2 Energy:     -3066.382335  Gnorm:      0.448564  CPU:    0.508
  ** Hessian calculated **
  Cycle:      3 Energy:     -3066.867097  Gnorm:      0.224316  CPU:    0.713
  Cycle:      4 Energy:     -3067.015079  Gnorm:      0.145597  CPU:    0.820
  Cycle:      5 Energy:     -3067.150355  Gnorm:      0.116491  CPU:    0.948
  Cycle:      6 Energy:     -3067.280609  Gnorm:      0.096540  CPU:    1.074
  Cycle:      7 Energy:     -3067.376535  Gnorm:      0.083274  CPU:    1.202
  Cycle:      8 Energy:     -3067.420865  Gnorm:      0.068120  CPU:    1.309
  Cycle:      9 Energy:     -3067.449623  Gnorm:      0.059989  CPU:    1.416
  Cycle:     10 Energy:     -3067.471783  Gnorm:      0.055545  CPU:    1.544
  Cycle:     11 Energy:     -3067.493357  Gnorm:      0.057119  CPU:    1.672
  Cycle:     12 Energy:     -3067.519740  Gnorm:      0.060113  CPU:    1.800
  ** Hessian calculated **
  Cycle:     13 Energy:     -3067.536747  Gnorm:      0.059064  CPU:    2.028
  Cycle:     14 Energy:     -3067.565041  Gnorm:      0.057283  CPU:    2.177
  Cycle:     15 Energy:     -3067.598541  Gnorm:      0.055085  CPU:    2.326
  Cycle:     16 Energy:     -3067.612171  Gnorm:      0.054519  CPU:    2.456
  ** Hessian calculated **
  Cycle:     17 Energy:     -3067.678881  Gnorm:      0.050455  CPU:    2.684
  Cycle:     18 Energy:     -3067.780165  Gnorm:      0.045730  CPU:    2.832
  ** Hessian has wrong structure
  ** Imaginary eigenvectors =   2
  Cycle:     19 Energy:     -3067.811432  Gnorm:      0.151430  CPU:    3.160
  ** Hessian has wrong structure
  ** Imaginary eigenvectors =   2
  ** Hessian has wrong structure
  ** Imaginary eigenvectors =   1
  Cycle:     20 Energy:     -3067.929686  Gnorm:      0.155610  CPU:    3.677
  ** Hessian has required structure
  Cycle:     21 Energy:     -3068.143942  Gnorm:      0.092096  CPU:    3.870
  ** Hessian has required structure
  Cycle:     22 Energy:     -3068.231316  Gnorm:      0.052892  CPU:    4.042
  ** Hessian has required structure
  Cycle:     23 Energy:     -3068.279011  Gnorm:      0.035640  CPU:    4.213
  ** Hessian has required structure
  Cycle:     24 Energy:     -3068.308340  Gnorm:      0.024111  CPU:    4.385
  ** Hessian has required structure
  Cycle:     25 Energy:     -3068.322997  Gnorm:      0.022044  CPU:    4.559
  ** Hessian has required structure
  Cycle:     26 Energy:     -3068.333945  Gnorm:      0.023368  CPU:    4.732
  ** Hessian has required structure
  Cycle:     27 Energy:     -3068.339434  Gnorm:      0.017119  CPU:    4.905
  ** Hessian has required structure
  Cycle:     28 Energy:     -3068.344530  Gnorm:      0.016272  CPU:    5.097
  ** Hessian has required structure
  Cycle:     29 Energy:     -3068.349666  Gnorm:      0.017397  CPU:    5.270
  ** Hessian has required structure
  Cycle:     30 Energy:     -3068.355886  Gnorm:      0.016427  CPU:    5.551
  ** Hessian has required structure
  Cycle:     31 Energy:     -3068.360591  Gnorm:      0.011279  CPU:    5.702
  ** Hessian has required structure
  Cycle:     32 Energy:     -3068.363115  Gnorm:      0.008122  CPU:    5.873
  ** Hessian has required structure
  Cycle:     33 Energy:     -3068.364718  Gnorm:      0.004218  CPU:    6.063
  ** Hessian has required structure
  Cycle:     34 Energy:     -3068.365433  Gnorm:      0.005376  CPU:    6.254
  ** Hessian has required structure
  Cycle:     35 Energy:     -3068.366085  Gnorm:      0.003223  CPU:    6.424
  ** Hessian has required structure
  Cycle:     36 Energy:     -3068.366370  Gnorm:      0.002304  CPU:    6.596
  ** Hessian has required structure
  Cycle:     37 Energy:     -3068.366593  Gnorm:      0.001892  CPU:    6.767
  ** Hessian has required structure
  Cycle:     38 Energy:     -3068.366737  Gnorm:      0.001642  CPU:    6.958
  ** Hessian has required structure
  Cycle:     39 Energy:     -3068.366837  Gnorm:      0.001068  CPU:    7.149
  ** Hessian has required structure
  Cycle:     40 Energy:     -3068.366932  Gnorm:      0.000586  CPU:    7.426
  ** Hessian has required structure
  Cycle:     41 Energy:     -3068.366953  Gnorm:      0.000396  CPU:    7.597
  ** Hessian has required structure
  Cycle:     42 Energy:     -3068.366966  Gnorm:      0.000225  CPU:    7.787
  ** Hessian has required structure
  Cycle:     43 Energy:     -3068.366967  Gnorm:      0.000184  CPU:    7.937
  ** Hessian has required structure
  Cycle:     44 Energy:     -3068.366968  Gnorm:      0.000146  CPU:    8.087
  ** Hessian has required structure
  Cycle:     45 Energy:     -3068.366968  Gnorm:      0.000145  CPU:    8.237
  ** Hessian has required structure
  Cycle:     46 Energy:     -3068.366968  Gnorm:      0.000145  CPU:    8.388
  ** Hessian has required structure
  Cycle:     47 Energy:     -3068.366968  Gnorm:      0.000141  CPU:    8.539
  ** Hessian has required structure
  Cycle:     48 Energy:     -3068.366968  Gnorm:      0.000139  CPU:    8.689
  ** Hessian has required structure
  Cycle:     49 Energy:     -3068.366968  Gnorm:      0.000139  CPU:    8.899
  ** Hessian has required structure
  Cycle:     50 Energy:     -3068.366968  Gnorm:      0.000139  CPU:    9.196
  ** Hessian calculated **
  Cycle:     51 Energy:     -3068.366969  Gnorm:      0.000103  CPU:    9.377
  ** Hessian has required structure
  Cycle:     52 Energy:     -3068.366969  Gnorm:      0.000113  CPU:    9.527
  ** Hessian has required structure
  Cycle:     53 Energy:     -3068.366969  Gnorm:      0.000116  CPU:    9.680
  ** Hessian has required structure
  Cycle:     54 Energy:     -3068.366969  Gnorm:      0.000118  CPU:    9.831
  ** Hessian has required structure
  Cycle:     55 Energy:     -3068.366969  Gnorm:      0.000132  CPU:    9.987
  ** Hessian has required structure
  Cycle:     56 Energy:     -3068.366969  Gnorm:      0.000125  CPU:   10.135
  ** Hessian has required structure
  Cycle:     57 Energy:     -3068.366969  Gnorm:      0.000125  CPU:   10.281
  ** Hessian has required structure
  Cycle:     58 Energy:     -3068.366969  Gnorm:      0.000122  CPU:   10.428
  ** Hessian has required structure
  Cycle:     59 Energy:     -3068.366969  Gnorm:      0.000115  CPU:   10.574
  ** Hessian has required structure
  Cycle:     60 Energy:     -3068.366969  Gnorm:      0.000115  CPU:   10.719
  ** Hessian has required structure
  Cycle:     61 Energy:     -3068.366969  Gnorm:      0.000113  CPU:   10.951
  ** Hessian has required structure
  Cycle:     62 Energy:     -3068.366968  Gnorm:      0.000120  CPU:   11.172
  ** Hessian has required structure
  Cycle:     63 Energy:     -3068.366969  Gnorm:      0.000109  CPU:   11.405
  ** Hessian has required structure
  Cycle:     64 Energy:     -3068.366969  Gnorm:      0.000097  CPU:   11.553
  ** Hessian has required structure
  Cycle:     65 Energy:     -3068.366969  Gnorm:      0.000083  CPU:   11.701
  ** Hessian has required structure
  Cycle:     66 Energy:     -3068.366970  Gnorm:      0.000068  CPU:   11.847
  ** Hessian has required structure
  Cycle:     67 Energy:     -3068.366970  Gnorm:      0.000064  CPU:   11.995
  ** Hessian has required structure
  Cycle:     68 Energy:     -3068.366970  Gnorm:      0.000062  CPU:   12.143
  ** Hessian has required structure
  Cycle:     69 Energy:     -3068.366970  Gnorm:      0.000061  CPU:   12.293
  ** Hessian has required structure
  Cycle:     70 Energy:     -3068.366970  Gnorm:      0.000061  CPU:   12.441
  ** Hessian has required structure
  Cycle:     71 Energy:     -3068.366970  Gnorm:      0.000061  CPU:   12.590
  ** Hessian has required structure
  Cycle:     72 Energy:     -3068.366970  Gnorm:      0.000061  CPU:   12.738
  ** Hessian has required structure
  Cycle:     73 Energy:     -3068.366970  Gnorm:      0.000060  CPU:   13.150
  ** Hessian has required structure
  Cycle:     74 Energy:     -3068.366970  Gnorm:      0.000060  CPU:   13.298
  ** Hessian has required structure
  Cycle:     75 Energy:     -3068.366970  Gnorm:      0.000060  CPU:   13.445
  ** Hessian has required structure
  Cycle:     76 Energy:     -3068.366970  Gnorm:      0.000060  CPU:   13.593
  ** Hessian has required structure
  Cycle:     77 Energy:     -3068.366970  Gnorm:      0.000060  CPU:   13.741
  ** Hessian has required structure
  Cycle:     78 Energy:     -3068.366970  Gnorm:      0.000060  CPU:   13.889
  ** Hessian has required structure
  Cycle:     79 Energy:     -3068.366970  Gnorm:      0.000060  CPU:   14.036
  ** Hessian has required structure


  **** Too many failed attempts to optimise ****

  Final energy =   -3068.36696984 eV      
  Final Gnorm  =       0.00006020

  Components of energy : 

--------------------------------------------------------------------------------
  Interatomic potentials     =         816.06209234 eV    
  Three-body potentials      =           0.20617432 eV    
  Monopole - monopole (real) =       -2207.87744496 eV    
  Monopole - monopole (recip)=       -1676.75779154 eV    
  Monopole - monopole (total)=       -3884.63523650 eV    
--------------------------------------------------------------------------------
  Total lattice energy       =       -3068.36696984 eV    
--------------------------------------------------------------------------------
  Total lattice energy       =         -296050.5083 kJ/(mole unit cells)
--------------------------------------------------------------------------------

  Final fractional coordinates of atoms :

--------------------------------------------------------------------------------
   No.  Atomic        x           y          z          Radius
        Label       (Frac)      (Frac)     (Frac)       (Angs) 
--------------------------------------------------------------------------------
     1  Ge    c     0.052090    0.000000    0.372270    0.000000
     2  Ge    c     0.052756    0.008993    0.889682    0.000000
     3  Ge    c     0.833778    0.303818    0.700237    0.000000
     4  Si    c     0.451738    0.019424    0.351157    0.000000
     5  Si    c     0.949280    0.015773    0.628494    0.000000
     6  Si    c     0.546347    0.023326    0.615918    0.000000
     7  Si    c     0.557486    0.014945    0.100197    0.000000
     8  Si    c     0.940857    0.012623    0.129868    0.000000
     9  Si    c     0.442223    0.020607    0.862364    0.000000
    10  Si    c     0.170177    0.291111    0.265496    0.000000
    11  Si    c     0.337206    0.727654    0.269189    0.000000
    12  Si    c     0.661403    0.732634    0.710211    0.000000
    13  Si    c     0.840806    0.714744    0.704341    0.000000
    14  Si    c     0.651651    0.328359    0.705150    0.000000
    15  Si    c     0.158353    0.698991    0.267053    0.000000
    16  Si    c     0.348548    0.325721    0.269038    0.000000
    17  Si    c     0.655458    0.327729    0.012783    0.000000
    18  Si    c     0.845114    0.703515    0.010963    0.000000
    19  Si    c     0.349356    0.333067    0.963040    0.000000
    20  Si    c     0.154513    0.695812    0.964797    0.000000
    21  Si    c     0.333939    0.729385    0.963032    0.000000
    22  Si    c     0.170554    0.294893    0.962825    0.000000
    23  Si    c     0.666192    0.725241    0.016287    0.000000
    24  Si    c     0.834533    0.301715    0.012836    0.000000
    25  O3    c     0.117186    0.170065    0.353857    0.000000
    26  O2    c     0.388913    0.861764    0.353553    0.000000
    27  O3    c     0.892078    0.178388    0.603547    0.000000
    28  O2    c     0.608642    0.867748    0.630113    0.000000
    29  O2    c     0.896015    0.840423    0.620217    0.000000
    30  O2    c     0.588817    0.211228    0.627986    0.000000
    31  O3    c     0.099777    0.803415    0.355576    0.000000
    32  O2    c     0.407078    0.204833    0.352040    0.000000
    33  O3    c     0.020409    0.008268    0.531887    0.000000
    34  O2    c     0.507719    0.007138    0.474827    0.000000
    35  O3    c     0.968496    0.012897    0.279102    0.000000
    36  O2    c     0.504906    0.001174    0.225483    0.000000
    37  O3    c     0.982259    0.037016    0.775250    0.000000
    38  O2    c     0.477936    0.005434    0.719877    0.000000
    39  O2    c     0.599579    0.204161    0.097363    0.000000
    40  O2    c     0.902993    0.823792    0.094607    0.000000
    41  O2    c     0.406252    0.213877    0.878778    0.000000
    42  O3    c     0.095963    0.805232    0.876633    0.000000
    43  O2    c     0.375894    0.872856    0.874045    0.000000
    44  O3    c     0.124629    0.166458    0.869565    0.000000
    45  O2    c     0.621308    0.861121    0.106687    0.000000
    46  O2    c     0.879932    0.169541    0.107723    0.000000
    47  O2    c     0.507704    0.983710    0.969926    0.000000
    48  O3    c     0.015882    0.043716    0.043084    0.000000
    49  O2    c     0.144582    0.491990    0.285089    0.000000
    50  O2    c     0.364254    0.529504    0.301432    0.000000
    51  O3    c     0.860390    0.517873    0.670353    0.000000
    52  O2    c     0.635458    0.533896    0.677717    0.000000
    53  O2    c     0.260708    0.273082    0.305662    0.000000
    54  O2    c     0.247029    0.749354    0.305847    0.000000
    55  O3    c     0.736997    0.278916    0.659676    0.000000
    56  O2    c     0.751051    0.758809    0.670269    0.000000
    57  O2    c     0.160241    0.234492    0.114049    0.000000
    58  O2    c     0.347691    0.771376    0.115860    0.000000
    59  O3    c     0.846368    0.249270    0.863465    0.000000
    60  O2    c     0.653188    0.771900    0.863975    0.000000
    61  O2    c     0.856463    0.749043    0.858587    0.000000
    62  O2    c     0.643501    0.287991    0.859551    0.000000
    63  O2    c     0.141853    0.753129    0.115884    0.000000
    64  O2    c     0.363384    0.290839    0.115907    0.000000
    65  O2    c     0.635017    0.528941    0.044730    0.000000
    66  O2    c     0.866034    0.500047    0.035756    0.000000
    67  O2    c     0.367819    0.536630    0.932355    0.000000
    68  O2    c     0.137074    0.490779    0.945651    0.000000
    69  O2    c     0.744351    0.290237    0.050964    0.000000
    70  O2    c     0.756963    0.739629    0.052712    0.000000
    71  O2    c     0.260811    0.291028    0.924689    0.000000
    72  O2    c     0.243275    0.737219    0.926823    0.000000
    73  O3    s     0.117406    0.168776    0.345950    0.000000
    74  O2    s     0.389867    0.863714    0.343909    0.000000
    75  O3    s     0.892780    0.173088    0.613943    0.000000
    76  O2    s     0.607883    0.869337    0.637729    0.000000
    77  O2    s     0.895476    0.844670    0.630290    0.000000
    78  O2    s     0.591197    0.203900    0.635220    0.000000
    79  O3    s     0.102045    0.808554    0.347591    0.000000
    80  O2    s     0.405378    0.198390    0.342799    0.000000
    81  O3    s     0.015510    0.008369    0.529036    0.000000
    82  O2    s     0.505625    0.010519    0.476809    0.000000
    83  O3    s     0.972535    0.011811    0.271544    0.000000
    84  O2    s     0.505082    0.004956    0.224868    0.000000
    85  O3    s     0.985371    0.032442    0.771134    0.000000
    86  O2    s     0.481507    0.009207    0.724686    0.000000
    87  O2    s     0.601283    0.197663    0.088237    0.000000
    88  O2    s     0.900432    0.829992    0.088835    0.000000
    89  O2    s     0.403777    0.206466    0.886449    0.000000
    90  O3    s     0.098602    0.809953    0.886765    0.000000
    91  O2    s     0.378396    0.872786    0.882933    0.000000
    92  O3    s     0.123855    0.167772    0.881120    0.000000
    93  O2    s     0.619513    0.862375    0.095845    0.000000
    94  O2    s     0.881406    0.167404    0.099456    0.000000
    95  O2    s     0.505877    0.991435    0.972423    0.000000
    96  O3    s     0.011285    0.037688    0.039331    0.000000
    97  O2    s     0.148839    0.493013    0.281026    0.000000
    98  O2    s     0.359685    0.528623    0.294543    0.000000
    99  O3    s     0.856119    0.520949    0.676406    0.000000
   100  O2    s     0.639941    0.533386    0.684087    0.000000
   101  O2    s     0.260536    0.280624    0.297520    0.000000
   102  O2    s     0.247434    0.741778    0.297895    0.000000
   103  O3    s     0.736265    0.285911    0.667560    0.000000
   104  O2    s     0.750885    0.751410    0.678120    0.000000
   105  O2    s     0.162327    0.246468    0.114361    0.000000
   106  O2    s     0.345100    0.762262    0.115824    0.000000
   107  O3    s     0.844164    0.258896    0.865432    0.000000
   108  O2    s     0.655493    0.762666    0.863817    0.000000
   109  O2    s     0.853615    0.740638    0.858974    0.000000
   110  O2    s     0.645646    0.296529    0.859768    0.000000
   111  O2    s     0.144809    0.741938    0.116051    0.000000
   112  O2    s     0.360303    0.299019    0.115833    0.000000
   113  O2    s     0.640508    0.528248    0.038286    0.000000
   114  O2    s     0.860566    0.501152    0.030762    0.000000
   115  O2    s     0.362316    0.535188    0.938839    0.000000
   116  O2    s     0.142528    0.492423    0.949564    0.000000
   117  O2    s     0.744365    0.295696    0.042610    0.000000
   118  O2    s     0.756691    0.734066    0.044191    0.000000
   119  O2    s     0.260782    0.296140    0.933073    0.000000
   120  O2    s     0.243715    0.731872    0.934899    0.000000
--------------------------------------------------------------------------------

  Final Cartesian lattice vectors (Angstroms) :

       17.230547   -0.044485   -0.083588
       -0.018934    7.629755    0.016421
       -0.051256    0.023142   10.214619


  Final cell parameters and derivatives :

--------------------------------------------------------------------------------
       a           17.230807 Angstrom     dE/de1(xx)     0.001585 eV/strain
       b            7.629796 Angstrom     dE/de2(yy)    -0.000081 eV/strain
       c           10.214774 Angstrom     dE/de3(zz)     0.003905 eV/strain
       alpha       89.746171 Degrees      dE/de4(yz)    -0.000279 eV/strain
       beta        90.565786 Degrees      dE/de5(xz)    -0.000247 eV/strain
       gamma       90.290699 Degrees      dE/de6(xy)    -0.000607 eV/strain
--------------------------------------------------------------------------------

  Primitive cell volume =          1342.815605 Angs**3

  Density of cell =      1.948582 g/cm**3

  Non-primitive cell volume =          1342.815605 Angs**3


  Final internal derivatives :

--------------------------------------------------------------------------------
   No.  Atomic          a             b             c           Radius
        Label          (eV)          (eV)          (eV)        (eV/Angs)
--------------------------------------------------------------------------------
      1 Ge    c       0.000000      0.000000      0.000000      0.000000
      2 Ge    c       0.001301      0.000112     -0.000391      0.000000
      3 Ge    c      -0.001775      0.000952      0.000868      0.000000
      4 Si    c      -0.010540      0.000730     -0.000887      0.000000
      5 Si    c       0.001352     -0.000540     -0.000018      0.000000
      6 Si    c       0.002441      0.000792     -0.000401      0.000000
      7 Si    c       0.006153      0.000799     -0.002418      0.000000
      8 Si    c      -0.000928     -0.001238      0.001668      0.000000
      9 Si    c      -0.004656      0.000701     -0.001071      0.000000
     10 Si    c       0.001109      0.000520      0.000281      0.000000
     11 Si    c       0.000327      0.001004      0.002210      0.000000
     12 Si    c       0.001223      0.000023     -0.000941      0.000000
     13 Si    c       0.001654     -0.000320     -0.000267      0.000000
     14 Si    c       0.000582     -0.000656     -0.000861      0.000000
     15 Si    c       0.001159     -0.000344      0.000389      0.000000
     16 Si    c       0.000824     -0.000941      0.001747      0.000000
     17 Si    c      -0.000189     -0.001207      0.000951      0.000000
     18 Si    c       0.000287      0.000187      0.000074      0.000000
     19 Si    c       0.000113     -0.000441     -0.001249      0.000000
     20 Si    c       0.000185     -0.000252     -0.000368      0.000000
     21 Si    c      -0.000161      0.000175     -0.001505      0.000000
     22 Si    c       0.000423      0.000157     -0.000561      0.000000
     23 Si    c       0.000521      0.000811      0.001289      0.000000
     24 Si    c      -0.002138      0.000617     -0.001125      0.000000
     25 O3    c      -0.001403     -0.000096     -0.000012      0.000000
     26 O2    c      -0.001010     -0.001200      0.000044      0.000000
     27 O3    c       0.002052      0.000302     -0.001240      0.000000
     28 O2    c       0.001715     -0.001213      0.000555      0.000000
     29 O2    c       0.000836      0.000397     -0.000683      0.000000
     30 O2    c      -0.000263      0.000187      0.000274      0.000000
     31 O3    c      -0.001045      0.000074      0.000204      0.000000
     32 O2    c       0.000333      0.000399      0.000304      0.000000
     33 O3    c      -0.000332      0.000121     -0.001141      0.000000
     34 O2    c       0.005191     -0.000222      0.002460      0.000000
     35 O3    c       0.000528      0.000158      0.000251      0.000000
     36 O2    c      -0.003005     -0.000192      0.000911      0.000000
     37 O3    c      -0.002922      0.000318     -0.000526      0.000000
     38 O2    c      -0.002491     -0.000272      0.000087      0.000000
     39 O2    c       0.000185      0.001117      0.000510      0.000000
     40 O2    c       0.000541      0.000338      0.000070      0.000000
     41 O2    c       0.000505     -0.000443      0.000286      0.000000
     42 O3    c      -0.001509      0.000175     -0.000101      0.000000
     43 O2    c      -0.000901     -0.000860      0.000495      0.000000
     44 O3    c      -0.000784     -0.000250     -0.000114      0.000000
     45 O2    c       0.001314     -0.001328      0.000172      0.000000
     46 O2    c      -0.001346      0.000620      0.000144      0.000000
     47 O2    c       0.002710     -0.000482     -0.000641      0.000000
     48 O3    c       0.002802      0.000403     -0.001169      0.000000
     49 O2    c       0.000146     -0.000248      0.000071      0.000000
     50 O2    c      -0.000025      0.000034     -0.000580      0.000000
     51 O3    c       0.001676     -0.001248      0.000084      0.000000
     52 O2    c       0.000147      0.001030      0.000144      0.000000
     53 O2    c      -0.000074      0.000416     -0.000321      0.000000
     54 O2    c       0.000250     -0.000259     -0.000332      0.000000
     55 O3    c       0.002218      0.000232     -0.000507      0.000000
     56 O2    c      -0.002189      0.000252     -0.000431      0.000000
     57 O2    c      -0.000216     -0.000238     -0.000084      0.000000
     58 O2    c       0.000463     -0.000263      0.000041      0.000000
     59 O3    c      -0.000918     -0.000092      0.000276      0.000000
     60 O2    c       0.000151      0.000157      0.000202      0.000000
     61 O2    c       0.000388      0.000390      0.000370      0.000000
     62 O2    c      -0.000744      0.000229      0.000418      0.000000
     63 O2    c       0.000047      0.000283     -0.000096      0.000000
     64 O2    c       0.000550      0.000111      0.000107      0.000000
     65 O2    c      -0.000837      0.001210     -0.000297      0.000000
     66 O2    c      -0.000889     -0.001104     -0.000039      0.000000
     67 O2    c      -0.000196     -0.000025      0.000238      0.000000
     68 O2    c       0.000359     -0.000176     -0.000034      0.000000
     69 O2    c       0.001688      0.000178      0.000288      0.000000
     70 O2    c      -0.001048     -0.000033      0.000203      0.000000
     71 O2    c       0.000055      0.000211      0.000146      0.000000
     72 O2    c       0.000453     -0.000195      0.000132      0.000000
     73 O3    s       0.000679     -0.000393      0.000445      0.000000
     74 O2    s      -0.000192      0.000807     -0.000288      0.000000
     75 O3    s      -0.003660      0.000466      0.000587      0.000000
     76 O2    s       0.000398      0.000425      0.000430      0.000000
     77 O2    s      -0.001468     -0.000809      0.000549      0.000000
     78 O2    s       0.000335     -0.000461      0.000373      0.000000
     79 O3    s       0.000058      0.000238      0.000171      0.000000
     80 O2    s      -0.001349     -0.000489     -0.000465      0.000000
     81 O3    s       0.002532     -0.000200      0.000476      0.000000
     82 O2    s       0.000437      0.000164     -0.000584      0.000000
     83 O3    s       0.000553     -0.000231      0.000119      0.000000
     84 O2    s      -0.000249     -0.000472      0.000209      0.000000
     85 O3    s       0.002718     -0.000339      0.001077      0.000000
     86 O2    s      -0.000439      0.000650     -0.000066      0.000000
     87 O2    s       0.001574     -0.000568     -0.000842      0.000000
     88 O2    s      -0.000554     -0.000717     -0.000502      0.000000
     89 O2    s      -0.000079      0.000002     -0.000142      0.000000
     90 O3    s       0.001000      0.000000     -0.000014      0.000000
     91 O2    s       0.000364      0.000819      0.000329      0.000000
     92 O3    s       0.000184     -0.000078      0.000031      0.000000
     93 O2    s       0.001241     -0.000067      0.000137      0.000000
     94 O2    s      -0.000383      0.000595     -0.000483      0.000000
     95 O2    s      -0.001127      0.000086     -0.000999      0.000000
     96 O3    s       0.000470     -0.000319      0.000403      0.000000
     97 O2    s      -0.001178      0.000118     -0.000044      0.000000
     98 O2    s      -0.000296      0.000073      0.000592      0.000000
     99 O3    s      -0.002308      0.000453      0.001239      0.000000
    100 O2    s       0.000120      0.000029      0.000605      0.000000
    101 O2    s       0.001170     -0.000417      0.000182      0.000000
    102 O2    s       0.001617      0.000286      0.000128      0.000000
    103 O3    s      -0.000445      0.000525      0.000925      0.000000
    104 O2    s      -0.001892     -0.000844      0.000736      0.000000
    105 O2    s      -0.000553     -0.000012     -0.000007      0.000000
    106 O2    s      -0.000136      0.000737      0.000003      0.000000
    107 O3    s       0.000004      0.000548      0.000302      0.000000
    108 O2    s       0.000489     -0.000338     -0.000406      0.000000
    109 O2    s      -0.000199     -0.000661     -0.000210      0.000000
    110 O2    s       0.000782     -0.000132     -0.000039      0.000000
    111 O2    s      -0.001032     -0.000024     -0.000154      0.000000
    112 O2    s      -0.000438     -0.000451      0.000145      0.000000
    113 O2    s       0.001143     -0.000385     -0.000339      0.000000
    114 O2    s       0.001115      0.000127     -0.000939      0.000000
    115 O2    s       0.000091      0.000218     -0.000320      0.000000
    116 O2    s      -0.001009      0.000183      0.000098      0.000000
    117 O2    s       0.000484      0.000464     -0.000998      0.000000
    118 O2    s      -0.001455     -0.000254     -0.000583      0.000000
    119 O2    s       0.000412     -0.000224     -0.000196      0.000000
    120 O2    s       0.000638      0.000240     -0.000088      0.000000
--------------------------------------------------------------------------------
  Maximum abs         0.010540      0.001328      0.002460      0.000000
--------------------------------------------------------------------------------


  Born effective charge tensors : 

-------------------------------------------------------------------------------
  Atom             x           y             z
-------------------------------------------------------------------------------
    1 Ge    x       4.3033     -0.0998     -0.4636
            y       0.0842      3.9274      0.0157
            z      -0.2968      0.0435      4.5251
-------------------------------------------------------------------------------
    2 Ge    x       4.3827     -0.2007     -0.0155
            y       0.1499      3.9282     -0.0341
            z       0.7858     -0.0732      3.5769
-------------------------------------------------------------------------------
    3 Ge    x       3.9627     -0.3259     -0.1668
            y      -0.2639      4.1574      0.2119
            z      -0.1567      0.0473      3.4356
-------------------------------------------------------------------------------
    4 Si    x       3.4335     -0.1034      0.0931
            y       0.0995      3.2530      0.0011
            z       0.5585     -0.0192      3.7742
-------------------------------------------------------------------------------
    5 Si    x       3.9947     -0.1157      0.0227
            y      -0.2010      3.4787     -0.0505
            z      -0.9141      0.0905      4.2245
-------------------------------------------------------------------------------
    6 Si    x       3.4075      0.0828      0.2821
            y      -0.1163      3.2446      0.0084
            z       0.3295      0.0500      3.8368
-------------------------------------------------------------------------------
    7 Si    x       3.4820      0.1143     -0.1352
            y      -0.1201      3.2689     -0.0188
            z      -0.5691     -0.0157      3.0597
-------------------------------------------------------------------------------
    8 Si    x       3.9023      0.1347      0.3520
            y      -0.0859      3.3636      0.0034
            z       0.3283     -0.0006      3.6796
-------------------------------------------------------------------------------
    9 Si    x       3.4542     -0.1564     -0.2815
            y       0.1530      3.2678      0.0077
            z      -0.4263      0.0409      3.1374
-------------------------------------------------------------------------------
   10 Si    x       3.4247      0.4231     -0.2698
            y       0.3488      3.6010     -0.3474
            z      -0.2717     -0.1870      2.9674
-------------------------------------------------------------------------------
   11 Si    x       3.1724      0.2936      0.1227
            y       0.2109      3.4691      0.1477
            z       0.1071      0.0742      2.8072
-------------------------------------------------------------------------------
   12 Si    x       3.1962     -0.2796      0.1037
            y      -0.1990      3.4548     -0.1425
            z       0.1193     -0.0878      2.8373
-------------------------------------------------------------------------------
   13 Si    x       3.2905      0.1553     -0.1181
            y       0.1300      3.7151     -0.0514
            z      -0.1296      0.0100      2.8947
-------------------------------------------------------------------------------
   14 Si    x       3.5019      0.1423     -0.0426
            y       0.2406      3.5393      0.1919
            z       0.0456      0.1121      2.9047
-------------------------------------------------------------------------------
   15 Si    x       3.4598     -0.3384     -0.2626
            y      -0.4218      3.5332      0.3617
            z      -0.2745      0.1697      2.9728
-------------------------------------------------------------------------------
   16 Si    x       3.1616     -0.2239      0.0767
            y      -0.2989      3.4422     -0.1567
            z       0.0980     -0.0854      2.8120
-------------------------------------------------------------------------------
   17 Si    x       3.2380      0.2681     -0.1119
            y       0.2481      3.4155     -0.1614
            z      -0.1390     -0.0718      2.7152
-------------------------------------------------------------------------------
   18 Si    x       3.2761      0.2379      0.1191
            y       0.2366      3.3878      0.1608
            z       0.1676      0.0526      2.7221
-------------------------------------------------------------------------------
   19 Si    x       3.2112     -0.2491     -0.1475
            y      -0.2771      3.4138      0.1705
            z      -0.1618      0.0770      2.7318
-------------------------------------------------------------------------------
   20 Si    x       3.5216     -0.3982      0.2982
            y      -0.4022      3.5000     -0.3362
            z       0.2846     -0.1248      2.8273
-------------------------------------------------------------------------------
   21 Si    x       3.1779      0.3264     -0.1709
            y       0.1199      3.4544     -0.1667
            z      -0.1131     -0.0950      2.7448
-------------------------------------------------------------------------------
   22 Si    x       3.4169      0.4747      0.2913
            y       0.2586      3.5835      0.3752
            z       0.2246      0.1667      2.8497
-------------------------------------------------------------------------------
   23 Si    x       3.2360     -0.3207     -0.1536
            y      -0.1398      3.4355      0.1673
            z      -0.1111      0.0671      2.7259
-------------------------------------------------------------------------------
   24 Si    x       3.2876     -0.3127      0.1110
            y      -0.1452      3.5341     -0.1071
            z       0.0892      0.0017      3.0386
-------------------------------------------------------------------------------
   25 O3    x      -2.1449     -0.9758      0.5891
            y      -1.0151     -2.3244      0.5855
            z       0.5902      0.5502     -1.6394
-------------------------------------------------------------------------------
   26 O2    x      -1.7337     -0.7260     -0.2848
            y      -0.7631     -1.9673     -0.3182
            z      -0.3515     -0.3121     -1.3426
-------------------------------------------------------------------------------
   27 O3    x      -2.0713      0.9205      0.2584
            y       0.9820     -2.3620     -0.2770
            z       0.3819     -0.2532     -1.5318
-------------------------------------------------------------------------------
   28 O2    x      -1.7550      0.7433     -0.3499
            y       0.7677     -1.9670      0.3533
            z      -0.3743      0.3536     -1.3513
-------------------------------------------------------------------------------
   29 O2    x      -1.7155     -0.6557      0.2715
            y      -0.6637     -1.8979      0.2878
            z       0.3701      0.2585     -1.3729
-------------------------------------------------------------------------------
   30 O2    x      -1.6407     -0.6982     -0.3245
            y      -0.6666     -2.0230     -0.3391
            z      -0.3389     -0.3370     -1.3556
-------------------------------------------------------------------------------
   31 O3    x      -2.0825      0.9565      0.5959
            y       0.9264     -2.3317     -0.5655
            z       0.5792     -0.5348     -1.6481
-------------------------------------------------------------------------------
   32 O2    x      -1.6466      0.7144     -0.2872
            y       0.6863     -2.0142      0.3058
            z      -0.3570      0.3118     -1.3425
-------------------------------------------------------------------------------
   33 O3    x      -2.1603      0.0433      1.0799
            y       0.0087     -1.2076     -0.0233
            z       1.3508     -0.0736     -3.1526
-------------------------------------------------------------------------------
   34 O2    x      -1.5995     -0.0038     -0.8052
            y       0.0032     -1.0893     -0.0074
            z      -1.0204     -0.0220     -2.7762
-------------------------------------------------------------------------------
   35 O3    x      -2.0613      0.0241     -0.8694
            y       0.0410     -1.2197      0.0234
            z      -0.8866      0.0220     -2.7599
-------------------------------------------------------------------------------
   36 O2    x      -1.7344      0.0016      0.7476
            y       0.0060     -1.1219     -0.0041
            z       0.7525     -0.0045     -2.2171
-------------------------------------------------------------------------------
   37 O3    x      -2.0356      0.0333     -0.9150
            y      -0.0060     -1.2834     -0.0216
            z      -0.8576     -0.0086     -2.7103
-------------------------------------------------------------------------------
   38 O2    x      -1.7069      0.0082      0.6919
            y      -0.0190     -1.1080     -0.0025
            z       0.7010     -0.0221     -2.2195
-------------------------------------------------------------------------------
   39 O2    x      -1.6641     -0.7086      0.3049
            y      -0.6331     -2.0228      0.3353
            z       0.3537      0.3226     -1.2188
-------------------------------------------------------------------------------
   40 O2    x      -1.6750     -0.6777     -0.4048
            y      -0.5778     -2.0226     -0.4386
            z      -0.3688     -0.3994     -1.3020
-------------------------------------------------------------------------------
   41 O2    x      -1.6395      0.6943      0.3662
            y       0.6044     -2.0390     -0.3865
            z       0.3671     -0.3689     -1.2537
-------------------------------------------------------------------------------
   42 O3    x      -2.0940      0.9663     -0.4608
            y       0.8698     -2.3544      0.4361
            z      -0.5319      0.4250     -1.4503
-------------------------------------------------------------------------------
   43 O2    x      -1.7245     -0.7120      0.3640
            y      -0.6878     -1.9479      0.3868
            z       0.3469      0.3609     -1.2655
-------------------------------------------------------------------------------
   44 O3    x      -2.1403     -0.9609     -0.3965
            y      -0.9477     -2.2804     -0.4638
            z      -0.4785     -0.4377     -1.4816
-------------------------------------------------------------------------------
   45 O2    x      -1.7435      0.7211      0.2864
            y       0.6961     -1.9336     -0.3205
            z       0.3301     -0.3119     -1.2427
-------------------------------------------------------------------------------
   46 O2    x      -1.7144      0.6998     -0.3954
            y       0.6441     -1.9658      0.3993
            z      -0.3493      0.3674     -1.2978
-------------------------------------------------------------------------------
   47 O2    x      -1.8153      0.0288     -0.6025
            y       0.0164     -1.1759      0.0068
            z      -0.3428      0.0000     -1.6977
-------------------------------------------------------------------------------
   48 O3    x      -2.3620     -0.0568      0.8429
            y      -0.0705     -1.3208      0.0085
            z       0.4554     -0.0121     -1.9755
-------------------------------------------------------------------------------
   49 O2    x      -1.1954      0.0558      0.0606
            y       0.0928     -2.5146     -0.0120
            z       0.0753      0.0029     -1.0700
-------------------------------------------------------------------------------
   50 O2    x      -1.1464      0.0513     -0.0636
            y       0.0974     -2.5523     -0.0030
            z      -0.0753     -0.0094     -1.0757
-------------------------------------------------------------------------------
   51 O3    x      -1.3156      0.0333      0.0938
            y       0.0023     -3.1886     -0.0923
            z       0.1035     -0.1101     -1.2119
-------------------------------------------------------------------------------
   52 O2    x      -1.1517     -0.0701     -0.0552
            y      -0.1092     -2.5770     -0.0206
            z      -0.0714     -0.0137     -1.0892
-------------------------------------------------------------------------------
   53 O2    x      -2.3602     -0.0878     -0.0245
            y      -0.0352     -1.2532      0.0735
            z      -0.0085      0.0513     -1.0815
-------------------------------------------------------------------------------
   54 O2    x      -2.3739     -0.1016     -0.0165
            y      -0.0614     -1.2590     -0.0793
            z       0.0140     -0.0497     -1.0818
-------------------------------------------------------------------------------
   55 O3    x      -2.9828      0.1489      0.1102
            y       0.1049     -1.4045     -0.1053
            z       0.1070     -0.0785     -1.2329
-------------------------------------------------------------------------------
   56 O2    x      -2.4256      0.0364      0.0260
            y       0.0091     -1.2339      0.0597
            z       0.0317      0.0412     -1.0906
-------------------------------------------------------------------------------
   57 O2    x      -1.2208     -0.1492     -0.0284
            y      -0.1052     -1.3351      0.0041
            z      -0.0160     -0.0035     -1.9854
-------------------------------------------------------------------------------
   58 O2    x      -1.1671     -0.1283      0.0156
            y      -0.0939     -1.2814     -0.0103
            z       0.0010      0.0056     -2.0740
-------------------------------------------------------------------------------
   59 O3    x      -1.3259      0.1512      0.0314
            y       0.1129     -1.4562     -0.1086
            z       0.0196     -0.0618     -2.6041
-------------------------------------------------------------------------------
   60 O2    x      -1.1761      0.1264      0.0005
            y       0.0912     -1.2747      0.0224
            z      -0.0026      0.0070     -2.0811
-------------------------------------------------------------------------------
   61 O2    x      -1.2219     -0.1128     -0.0316
            y      -0.1048     -1.2533      0.0460
            z      -0.0451      0.0569     -2.0895
-------------------------------------------------------------------------------
   62 O2    x      -1.1819     -0.1156     -0.0295
            y      -0.1121     -1.2828      0.0021
            z      -0.0161      0.0078     -2.0920
-------------------------------------------------------------------------------
   63 O2    x      -1.2433      0.1511     -0.0349
            y       0.1394     -1.3177      0.0026
            z      -0.0473     -0.0020     -1.9896
-------------------------------------------------------------------------------
   64 O2    x      -1.1843      0.1203      0.0314
            y       0.1247     -1.2653      0.0086
            z       0.0378      0.0182     -2.0761
-------------------------------------------------------------------------------
   65 O2    x      -1.2147     -0.0451      0.0798
            y      -0.0889     -2.5041     -0.0195
            z       0.0947     -0.0016     -1.0256
-------------------------------------------------------------------------------
   66 O2    x      -1.2485     -0.0370     -0.0683
            y      -0.0872     -2.5440      0.0347
            z      -0.0902      0.0311     -1.0147
-------------------------------------------------------------------------------
   67 O2    x      -1.2108      0.0609      0.0895
            y       0.1282     -2.4988     -0.0007
            z       0.1020     -0.0053     -1.0310
-------------------------------------------------------------------------------
   68 O2    x      -1.2616      0.0628     -0.0826
            y       0.1229     -2.4227     -0.0131
            z      -0.0985     -0.0056     -1.0190
-------------------------------------------------------------------------------
   69 O2    x      -2.4225      0.0746     -0.0218
            y       0.0504     -1.2505      0.0621
            z      -0.0296      0.0384     -1.0364
-------------------------------------------------------------------------------
   70 O2    x      -2.4293      0.0692      0.0242
            y       0.0380     -1.2314     -0.0639
            z      -0.0001     -0.0361     -1.0445
-------------------------------------------------------------------------------
   71 O2    x      -2.3741     -0.0882      0.0315
            y      -0.0468     -1.2390     -0.0689
            z       0.0099     -0.0381     -1.0508
-------------------------------------------------------------------------------
   72 O2    x      -2.4003     -0.1154      0.0269
            y      -0.0804     -1.2485      0.0706
            z       0.0083      0.0377     -1.0489
-------------------------------------------------------------------------------




  Elastic Constant Matrix: (Units=GPa)

-------------------------------------------------------------------------------
  Indices      1         2         3         4         5         6    
-------------------------------------------------------------------------------
       1     52.1645   25.9584   25.0345   -0.2193   -2.4269   -1.1734
       2     25.9584   71.7587   25.1443   -0.6914   -2.4768   -1.4721
       3     25.0345   25.1443   22.2752   -0.3935    0.7769   -1.0697
       4     -0.2193   -0.6914   -0.3935   11.4851   -0.4977    0.0365
       5     -2.4269   -2.4768    0.7769   -0.4977   24.8144    2.2687
       6     -1.1734   -1.4721   -1.0697    0.0365    2.2687   22.8797
-------------------------------------------------------------------------------


  Elastic Compliance Matrix: (Units=1/GPa)

-------------------------------------------------------------------------------
  Indices      1         2         3         4         5         6    
-------------------------------------------------------------------------------
       1    0.042722  0.002731 -0.051350 -0.000512  0.006107 -0.000639
       2    0.002731  0.023477 -0.029689  0.000603  0.003560 -0.000091
       3   -0.051350 -0.029689  0.136726  0.001364 -0.012521  0.003088
       4   -0.000512  0.000603  0.001364  0.087219  0.001738 -0.000235
       5    0.006107  0.003560 -0.012521  0.001738  0.042064 -0.004217
       6   -0.000639 -0.000091  0.003088 -0.000235 -0.004217  0.044231
-------------------------------------------------------------------------------

  Mechanical properties :

-------------------------------------------------------------------------------
  Convention :                    Reuss         Voigt         Hill
-------------------------------------------------------------------------------
  Bulk  Modulus (GPa)     =      21.59359      33.16366      27.37863
  Shear Modulus (GPa)     =       9.11590      16.50659      12.81124
-------------------------------------------------------------------------------
  Velocity S-wave (km/s)  =       2.16292       2.91051       2.56411
  Velocity P-wave (km/s)  =       4.16165       5.32110       4.77669
-------------------------------------------------------------------------------
  Compressibility (1/GPa) =    0.04631003
-------------------------------------------------------------------------------
  Stress axis :                     x             y             z
-------------------------------------------------------------------------------
  Youngs Moduli (GPa)     =      23.40692      42.59424       7.31389
-------------------------------------------------------------------------------
  Poissons Ratio (x)      =                    -0.11634       0.37557
  Poissons Ratio (y)      =      -0.06393                     0.21714
  Poissons Ratio (z)      =       1.20195       1.26457
-------------------------------------------------------------------------------


  Piezoelectric Strain Matrix: (Units=C/m**2)

-------------------------------------------------------------------------------
  Indices      1         2         3         4         5         6    
-------------------------------------------------------------------------------
       x    -0.09320   0.16799  -0.19629   0.20514  -0.11934  -0.16875
       y     0.32002   0.67235  -0.02989  -0.05828   0.32465   0.24760
       z    -0.65244  -0.25099  -0.86670  -0.10019   0.10331   0.04385
-------------------------------------------------------------------------------


  Piezoelectric Stress Matrix: (Units=10**-11 C/N)

-------------------------------------------------------------------------------
  Indices      1         2         3         4         5         6    
-------------------------------------------------------------------------------
       x     0.58308   0.92315  -2.57872   1.76060  -0.14650  -0.75708
       y     1.88976   1.86445  -4.38608  -0.43763   1.72330   0.92379
       z     1.66005   1.83602  -7.88410  -0.95683   0.99607  -0.07091
-------------------------------------------------------------------------------


  Static dielectric constant tensor : 

-------------------------------------------------------------------------------
              x         y         z
-------------------------------------------------------------------------------
       x     3.91566  -0.02524  -0.03422
       y    -0.02524   4.04689  -0.00667
       z    -0.03422  -0.00667   3.39930
--------------------------------------------------------------------------------

  High frequency dielectric constant tensor : 

-------------------------------------------------------------------------------
              x         y         z
-------------------------------------------------------------------------------
       x     1.67618  -0.00035  -0.00112
       y    -0.00035   1.68419   0.00032
       z    -0.00112   0.00032   1.61507
-------------------------------------------------------------------------------

  Static refractive indices : 

-------------------------------------------------------------------------------
    1 =    1.84308      2 =    1.97822      3 =    2.01285
-------------------------------------------------------------------------------

  High frequency refractive indices : 

-------------------------------------------------------------------------------
    1 =    1.27085      2 =    1.29467      3 =    1.29777
-------------------------------------------------------------------------------


  Time to end of optimisation =      14.3756 seconds


  Peak dynamic memory used =       5.01 MB 


  Timing analysis for GULP :

--------------------------------------------------------------------------------
  Task / Subroutine                                          Time (Seconds)
--------------------------------------------------------------------------------
  Calculation of reciprocal space energy and derivatives          0.7937
  Calculation of real space energy and derivatives                8.7485
  Calculation of three-body energy and derivatives                0.8288
  Calculation and manipulation of Hessian matrix                  4.1671
  Calculation of matrix inversion                                 0.0465
  Global summation overhead                                       0.0002
--------------------------------------------------------------------------------
  Total CPU time                                                 14.3756
--------------------------------------------------------------------------------


  Dump file written as c00052.vasp.grs
  CIF file written as c00052.vasp.cif


  Job Finished at 11:35.28  7th October    2025                               

