********************************************************************************
*                       GENERAL UTILITY LATTICE PROGRAM                        *
*                                 Julian Gale                                  *
*                       Curtin Institute for Computation                       *
*                    School of Molecular and Life Sciences                     *
*                    Curtin University, Western Australia                      *
********************************************************************************
* Version = 6.1.2 * Last modified =   3rd November 2022                        *
********************************************************************************
*  optimise     - perform optimisation run                                     *
*  conp         - constant pressure calculation                                *
*  property     - calculate properties for final geometry                      *
********************************************************************************

  Job Started  at 11:42.34  7th October    2025                               

  Number of CPUs =     1


  Total number of configurations input =      1

********************************************************************************
*  Input for Configuration =   1 : c00092.vasp                                 *
********************************************************************************

  Formula = Ge3Si21O48                                                  

  Number of irreducible atoms/shells =     120


  Total number atoms/shells =     120

  Dimensionality = 3               :  Bulk   



  Cartesian lattice vectors (Angstroms) :

       17.182800    0.000000    0.000000
        0.000000    7.513760    0.000000
        0.000000    0.000000   10.447700

  Cell parameters (Angstroms/Degrees):

  a =      17.1828    alpha =  90.0000
  b =       7.5138    beta  =  90.0000
  c =      10.4477    gamma =  90.0000

  Initial cell volume =        1348.875752 Angs**3

  Temperature of configuration =   0.00     K 

  Pressure of configuration =         0.000 GPa 

  Fractional coordinates of asymmetric unit :

--------------------------------------------------------------------------------
   No.  Atomic       x           y          z         Charge      Occupancy
        Label      (Frac)      (Frac)     (Frac)        (e)         (Frac)  
--------------------------------------------------------------------------------
      1 Ge    c    0.052090    0.000000    0.372270     4.00000    1.000000    
      2 Ge    c    0.839810 *  0.293910 *  0.726560 *   4.00000    1.000000    
      3 Ge    c    0.160660 *  0.705910 *  0.982560 *   4.00000    1.000000    
      4 Si    c    0.447910 *  0.000000 *  0.372270 *   4.00000    1.000000    
      5 Si    c    0.947910 *  0.000000 *  0.627730 *   4.00000    1.000000    
      6 Si    c    0.552090 *  0.000000 *  0.627730 *   4.00000    1.000000    
      7 Si    c    0.556730 *  0.000000 *  0.122130 *   4.00000    1.000000    
      8 Si    c    0.943270 *  0.000000 *  0.122130 *   4.00000    1.000000    
      9 Si    c    0.443270 *  0.000000 *  0.877870 *   4.00000    1.000000    
     10 Si    c    0.056730 *  0.000000 *  0.877870 *   4.00000    1.000000    
     11 Si    c    0.160190 *  0.293910 *  0.273440 *   4.00000    1.000000    
     12 Si    c    0.339810 *  0.706090 *  0.273440 *   4.00000    1.000000    
     13 Si    c    0.660190 *  0.706090 *  0.726560 *   4.00000    1.000000    
     14 Si    c    0.839810 *  0.706090 *  0.726560 *   4.00000    1.000000    
     15 Si    c    0.660190 *  0.293910 *  0.726560 *   4.00000    1.000000    
     16 Si    c    0.160190 *  0.706090 *  0.273440 *   4.00000    1.000000    
     17 Si    c    0.339810 *  0.293910 *  0.273440 *   4.00000    1.000000    
     18 Si    c    0.660660 *  0.294090 *  0.017440 *   4.00000    1.000000    
     19 Si    c    0.839340 *  0.705910 *  0.017440 *   4.00000    1.000000    
     20 Si    c    0.339340 *  0.294090 *  0.982560 *   4.00000    1.000000    
     21 Si    c    0.339340 *  0.705910 *  0.982560 *   4.00000    1.000000    
     22 Si    c    0.160660 *  0.294090 *  0.982560 *   4.00000    1.000000    
     23 Si    c    0.660660 *  0.705910 *  0.017440 *   4.00000    1.000000    
     24 Si    c    0.839340 *  0.294090 *  0.017440 *   4.00000    1.000000    
     25 O3    c    0.106570 *  0.174340 *  0.366200 *   1.33043    1.000000    
     26 O2    c    0.393430 *  0.825660 *  0.366200 *   0.87073    1.000000    
     27 O3    c    0.893430 *  0.174340 *  0.633800 *   1.33043    1.000000    
     28 O2    c    0.606570 *  0.825660 *  0.633800 *   0.87073    1.000000    
     29 O2    c    0.893430 *  0.825660 *  0.633800 *   0.87073    1.000000    
     30 O2    c    0.606570 *  0.174340 *  0.633800 *   0.87073    1.000000    
     31 O3    c    0.106570 *  0.825660 *  0.366200 *   1.33043    1.000000    
     32 O2    c    0.393430 *  0.174340 *  0.366200 *   0.87073    1.000000    
     33 O3    c    0.000000 *  0.000000 *  0.500000 *   1.33043    1.000000    
     34 O2    c    0.500000 *  0.000000 *  0.500000 *   0.87073    1.000000    
     35 O3    c    0.994520 *  0.000000 *  0.250840 *   1.33043    1.000000    
     36 O2    c    0.505480 *  0.000000 *  0.250840 *   0.87073    1.000000    
     37 O2    c    0.005480 *  0.000000 *  0.749160 *   0.87073    1.000000    
     38 O2    c    0.494520 *  0.000000 *  0.749160 *   0.87073    1.000000    
     39 O2    c    0.610230 *  0.175520 *  0.115390 *   0.87073    1.000000    
     40 O2    c    0.889770 *  0.824480 *  0.115390 *   0.87073    1.000000    
     41 O2    c    0.389770 *  0.175520 *  0.884610 *   0.87073    1.000000    
     42 O3    c    0.110230 *  0.824480 *  0.884610 *   1.33043    1.000000    
     43 O2    c    0.389770 *  0.824480 *  0.884610 *   0.87073    1.000000    
     44 O2    c    0.110230 *  0.175520 *  0.884610 *   0.87073    1.000000    
     45 O2    c    0.610230 *  0.824480 *  0.115390 *   0.87073    1.000000    
     46 O2    c    0.889770 *  0.175520 *  0.115390 *   0.87073    1.000000    
     47 O2    c    0.500000 *  0.000000 *  0.000000 *   0.87073    1.000000    
     48 O2    c    0.000000 *  0.000000 *  0.000000 *   0.87073    1.000000    
     49 O2    c    0.151750 *  0.500000 *  0.313330 *   0.87073    1.000000    
     50 O2    c    0.348250 *  0.500000 *  0.313330 *   0.87073    1.000000    
     51 O3    c    0.848250 *  0.500000 *  0.686670 *   1.33043    1.000000    
     52 O2    c    0.651750 *  0.500000 *  0.686670 *   0.87073    1.000000    
     53 O2    c    0.250000 *  0.234950 *  0.285720 *   0.87073    1.000000    
     54 O2    c    0.250000 *  0.765050 *  0.285720 *   0.87073    1.000000    
     55 O3    c    0.750000 *  0.234950 *  0.714280 *   1.33043    1.000000    
     56 O2    c    0.750000 *  0.765050 *  0.714280 *   0.87073    1.000000    
     57 O2    c    0.131410 *  0.268650 *  0.127790 *   0.87073    1.000000    
     58 O2    c    0.368590 *  0.731350 *  0.127790 *   0.87073    1.000000    
     59 O3    c    0.868590 *  0.268650 *  0.872210 *   1.33043    1.000000    
     60 O2    c    0.631410 *  0.731350 *  0.872210 *   0.87073    1.000000    
     61 O2    c    0.868590 *  0.731350 *  0.872210 *   0.87073    1.000000    
     62 O2    c    0.631410 *  0.268650 *  0.872210 *   0.87073    1.000000    
     63 O3    c    0.131410 *  0.731350 *  0.127790 *   1.33043    1.000000    
     64 O2    c    0.368590 *  0.268650 *  0.127790 *   0.87073    1.000000    
     65 O2    c    0.653920 *  0.500000 *  0.058200 *   0.87073    1.000000    
     66 O2    c    0.846080 *  0.500000 *  0.058200 *   0.87073    1.000000    
     67 O2    c    0.346080 *  0.500000 *  0.941800 *   0.87073    1.000000    
     68 O3    c    0.153920 *  0.500000 *  0.941800 *   1.33043    1.000000    
     69 O2    c    0.750000 *  0.231060 *  0.027050 *   0.87073    1.000000    
     70 O2    c    0.750000 *  0.768940 *  0.027050 *   0.87073    1.000000    
     71 O2    c    0.250000 *  0.231060 *  0.972950 *   0.87073    1.000000    
     72 O3    c    0.250000 *  0.768940 *  0.972950 *   1.33043    1.000000    
     73 O3    s    0.106570 *  0.174340 *  0.366200 *  -3.33043    1.000000    
     74 O2    s    0.393430 *  0.825660 *  0.366200 *  -2.87073    1.000000    
     75 O3    s    0.893430 *  0.174340 *  0.633800 *  -3.33043    1.000000    
     76 O2    s    0.606570 *  0.825660 *  0.633800 *  -2.87073    1.000000    
     77 O2    s    0.893430 *  0.825660 *  0.633800 *  -2.87073    1.000000    
     78 O2    s    0.606570 *  0.174340 *  0.633800 *  -2.87073    1.000000    
     79 O3    s    0.106570 *  0.825660 *  0.366200 *  -3.33043    1.000000    
     80 O2    s    0.393430 *  0.174340 *  0.366200 *  -2.87073    1.000000    
     81 O3    s    0.000000 *  0.000000 *  0.500000 *  -3.33043    1.000000    
     82 O2    s    0.500000 *  0.000000 *  0.500000 *  -2.87073    1.000000    
     83 O3    s    0.994520 *  0.000000 *  0.250840 *  -3.33043    1.000000    
     84 O2    s    0.505480 *  0.000000 *  0.250840 *  -2.87073    1.000000    
     85 O2    s    0.005480 *  0.000000 *  0.749160 *  -2.87073    1.000000    
     86 O2    s    0.494520 *  0.000000 *  0.749160 *  -2.87073    1.000000    
     87 O2    s    0.610230 *  0.175520 *  0.115390 *  -2.87073    1.000000    
     88 O2    s    0.889770 *  0.824480 *  0.115390 *  -2.87073    1.000000    
     89 O2    s    0.389770 *  0.175520 *  0.884610 *  -2.87073    1.000000    
     90 O3    s    0.110230 *  0.824480 *  0.884610 *  -3.33043    1.000000    
     91 O2    s    0.389770 *  0.824480 *  0.884610 *  -2.87073    1.000000    
     92 O2    s    0.110230 *  0.175520 *  0.884610 *  -2.87073    1.000000    
     93 O2    s    0.610230 *  0.824480 *  0.115390 *  -2.87073    1.000000    
     94 O2    s    0.889770 *  0.175520 *  0.115390 *  -2.87073    1.000000    
     95 O2    s    0.500000 *  0.000000 *  0.000000 *  -2.87073    1.000000    
     96 O2    s    0.000000 *  0.000000 *  0.000000 *  -2.87073    1.000000    
     97 O2    s    0.151750 *  0.500000 *  0.313330 *  -2.87073    1.000000    
     98 O2    s    0.348250 *  0.500000 *  0.313330 *  -2.87073    1.000000    
     99 O3    s    0.848250 *  0.500000 *  0.686670 *  -3.33043    1.000000    
    100 O2    s    0.651750 *  0.500000 *  0.686670 *  -2.87073    1.000000    
    101 O2    s    0.250000 *  0.234950 *  0.285720 *  -2.87073    1.000000    
    102 O2    s    0.250000 *  0.765050 *  0.285720 *  -2.87073    1.000000    
    103 O3    s    0.750000 *  0.234950 *  0.714280 *  -3.33043    1.000000    
    104 O2    s    0.750000 *  0.765050 *  0.714280 *  -2.87073    1.000000    
    105 O2    s    0.131410 *  0.268650 *  0.127790 *  -2.87073    1.000000    
    106 O2    s    0.368590 *  0.731350 *  0.127790 *  -2.87073    1.000000    
    107 O3    s    0.868590 *  0.268650 *  0.872210 *  -3.33043    1.000000    
    108 O2    s    0.631410 *  0.731350 *  0.872210 *  -2.87073    1.000000    
    109 O2    s    0.868590 *  0.731350 *  0.872210 *  -2.87073    1.000000    
    110 O2    s    0.631410 *  0.268650 *  0.872210 *  -2.87073    1.000000    
    111 O3    s    0.131410 *  0.731350 *  0.127790 *  -3.33043    1.000000    
    112 O2    s    0.368590 *  0.268650 *  0.127790 *  -2.87073    1.000000    
    113 O2    s    0.653920 *  0.500000 *  0.058200 *  -2.87073    1.000000    
    114 O2    s    0.846080 *  0.500000 *  0.058200 *  -2.87073    1.000000    
    115 O2    s    0.346080 *  0.500000 *  0.941800 *  -2.87073    1.000000    
    116 O3    s    0.153920 *  0.500000 *  0.941800 *  -3.33043    1.000000    
    117 O2    s    0.750000 *  0.231060 *  0.027050 *  -2.87073    1.000000    
    118 O2    s    0.750000 *  0.768940 *  0.027050 *  -2.87073    1.000000    
    119 O2    s    0.250000 *  0.231060 *  0.972950 *  -2.87073    1.000000    
    120 O3    s    0.250000 *  0.768940 *  0.972950 *  -3.33043    1.000000    
--------------------------------------------------------------------------------



********************************************************************************
*  General input information                                                   *
********************************************************************************

  Species output for all configurations : 

--------------------------------------------------------------------------------
  Species    Type    Atomic    Atomic    Charge       Radii (Angs)     Library
                     Number     Mass       (e)     Cova   Ionic  VDW   Symbol
--------------------------------------------------------------------------------
    Ge       Core       32      72.61   4.000000   1.170  0.000  1.750 Ge       
    Si       Core       14      28.09   4.000000   1.200  0.000  2.100 Si       
    O1       Core        8      16.00   1.733957   0.730  0.000  0.000 O1       
    O2       Core        8      16.00   0.870733   0.730  0.000  1.360 O2       
    O3       Core        8      16.00   1.330431   0.730  0.000  1.360 O3       
    O1       Shell       8       0.00  -3.733957   0.730  0.000  0.000 O1       
    O2       Shell       8       0.00  -2.870733   0.730  0.000  0.000 O2       
    O3       Shell       8       0.00  -3.330431   0.730  0.000  0.000 O3       
--------------------------------------------------------------------------------


  Lattice summation method               =    Ewald          (3-D)
                                         =    Parry          (2-D)
                                         =    Saunders et al (1-D)
  Accuracy factor for lattice sums       =   12.000


  Analytic derivatives to be used

  Time limit = Infinity

  Maximum range for interatomic potentials =    100000.000000 Angstroms

  General interatomic potentials :

--------------------------------------------------------------------------------
Atom  Types   Potential      Parameter       Value         Units   Cutoffs(Ang)
  1     2                                                            Min /  Max 
--------------------------------------------------------------------------------
Si   c O1   s Buckingham    Buckingham A     1315.2478    eV        0.000 16.000
                            Buckingham rho  0.31775900    Ang       
                            Buckingham C     10.141118    eV*Ang^6  
--------------------------------------------------------------------------------
Si   c O2   s Buckingham    Buckingham A     1315.2478    eV        0.000 16.000
                            Buckingham rho  0.31775900    Ang       
                            Buckingham C     10.141118    eV*Ang^6  
--------------------------------------------------------------------------------
Si   c O3   s Buckingham    Buckingham A     1315.2478    eV        0.000 16.000
                            Buckingham rho  0.31775900    Ang       
                            Buckingham C     10.141118    eV*Ang^6  
--------------------------------------------------------------------------------
Ge   c O1   s Buckingham    Buckingham A     1497.3996    eV        0.000 16.000
                            Buckingham rho  0.32564600    Ang       
                            Buckingham C     16.808599    eV*Ang^6  
--------------------------------------------------------------------------------
Ge   c O2   s Buckingham    Buckingham A     1497.3996    eV        0.000 16.000
                            Buckingham rho  0.32564600    Ang       
                            Buckingham C     16.808599    eV*Ang^6  
--------------------------------------------------------------------------------
Ge   c O3   s Buckingham    Buckingham A     1497.3996    eV        0.000 16.000
                            Buckingham rho  0.32564600    Ang       
                            Buckingham C     16.808599    eV*Ang^6  
--------------------------------------------------------------------------------
O1   s O1   s Buckingham    Buckingham A     22764.000    eV        0.000 16.000
                            Buckingham rho  0.14900000    Ang       
                            Buckingham C     10.937044    eV*Ang^6  
--------------------------------------------------------------------------------
O1   s O2   s Buckingham    Buckingham A     22764.000    eV        0.000 16.000
                            Buckingham rho  0.14900000    Ang       
                            Buckingham C     10.937044    eV*Ang^6  
--------------------------------------------------------------------------------
O1   s O3   s Buckingham    Buckingham A     22764.000    eV        0.000 16.000
                            Buckingham rho  0.14900000    Ang       
                            Buckingham C     10.937044    eV*Ang^6  
--------------------------------------------------------------------------------
O2   s O2   s Buckingham    Buckingham A     22764.000    eV        0.000 16.000
                            Buckingham rho  0.14900000    Ang       
                            Buckingham C     10.937044    eV*Ang^6  
--------------------------------------------------------------------------------
O2   s O3   s Buckingham    Buckingham A     22764.000    eV        0.000 16.000
                            Buckingham rho  0.14900000    Ang       
                            Buckingham C     10.937044    eV*Ang^6  
--------------------------------------------------------------------------------
O3   s O3   s Buckingham    Buckingham A     22764.000    eV        0.000 16.000
                            Buckingham rho  0.14900000    Ang       
                            Buckingham C     10.937044    eV*Ang^6  
--------------------------------------------------------------------------------
O1   c O1   s Spring (c-s)  Spring k 2       180.31577    eV*Ang^-2 0.000  0.800
                            Spring k 4       0.0000000    eV*Ang^-4 
--------------------------------------------------------------------------------
O2   c O2   s Spring (c-s)  Spring k 2       75.969800    eV*Ang^-2 0.000  0.800
                            Spring k 4       0.0000000    eV*Ang^-4 
--------------------------------------------------------------------------------
O3   c O3   s Spring (c-s)  Spring k 2       128.14270    eV*Ang^-2 0.000  0.800
                            Spring k 4       0.0000000    eV*Ang^-4 
--------------------------------------------------------------------------------

  General Three-body potentials :

--------------------------------------------------------------------------------
  Atoms       Potential      Parameter       Value         Units   Cutoffs(Ang)
  1 / 2 / 3                                                          Min /  Max 
--------------------------------------------------------------------------------
Si    core    Harmonic      Three-body cnst  1.2614000    eV*rad^-2 0.000  1.900
O1    shel                  Three-body angl  109.47000    degrees   0.000  1.900
O1    shel                  Three-body k4    0.0000000    eV*rad^-4 0.000  3.500
                            Three-body k3    0.0000000    eV*rad^-3 
--------------------------------------------------------------------------------
Si    core    Harmonic      Three-body cnst  1.2614000    eV*rad^-2 0.000  1.900
O1    shel                  Three-body angl  109.47000    degrees   0.000  1.900
õ(1   shel                  Three-body k4    0.0000000    eV*rad^-4 0.000  3.500
                            Three-body k3    0.0000000    eV*rad^-3 
--------------------------------------------------------------------------------
Si    core    Harmonic      Three-body cnst  1.2614000    eV*rad^-2 0.000  1.900
õ(1   shel                  Three-body angl  109.47000    degrees   0.000  1.900
õ(1   shel                  Three-body k4    0.0000000    eV*rad^-4 0.000  3.500
                            Three-body k3    0.0000000    eV*rad^-3 
--------------------------------------------------------------------------------
Si    core    Harmonic      Three-body cnst  1.2614000    eV*rad^-2 0.000  1.900
O1    shel                  Three-body angl  109.47000    degrees   0.000  1.900
O2    shel                  Three-body k4    0.0000000    eV*rad^-4 0.000  3.500
                            Three-body k3    0.0000000    eV*rad^-3 
--------------------------------------------------------------------------------
Si    core    Harmonic      Three-body cnst  1.2614000    eV*rad^-2 0.000  1.900
O1    shel                  Three-body angl  109.47000    degrees   0.000  1.900
õ(2   shel                  Three-body k4    0.0000000    eV*rad^-4 0.000  3.500
                            Three-body k3    0.0000000    eV*rad^-3 
--------------------------------------------------------------------------------
Si    core    Harmonic      Three-body cnst  1.2614000    eV*rad^-2 0.000  1.900
O2    shel                  Three-body angl  109.47000    degrees   0.000  1.900
õ(1   shel                  Three-body k4    0.0000000    eV*rad^-4 0.000  3.500
                            Three-body k3    0.0000000    eV*rad^-3 
--------------------------------------------------------------------------------
Si    core    Harmonic      Three-body cnst  1.2614000    eV*rad^-2 0.000  1.900
õ(1   shel                  Three-body angl  109.47000    degrees   0.000  1.900
õ(2   shel                  Three-body k4    0.0000000    eV*rad^-4 0.000  3.500
                            Three-body k3    0.0000000    eV*rad^-3 
--------------------------------------------------------------------------------
Si    core    Harmonic      Three-body cnst  1.2614000    eV*rad^-2 0.000  1.900
O2    shel                  Three-body angl  109.47000    degrees   0.000  1.900
O2    shel                  Three-body k4    0.0000000    eV*rad^-4 0.000  3.500
                            Three-body k3    0.0000000    eV*rad^-3 
--------------------------------------------------------------------------------
Si    core    Harmonic      Three-body cnst  1.2614000    eV*rad^-2 0.000  1.900
O2    shel                  Three-body angl  109.47000    degrees   0.000  1.900
õ(2   shel                  Three-body k4    0.0000000    eV*rad^-4 0.000  3.500
                            Three-body k3    0.0000000    eV*rad^-3 
--------------------------------------------------------------------------------
Si    core    Harmonic      Three-body cnst  1.2614000    eV*rad^-2 0.000  1.900
õ(2   shel                  Three-body angl  109.47000    degrees   0.000  1.900
õ(2   shel                  Three-body k4    0.0000000    eV*rad^-4 0.000  3.500
                            Three-body k3    0.0000000    eV*rad^-3 
--------------------------------------------------------------------------------

********************************************************************************
*  Output for configuration   1 : c00092.vasp                                  *
********************************************************************************


  Components of energy : 

--------------------------------------------------------------------------------
  Interatomic potentials     =         760.30861002 eV    
  Three-body potentials      =           0.01427038 eV    
  Monopole - monopole (real) =       -2676.00317478 eV    
  Monopole - monopole (recip)=       -1115.35404472 eV    
  Monopole - monopole (total)=       -3791.35721950 eV    
--------------------------------------------------------------------------------
  Total lattice energy       =       -3031.03433910 eV    
--------------------------------------------------------------------------------
  Total lattice energy       =         -292448.4801 kJ/(mole unit cells)
--------------------------------------------------------------------------------


  Number of variables =      363

  Maximum number of calculations  =          1000
  Maximum Hessian update interval =            10
  Maximum step size               =   0.100000000
  Maximum parameter tolerance     =   0.000010000
  Maximum function  tolerance     =   0.000010000
  Maximum gradient  tolerance     =   0.001000000
  Maximum gradient  component     =   0.010000000

  Symmetry not applied to optimisation

  Cell parameters to be optimised using strains

  Newton-Raphson optimiser to be used

  BFGS hessian update to be used

  Lower half triangular hessian to be used

  Minimiser to switch to RFO
  When gradient norm is less than     0.050000

  Dumpfile to be written after every cycle

  Start of bulk optimisation :

  Cycle:      0 Energy:     -3031.034339  Gnorm:      4.405181  CPU:    0.108
  ** Hessian calculated **
  Cycle:      1 Energy:     -3044.512800  Gnorm:      3.511065  CPU:    0.299
  ** Hessian calculated **
  Cycle:      2 Energy:     -3063.745780  Gnorm:      0.786034  CPU:    0.501
  ** Hessian calculated **
  Cycle:      3 Energy:     -3065.380316  Gnorm:      0.448880  CPU:    0.702
  Cycle:      4 Energy:     -3065.949688  Gnorm:      0.298178  CPU:    0.808
  Cycle:      5 Energy:     -3066.443316  Gnorm:      0.232785  CPU:    0.934
  Cycle:      6 Energy:     -3066.883546  Gnorm:      0.179942  CPU:    1.058
  Cycle:      7 Energy:     -3067.139626  Gnorm:      0.145995  CPU:    1.164
  Cycle:      8 Energy:     -3067.291641  Gnorm:      0.106475  CPU:    1.270
  Cycle:      9 Energy:     -3067.370929  Gnorm:      0.076179  CPU:    1.379
  Cycle:     10 Energy:     -3067.414840  Gnorm:      0.059913  CPU:    1.510
  Cycle:     11 Energy:     -3067.447578  Gnorm:      0.055636  CPU:    1.641
  Cycle:     12 Energy:     -3067.485115  Gnorm:      0.060949  CPU:    1.770
  ** Hessian calculated **
  Cycle:     13 Energy:     -3067.497932  Gnorm:      0.060231  CPU:    2.002
  Cycle:     14 Energy:     -3067.518170  Gnorm:      0.059056  CPU:    2.152
  Cycle:     15 Energy:     -3067.542581  Gnorm:      0.057503  CPU:    2.302
  Cycle:     16 Energy:     -3067.558660  Gnorm:      0.056214  CPU:    2.432
  ** Hessian calculated **
  Cycle:     17 Energy:     -3067.611813  Gnorm:      0.054191  CPU:    2.660
  Cycle:     18 Energy:     -3067.744421  Gnorm:      0.049745  CPU:    2.809
  ** Hessian has wrong structure
  ** Imaginary eigenvectors =   2
  Cycle:     19 Energy:     -3067.801679  Gnorm:      0.094008  CPU:    3.102
  ** Hessian has wrong structure
  ** Imaginary eigenvectors =   2
  ** Hessian has required structure
  Cycle:     20 Energy:     -3067.948768  Gnorm:      0.086208  CPU:    3.615
  ** Hessian has required structure
  Cycle:     21 Energy:     -3068.216012  Gnorm:      0.054339  CPU:    3.779
  ** Hessian has required structure
  Cycle:     22 Energy:     -3068.242245  Gnorm:      0.039056  CPU:    3.941
  ** Hessian has required structure
  Cycle:     23 Energy:     -3068.269027  Gnorm:      0.023389  CPU:    4.123
  ** Hessian has required structure
  Cycle:     24 Energy:     -3068.296287  Gnorm:      0.023877  CPU:    4.285
  ** Hessian has required structure
  Cycle:     25 Energy:     -3068.317562  Gnorm:      0.021555  CPU:    4.466
  ** Hessian has required structure
  Cycle:     26 Energy:     -3068.337717  Gnorm:      0.020963  CPU:    4.647
  ** Hessian has required structure
  Cycle:     27 Energy:     -3068.353685  Gnorm:      0.019502  CPU:    4.808
  ** Hessian has required structure
  Cycle:     28 Energy:     -3068.369147  Gnorm:      0.023621  CPU:    4.989
  ** Hessian has required structure
  Cycle:     29 Energy:     -3068.375788  Gnorm:      0.017207  CPU:    5.136
  ** Hessian has wrong structure
  ** Imaginary eigenvectors =   1
  ** Hessian has required structure
  Cycle:     30 Energy:     -3068.381610  Gnorm:      0.015226  CPU:    5.651
  ** Hessian has required structure
  Cycle:     31 Energy:     -3068.385639  Gnorm:      0.008940  CPU:    5.814
  ** Hessian has required structure
  Cycle:     32 Energy:     -3068.387091  Gnorm:      0.003980  CPU:    5.976
  ** Hessian has required structure
  Cycle:     33 Energy:     -3068.387440  Gnorm:      0.002348  CPU:    6.139
  ** Hessian has required structure
  Cycle:     34 Energy:     -3068.387551  Gnorm:      0.001252  CPU:    6.304
  ** Hessian has required structure
  Cycle:     35 Energy:     -3068.387593  Gnorm:      0.000813  CPU:    6.468
  ** Hessian has required structure
  Cycle:     36 Energy:     -3068.387608  Gnorm:      0.000430  CPU:    6.633
  ** Hessian has required structure
  Cycle:     37 Energy:     -3068.387613  Gnorm:      0.000288  CPU:    6.799
  ** Hessian has required structure
  Cycle:     38 Energy:     -3068.387615  Gnorm:      0.000208  CPU:    6.944
  ** Hessian has required structure
  Cycle:     39 Energy:     -3068.387615  Gnorm:      0.000196  CPU:    7.089
  ** Hessian has required structure
  Cycle:     40 Energy:     -3068.387615  Gnorm:      0.000192  CPU:    7.328
  ** Hessian has required structure
  Cycle:     41 Energy:     -3068.387615  Gnorm:      0.000190  CPU:    7.464
  ** Hessian has required structure
  Cycle:     42 Energy:     -3068.387615  Gnorm:      0.000189  CPU:    7.599
  ** Hessian has required structure
  Cycle:     43 Energy:     -3068.387615  Gnorm:      0.000188  CPU:    7.735
  ** Hessian has required structure
  Cycle:     44 Energy:     -3068.387615  Gnorm:      0.000188  CPU:    7.871
  ** Hessian has required structure
  Cycle:     45 Energy:     -3068.387615  Gnorm:      0.000187  CPU:    8.006
  ** Hessian has required structure
  Cycle:     46 Energy:     -3068.387615  Gnorm:      0.000186  CPU:    8.143
  ** Hessian has required structure
  Cycle:     47 Energy:     -3068.387615  Gnorm:      0.000186  CPU:    8.283
  ** Hessian has required structure
  Cycle:     48 Energy:     -3068.387615  Gnorm:      0.000185  CPU:    8.419
  ** Hessian has required structure
  Cycle:     49 Energy:     -3068.387615  Gnorm:      0.000169  CPU:    8.647
  ** Hessian has required structure
  Cycle:     50 Energy:     -3068.387615  Gnorm:      0.000119  CPU:    8.864
  ** Hessian has required structure
  Cycle:     51 Energy:     -3068.387615  Gnorm:      0.000083  CPU:    8.997
  ** Hessian has required structure
  Cycle:     52 Energy:     -3068.387616  Gnorm:      0.000066  CPU:    9.133
  ** Hessian has required structure


  **** Optimisation achieved ****


  Final energy =   -3068.38761556 eV      
  Final Gnorm  =       0.00006234

  Components of energy : 

--------------------------------------------------------------------------------
  Interatomic potentials     =         815.38137311 eV    
  Three-body potentials      =           0.19350594 eV    
  Monopole - monopole (real) =       -2207.90546301 eV    
  Monopole - monopole (recip)=       -1676.05703160 eV    
  Monopole - monopole (total)=       -3883.96249461 eV    
--------------------------------------------------------------------------------
  Total lattice energy       =       -3068.38761556 eV    
--------------------------------------------------------------------------------
  Total lattice energy       =         -296052.5003 kJ/(mole unit cells)
--------------------------------------------------------------------------------

  Final fractional coordinates of atoms :

--------------------------------------------------------------------------------
   No.  Atomic        x           y          z          Radius
        Label       (Frac)      (Frac)     (Frac)       (Angs) 
--------------------------------------------------------------------------------
     1  Ge    c     0.052090    0.000000    0.372270    0.000000
     2  Ge    c     0.833094    0.306400    0.698852    0.000000
     3  Ge    c     0.147928    0.684780    0.959797    0.000000
     4  Si    c     0.451318    0.015789    0.356930    0.000000
     5  Si    c     0.947292    0.016381    0.627782    0.000000
     6  Si    c     0.544355    0.015516    0.623938    0.000000
     7  Si    c     0.555548    0.008446    0.112089    0.000000
     8  Si    c     0.938179    0.006654    0.125339    0.000000
     9  Si    c     0.438657    0.003703    0.874207    0.000000
    10  Si    c     0.046959    0.995660    0.884612    0.000000
    11  Si    c     0.168072    0.292127    0.272531    0.000000
    12  Si    c     0.336424    0.719875    0.259286    0.000000
    13  Si    c     0.657700    0.724763    0.708047    0.000000
    14  Si    c     0.838169    0.716765    0.709031    0.000000
    15  Si    c     0.651341    0.321492    0.699200    0.000000
    16  Si    c     0.159171    0.700757    0.268639    0.000000
    17  Si    c     0.346303    0.317969    0.266851    0.000000
    18  Si    c     0.654596    0.316816    0.007267    0.000000
    19  Si    c     0.839902    0.701017    0.013803    0.000000
    20  Si    c     0.340762    0.312841    0.961622    0.000000
    21  Si    c     0.329360    0.707754    0.950666    0.000000
    22  Si    c     0.161175    0.279079    0.969754    0.000000
    23  Si    c     0.660223    0.714859    0.012884    0.000000
    24  Si    c     0.832982    0.299039    0.011120    0.000000
    25  O3    c     0.115698    0.174849    0.363678    0.000000
    26  O2    c     0.392238    0.855122    0.333933    0.000000
    27  O3    c     0.892763    0.182833    0.603536    0.000000
    28  O2    c     0.606696    0.858680    0.622821    0.000000
    29  O2    c     0.890617    0.846857    0.625010    0.000000
    30  O2    c     0.589209    0.201579    0.620983    0.000000
    31  O3    c     0.102329    0.807070    0.359183    0.000000
    32  O2    c     0.405720    0.199289    0.349382    0.000000
    33  O3    c     0.015367    0.999626    0.527698    0.000000
    34  O2    c     0.487830    0.997677    0.500253    0.000000
    35  O3    c     0.972126    0.015885    0.270326    0.000000
    36  O2    c     0.521355    0.011200    0.256054    0.000000
    37  O2    c     0.985966    0.041313    0.771663    0.000000
    38  O2    c     0.492962    0.999732    0.751337    0.000000
    39  O2    c     0.599004    0.191952    0.088812    0.000000
    40  O2    c     0.893277    0.821656    0.106597    0.000000
    41  O2    c     0.392590    0.186693    0.874438    0.000000
    42  O3    c     0.081442    0.803032    0.868804    0.000000
    43  O2    c     0.378476    0.842417    0.864575    0.000000
    44  O2    c     0.118995    0.132265    0.881798    0.000000
    45  O2    c     0.614725    0.846791    0.104845    0.000000
    46  O2    c     0.880809    0.170052    0.105111    0.000000
    47  O2    c     0.487223    0.979872    0.007349    0.000000
    48  O2    c     0.008465    0.018544    0.025584    0.000000
    49  O2    c     0.142905    0.493904    0.283688    0.000000
    50  O2    c     0.365203    0.522779    0.290429    0.000000
    51  O3    c     0.860599    0.521044    0.675895    0.000000
    52  O2    c     0.631939    0.526018    0.675244    0.000000
    53  O2    c     0.258929    0.274722    0.311253    0.000000
    54  O2    c     0.248741    0.743496    0.308559    0.000000
    55  O3    c     0.737022    0.281688    0.651661    0.000000
    56  O2    c     0.747806    0.750914    0.673638    0.000000
    57  O2    c     0.155377    0.227890    0.122939    0.000000
    58  O2    c     0.335816    0.756615    0.104293    0.000000
    59  O3    c     0.842444    0.246242    0.861351    0.000000
    60  O2    c     0.646166    0.766333    0.861363    0.000000
    61  O2    c     0.853296    0.754601    0.863364    0.000000
    62  O2    c     0.645890    0.276334    0.853317    0.000000
    63  O3    c     0.142652    0.756439    0.119524    0.000000
    64  O2    c     0.356078    0.270644    0.114330    0.000000
    65  O2    c     0.630701    0.516767    0.037132    0.000000
    66  O2    c     0.863238    0.498412    0.034020    0.000000
    67  O2    c     0.363356    0.512859    0.929205    0.000000
    68  O3    c     0.123273    0.466671    0.945252    0.000000
    69  O2    c     0.743204    0.284939    0.051326    0.000000
    70  O2    c     0.750773    0.729836    0.050279    0.000000
    71  O2    c     0.250466    0.284016    0.926922    0.000000
    72  O3    c     0.240877    0.715569    0.904398    0.000000
    73  O3    s     0.116039    0.172966    0.354705    0.000000
    74  O2    s     0.392352    0.857385    0.327846    0.000000
    75  O3    s     0.893168    0.176774    0.613749    0.000000
    76  O2    s     0.605755    0.860477    0.632486    0.000000
    77  O2    s     0.890755    0.850111    0.634627    0.000000
    78  O2    s     0.591219    0.194826    0.629800    0.000000
    79  O3    s     0.104094    0.811974    0.350800    0.000000
    80  O2    s     0.403976    0.192825    0.340962    0.000000
    81  O3    s     0.011053    0.001481    0.525453    0.000000
    82  O2    s     0.490214    0.001901    0.498039    0.000000
    83  O3    s     0.975256    0.013581    0.263548    0.000000
    84  O2    s     0.517452    0.011400    0.250803    0.000000
    85  O2    s     0.988880    0.033396    0.769467    0.000000
    86  O2    s     0.492402    0.002048    0.751390    0.000000
    87  O2    s     0.600580    0.186006    0.081987    0.000000
    88  O2    s     0.892042    0.827615    0.098157    0.000000
    89  O2    s     0.391747    0.181150    0.884185    0.000000
    90  O3    s     0.083409    0.812401    0.877672    0.000000
    91  O2    s     0.379544    0.845002    0.875208    0.000000
    92  O2    s     0.116133    0.134209    0.891875    0.000000
    93  O2    s     0.613450    0.849436    0.095186    0.000000
    94  O2    s     0.881673    0.166776    0.096727    0.000000
    95  O2    s     0.489551    0.985819    0.004298    0.000000
    96  O2    s     0.004861    0.014773    0.021378    0.000000
    97  O2    s     0.147384    0.494289    0.280886    0.000000
    98  O2    s     0.360141    0.521638    0.284623    0.000000
    99  O3    s     0.855974    0.523792    0.681247    0.000000
   100  O2    s     0.636748    0.525696    0.681293    0.000000
   101  O2    s     0.258617    0.281175    0.302479    0.000000
   102  O2    s     0.248804    0.736570    0.299253    0.000000
   103  O3    s     0.736142    0.287676    0.660250    0.000000
   104  O2    s     0.747648    0.744475    0.681113    0.000000
   105  O2    s     0.157310    0.239829    0.122647    0.000000
   106  O2    s     0.335189    0.747472    0.104812    0.000000
   107  O3    s     0.840725    0.256408    0.863405    0.000000
   108  O2    s     0.648884    0.756510    0.861318    0.000000
   109  O2    s     0.850306    0.745050    0.863423    0.000000
   110  O2    s     0.647399    0.285441    0.853760    0.000000
   111  O3    s     0.144668    0.745315    0.121265    0.000000
   112  O2    s     0.353400    0.280133    0.114247    0.000000
   113  O2    s     0.636372    0.516645    0.031366    0.000000
   114  O2    s     0.857640    0.499342    0.029501    0.000000
   115  O2    s     0.357397    0.511671    0.934949    0.000000
   116  O3    s     0.129055    0.465672    0.948856    0.000000
   117  O2    s     0.743140    0.290008    0.042204    0.000000
   118  O2    s     0.750626    0.724933    0.042126    0.000000
   119  O2    s     0.250686    0.286732    0.935417    0.000000
   120  O3    s     0.242318    0.712260    0.913629    0.000000
--------------------------------------------------------------------------------

  Final Cartesian lattice vectors (Angstroms) :

       17.243645   -0.052534   -0.145679
       -0.023632    7.637296    0.000601
       -0.090072    0.001941   10.210088


  Final cell parameters and derivatives :

--------------------------------------------------------------------------------
       a           17.244341 Angstrom     dE/de1(xx)     0.004920 eV/strain
       b            7.637332 Angstrom     dE/de2(yy)     0.003933 eV/strain
       c           10.210485 Angstrom     dE/de3(zz)     0.004117 eV/strain
       alpha       89.983033 Degrees      dE/de4(yz)    -0.000237 eV/strain
       beta        90.989508 Degrees      dE/de5(xz)     0.000213 eV/strain
       gamma       90.351866 Degrees      dE/de6(xy)     0.000732 eV/strain
--------------------------------------------------------------------------------

  Primitive cell volume =          1344.502729 Angs**3

  Density of cell =      1.946137 g/cm**3

  Non-primitive cell volume =          1344.502729 Angs**3


  Final internal derivatives :

--------------------------------------------------------------------------------
   No.  Atomic          a             b             c           Radius
        Label          (eV)          (eV)          (eV)        (eV/Angs)
--------------------------------------------------------------------------------
      1 Ge    c       0.000000      0.000000      0.000000      0.000000
      2 Ge    c       0.003250     -0.001584     -0.000521      0.000000
      3 Ge    c       0.001376      0.000265      0.000596      0.000000
      4 Si    c      -0.000828      0.000782     -0.001529      0.000000
      5 Si    c       0.001245      0.000066      0.000185      0.000000
      6 Si    c       0.009924      0.000713     -0.002809      0.000000
      7 Si    c       0.002211     -0.000994      0.001697      0.000000
      8 Si    c       0.001057      0.000044     -0.000403      0.000000
      9 Si    c      -0.006290      0.000970      0.002840      0.000000
     10 Si    c      -0.001551      0.000056      0.000360      0.000000
     11 Si    c      -0.000282     -0.000360     -0.000506      0.000000
     12 Si    c      -0.000492     -0.000136     -0.000478      0.000000
     13 Si    c      -0.001759      0.000143      0.001123      0.000000
     14 Si    c      -0.000006      0.001261      0.001108      0.000000
     15 Si    c      -0.002764     -0.000064      0.000275      0.000000
     16 Si    c      -0.000752      0.000301     -0.000669      0.000000
     17 Si    c       0.000738     -0.000258     -0.000711      0.000000
     18 Si    c      -0.000532      0.000711     -0.000084      0.000000
     19 Si    c      -0.000821      0.000406     -0.000416      0.000000
     20 Si    c       0.001329     -0.000224      0.000436      0.000000
     21 Si    c       0.000550     -0.000142      0.000550      0.000000
     22 Si    c       0.000738     -0.000049      0.000858      0.000000
     23 Si    c      -0.001160      0.000227     -0.000334      0.000000
     24 Si    c       0.000125     -0.000205      0.000532      0.000000
     25 O3    c       0.000661      0.000359     -0.000210      0.000000
     26 O2    c      -0.001305     -0.001048      0.000114      0.000000
     27 O3    c      -0.001088      0.000466      0.000328      0.000000
     28 O2    c       0.001534     -0.001121     -0.000539      0.000000
     29 O2    c      -0.000289     -0.000224      0.000049      0.000000
     30 O2    c       0.000261      0.000664      0.000253      0.000000
     31 O3    c       0.000572     -0.000278     -0.000230      0.000000
     32 O2    c       0.000054      0.000207     -0.000135      0.000000
     33 O3    c      -0.000377      0.000105     -0.000206      0.000000
     34 O2    c      -0.003791     -0.000850     -0.001101      0.000000
     35 O3    c      -0.001027     -0.000053     -0.000633      0.000000
     36 O2    c       0.002927      0.000114      0.000274      0.000000
     37 O2    c      -0.000477     -0.000095     -0.000612      0.000000
     38 O2    c      -0.003000     -0.000591     -0.000789      0.000000
     39 O2    c       0.001858      0.001993      0.000183      0.000000
     40 O2    c      -0.000204     -0.000173     -0.000038      0.000000
     41 O2    c      -0.000191      0.000700      0.000038      0.000000
     42 O3    c      -0.000353      0.000141     -0.000143      0.000000
     43 O2    c      -0.001219     -0.001237     -0.000130      0.000000
     44 O2    c      -0.000300     -0.000095     -0.000146      0.000000
     45 O2    c       0.000017     -0.000274     -0.000390      0.000000
     46 O2    c      -0.000269      0.000141     -0.000095      0.000000
     47 O2    c      -0.002324     -0.000978      0.000671      0.000000
     48 O2    c      -0.000321     -0.000212     -0.000562      0.000000
     49 O2    c      -0.000198      0.000034      0.000133      0.000000
     50 O2    c       0.000256      0.000061      0.000157      0.000000
     51 O3    c       0.002680      0.001224     -0.002038      0.000000
     52 O2    c      -0.000908     -0.000488     -0.000685      0.000000
     53 O2    c       0.000602      0.000052      0.000048      0.000000
     54 O2    c       0.001179     -0.000021      0.000048      0.000000
     55 O3    c      -0.004970     -0.000752     -0.001474      0.000000
     56 O2    c       0.000856      0.000072     -0.000478      0.000000
     57 O2    c       0.000202      0.000322     -0.000365      0.000000
     58 O2    c      -0.000007     -0.000301     -0.000420      0.000000
     59 O3    c       0.001799     -0.000320      0.001543      0.000000
     60 O2    c       0.000951     -0.000589     -0.000275      0.000000
     61 O2    c       0.000052     -0.000178      0.000025      0.000000
     62 O2    c      -0.000782      0.000038     -0.000643      0.000000
     63 O3    c       0.000442     -0.000455      0.000402      0.000000
     64 O2    c      -0.000294      0.000371      0.000072      0.000000
     65 O2    c      -0.000387     -0.000199      0.000093      0.000000
     66 O2    c       0.000741      0.000063      0.000087      0.000000
     67 O2    c       0.000062      0.000286     -0.000130      0.000000
     68 O3    c       0.000077     -0.000258     -0.000233      0.000000
     69 O2    c       0.000493     -0.000037      0.000859      0.000000
     70 O2    c       0.001222     -0.000181      0.000023      0.000000
     71 O2    c      -0.000963      0.000062     -0.000043      0.000000
     72 O3    c      -0.001102     -0.000211      0.000199      0.000000
     73 O3    s      -0.000332     -0.000267     -0.000269      0.000000
     74 O2    s      -0.002124      0.000146     -0.000498      0.000000
     75 O3    s       0.001726     -0.000644     -0.000198      0.000000
     76 O2    s       0.003795     -0.000022      0.001156      0.000000
     77 O2    s       0.000484      0.000265      0.000045      0.000000
     78 O2    s       0.003685      0.000669     -0.000161      0.000000
     79 O3    s      -0.000159      0.000216     -0.000228      0.000000
     80 O2    s      -0.002057      0.000194     -0.000139      0.000000
     81 O3    s      -0.000012     -0.000041      0.000317      0.000000
     82 O2    s      -0.001092      0.000576     -0.001459      0.000000
     83 O3    s       0.001013      0.000086      0.000117      0.000000
     84 O2    s      -0.000357     -0.000320      0.000461      0.000000
     85 O2    s       0.000629     -0.000001      0.000413      0.000000
     86 O2    s       0.000205      0.000167     -0.001066      0.000000
     87 O2    s       0.002201     -0.000174      0.000328      0.000000
     88 O2    s       0.000307      0.000265     -0.000196      0.000000
     89 O2    s      -0.003741      0.000507      0.000814      0.000000
     90 O3    s       0.000234      0.000167      0.000522      0.000000
     91 O2    s      -0.004285     -0.000321      0.000668      0.000000
     92 O2    s      -0.000347     -0.000066      0.000497      0.000000
     93 O2    s       0.002375     -0.000348      0.000230      0.000000
     94 O2    s       0.000583     -0.000255     -0.000180      0.000000
     95 O2    s       0.000474     -0.000162      0.000954      0.000000
     96 O2    s       0.000131      0.000149     -0.000112      0.000000
     97 O2    s      -0.000096     -0.000022     -0.000135      0.000000
     98 O2    s      -0.000629      0.000078     -0.000277      0.000000
     99 O3    s       0.000738     -0.000075     -0.000283      0.000000
    100 O2    s      -0.000255      0.000099     -0.000157      0.000000
    101 O2    s      -0.000136     -0.000111     -0.000076      0.000000
    102 O2    s      -0.000154      0.000061     -0.000242      0.000000
    103 O3    s       0.001441     -0.000653     -0.000226      0.000000
    104 O2    s      -0.000231      0.000850     -0.000292      0.000000
    105 O2    s      -0.000124      0.000020     -0.000165      0.000000
    106 O2    s       0.000011      0.000197      0.000493      0.000000
    107 O3    s      -0.000167     -0.000818     -0.000079      0.000000
    108 O2    s      -0.001927      0.001303      0.000279      0.000000
    109 O2    s       0.000544      0.000684      0.000438      0.000000
    110 O2    s      -0.000292     -0.000907      0.000233      0.000000
    111 O3    s      -0.000071      0.000174     -0.000373      0.000000
    112 O2    s      -0.000210     -0.000386      0.000270      0.000000
    113 O2    s      -0.000442      0.000195      0.000243      0.000000
    114 O2    s       0.000834      0.000172      0.000490      0.000000
    115 O2    s      -0.000686      0.000099      0.000432      0.000000
    116 O3    s       0.000072      0.000026      0.000467      0.000000
    117 O2    s       0.000356     -0.000429      0.000281      0.000000
    118 O2    s      -0.000017      0.000432      0.000302      0.000000
    119 O2    s      -0.000362     -0.000112      0.000181      0.000000
    120 O3    s       0.000509      0.000217      0.000252      0.000000
--------------------------------------------------------------------------------
  Maximum abs         0.009924      0.001993      0.002840      0.000000
--------------------------------------------------------------------------------


  Born effective charge tensors : 

-------------------------------------------------------------------------------
  Atom             x           y             z
-------------------------------------------------------------------------------
    1 Ge    x       4.3079     -0.0609     -0.3840
            y       0.0722      3.9036      0.0174
            z      -0.3290     -0.0363      4.5682
-------------------------------------------------------------------------------
    2 Ge    x       3.9676     -0.3397     -0.1385
            y      -0.2798      4.1698      0.2330
            z      -0.1598      0.0338      3.4166
-------------------------------------------------------------------------------
    3 Ge    x       4.0654     -0.3534      0.1392
            y      -0.3316      4.1757     -0.2752
            z       0.2217     -0.0065      3.2539
-------------------------------------------------------------------------------
    4 Si    x       3.4247     -0.0852      0.2978
            y       0.0694      3.2665      0.0427
            z       0.2954     -0.0797      3.8419
-------------------------------------------------------------------------------
    5 Si    x       3.9224     -0.1826     -0.1437
            y      -0.1991      3.4565     -0.0731
            z      -0.9904      0.1255      3.9379
-------------------------------------------------------------------------------
    6 Si    x       3.4193      0.0884      0.0813
            y      -0.0900      3.2368     -0.0138
            z       0.5622      0.0377      3.7857
-------------------------------------------------------------------------------
    7 Si    x       3.4893      0.0594     -0.3130
            y      -0.0892      3.2816     -0.0282
            z      -0.4121      0.0354      3.1420
-------------------------------------------------------------------------------
    8 Si    x       3.6261      0.0763      0.4710
            y      -0.0583      3.3107      0.0131
            z       0.5051      0.0707      3.5461
-------------------------------------------------------------------------------
    9 Si    x       3.4740     -0.1015     -0.1077
            y       0.0709      3.2536      0.0251
            z      -0.5791      0.0107      3.0655
-------------------------------------------------------------------------------
   10 Si    x       3.6204     -0.3301      0.0015
            y       0.0381      3.5048      0.0602
            z       0.5854     -0.1097      2.9954
-------------------------------------------------------------------------------
   11 Si    x       3.4238      0.4236     -0.2705
            y       0.3415      3.5585     -0.3605
            z      -0.2773     -0.1691      2.9807
-------------------------------------------------------------------------------
   12 Si    x       3.1731      0.2981      0.0554
            y       0.2159      3.4893      0.1384
            z       0.1563      0.0923      2.8082
-------------------------------------------------------------------------------
   13 Si    x       3.1913     -0.2889      0.1252
            y      -0.1849      3.4387     -0.1578
            z       0.1003     -0.0705      2.8250
-------------------------------------------------------------------------------
   14 Si    x       3.2980      0.1872     -0.1174
            y       0.1100      3.7289     -0.0644
            z      -0.1115      0.0110      2.8816
-------------------------------------------------------------------------------
   15 Si    x       3.5048      0.1891     -0.0396
            y       0.2331      3.5362      0.1995
            z       0.0531      0.0945      2.8965
-------------------------------------------------------------------------------
   16 Si    x       3.5028     -0.3829     -0.1873
            y      -0.4161      3.6129      0.2767
            z      -0.2479      0.0945      3.2737
-------------------------------------------------------------------------------
   17 Si    x       3.1799     -0.2349      0.0600
            y      -0.2862      3.4455     -0.1720
            z       0.1136     -0.0664      2.8129
-------------------------------------------------------------------------------
   18 Si    x       3.2328      0.2730     -0.1147
            y       0.2228      3.4275     -0.1713
            z      -0.1745     -0.0810      2.7397
-------------------------------------------------------------------------------
   19 Si    x       3.2599      0.2579      0.1383
            y       0.2097      3.3966      0.1959
            z       0.1318      0.0406      2.7054
-------------------------------------------------------------------------------
   20 Si    x       3.2424     -0.2922     -0.1555
            y      -0.2079      3.3776      0.1758
            z      -0.1483      0.0643      2.7374
-------------------------------------------------------------------------------
   21 Si    x       3.5868      0.3285     -0.0278
            y       0.1298      3.4935     -0.2008
            z      -0.0710     -0.0780      2.8088
-------------------------------------------------------------------------------
   22 Si    x       3.3614      0.2771      0.1776
            y      -0.0464      3.7065      0.1258
            z       0.1582     -0.0091      2.7448
-------------------------------------------------------------------------------
   23 Si    x       3.2263     -0.3111     -0.1646
            y      -0.1499      3.4343      0.1922
            z      -0.1163      0.0687      2.7429
-------------------------------------------------------------------------------
   24 Si    x       3.3015     -0.3251      0.1012
            y      -0.1706      3.5398     -0.1135
            z       0.1093      0.0120      3.0239
-------------------------------------------------------------------------------
   25 O3    x      -2.1142     -0.9669      0.5581
            y      -0.9796     -2.2895      0.5478
            z       0.5819      0.5381     -1.6570
-------------------------------------------------------------------------------
   26 O2    x      -1.7465     -0.7484     -0.3536
            y      -0.7756     -2.0062     -0.3773
            z      -0.3760     -0.3571     -1.3344
-------------------------------------------------------------------------------
   27 O3    x      -2.0671      0.9375      0.2440
            y       0.9906     -2.3874     -0.2560
            z       0.3645     -0.2384     -1.5294
-------------------------------------------------------------------------------
   28 O2    x      -1.7369      0.7357     -0.2884
            y       0.7454     -1.9523      0.3207
            z      -0.3496      0.3121     -1.3469
-------------------------------------------------------------------------------
   29 O2    x      -1.7311     -0.6766      0.2665
            y      -0.6855     -1.8978      0.2974
            z       0.3583      0.2644     -1.3609
-------------------------------------------------------------------------------
   30 O2    x      -1.6464     -0.7119     -0.2685
            y      -0.6808     -2.0219     -0.2865
            z      -0.3421     -0.2901     -1.3376
-------------------------------------------------------------------------------
   31 O3    x      -2.0734      0.9504      0.5556
            y       0.9204     -2.3220     -0.5363
            z       0.5768     -0.5235     -1.6369
-------------------------------------------------------------------------------
   32 O2    x      -1.6691      0.7196     -0.3325
            y       0.6980     -2.0059      0.3230
            z      -0.3531      0.3345     -1.3509
-------------------------------------------------------------------------------
   33 O3    x      -2.1459      0.0592      1.1021
            y       0.0245     -1.1934     -0.0317
            z       1.4349     -0.0803     -3.2343
-------------------------------------------------------------------------------
   34 O2    x      -1.5882     -0.0032     -0.8043
            y      -0.0007     -1.0930      0.0010
            z      -0.9918      0.0108     -2.7856
-------------------------------------------------------------------------------
   35 O3    x      -2.0846      0.0075     -0.9397
            y       0.0140     -1.2153     -0.0046
            z      -0.9741     -0.0084     -2.8167
-------------------------------------------------------------------------------
   36 O2    x      -1.7356      0.0178      0.7059
            y       0.0132     -1.1056     -0.0113
            z       0.7005     -0.0213     -2.2188
-------------------------------------------------------------------------------
   37 O2    x      -1.7032      0.0612     -0.6524
            y       0.0135     -1.1623      0.0166
            z      -0.6170      0.0213     -2.1352
-------------------------------------------------------------------------------
   38 O2    x      -1.7396     -0.0129      0.7518
            y      -0.0083     -1.1168      0.0193
            z       0.7580      0.0236     -2.2218
-------------------------------------------------------------------------------
   39 O2    x      -1.6792     -0.7182      0.3824
            y      -0.6492     -2.0237      0.4109
            z       0.3772      0.3735     -1.2514
-------------------------------------------------------------------------------
   40 O2    x      -1.6696     -0.6990     -0.3739
            y      -0.6148     -1.9992     -0.3872
            z      -0.3442     -0.3537     -1.2846
-------------------------------------------------------------------------------
   41 O2    x      -1.6627      0.7234      0.3080
            y       0.6389     -2.0043     -0.3409
            z       0.3561     -0.3310     -1.2379
-------------------------------------------------------------------------------
   42 O3    x      -1.9983      0.9292     -0.3067
            y       0.8316     -2.5415      0.2801
            z      -0.3985      0.2684     -1.3457
-------------------------------------------------------------------------------
   43 O2    x      -1.7106     -0.7135      0.2593
            y      -0.6780     -1.9560      0.3006
            z       0.3144      0.2921     -1.2377
-------------------------------------------------------------------------------
   44 O2    x      -1.8413     -0.6712     -0.2710
            y      -0.6660     -1.8292     -0.3128
            z      -0.3336     -0.2639     -1.2301
-------------------------------------------------------------------------------
   45 O2    x      -1.7157      0.7260      0.3722
            y       0.6798     -1.9559     -0.3776
            z       0.3469     -0.3553     -1.2733
-------------------------------------------------------------------------------
   46 O2    x      -1.7190      0.7168     -0.3647
            y       0.6647     -1.9762      0.3783
            z      -0.3462      0.3463     -1.2711
-------------------------------------------------------------------------------
   47 O2    x      -1.8331     -0.0115     -0.6040
            y      -0.0146     -1.1632     -0.0042
            z      -0.3463     -0.0035     -1.7065
-------------------------------------------------------------------------------
   48 O2    x      -1.8554     -0.0006      0.5837
            y      -0.0252     -1.1730     -0.0210
            z       0.3051     -0.0063     -1.7089
-------------------------------------------------------------------------------
   49 O2    x      -1.2096      0.0474      0.0495
            y       0.0706     -2.5149     -0.0109
            z       0.0724     -0.0100     -1.0719
-------------------------------------------------------------------------------
   50 O2    x      -1.1586      0.0347     -0.0484
            y       0.0828     -2.5708      0.0377
            z      -0.0774      0.0079     -1.0647
-------------------------------------------------------------------------------
   51 O3    x      -1.3260      0.0553      0.0883
            y       0.0282     -3.1921     -0.1199
            z       0.1012     -0.1206     -1.2008
-------------------------------------------------------------------------------
   52 O2    x      -1.1524     -0.0490     -0.0608
            y      -0.0810     -2.5670     -0.0352
            z      -0.0753     -0.0285     -1.0844
-------------------------------------------------------------------------------
   53 O2    x      -2.3723     -0.0616      0.0212
            y      -0.0238     -1.2390      0.0762
            z       0.0255      0.0449     -1.0956
-------------------------------------------------------------------------------
   54 O2    x      -2.3580     -0.0749      0.0679
            y      -0.0395     -1.2656     -0.0719
            z       0.0700     -0.0475     -1.1007
-------------------------------------------------------------------------------
   55 O3    x      -2.9809      0.1033      0.0976
            y       0.0858     -1.3862     -0.1042
            z       0.0992     -0.0684     -1.2490
-------------------------------------------------------------------------------
   56 O2    x      -2.4431      0.0034     -0.0021
            y      -0.0120     -1.2310      0.0591
            z       0.0101      0.0359     -1.0799
-------------------------------------------------------------------------------
   57 O2    x      -1.2208     -0.1442     -0.0711
            y      -0.0954     -1.3049     -0.0555
            z      -0.0546     -0.0683     -2.0126
-------------------------------------------------------------------------------
   58 O2    x      -1.1700     -0.1139      0.0309
            y      -0.0730     -1.2965     -0.0225
            z       0.0095     -0.0190     -2.0956
-------------------------------------------------------------------------------
   59 O3    x      -1.3241      0.1547      0.0410
            y       0.1142     -1.4620     -0.0917
            z       0.0243     -0.0428     -2.5870
-------------------------------------------------------------------------------
   60 O2    x      -1.1806      0.1322      0.0139
            y       0.0974     -1.2788      0.0291
            z       0.0118      0.0207     -2.0700
-------------------------------------------------------------------------------
   61 O2    x      -1.2245     -0.1300     -0.0171
            y      -0.1108     -1.2655      0.0570
            z      -0.0307      0.0625     -2.0560
-------------------------------------------------------------------------------
   62 O2    x      -1.1724     -0.1116     -0.0274
            y      -0.0993     -1.2904      0.0057
            z      -0.0171      0.0128     -2.0970
-------------------------------------------------------------------------------
   63 O3    x      -1.3622      0.1632     -0.1755
            y       0.1443     -1.4781      0.0944
            z      -0.1468      0.0340     -2.5402
-------------------------------------------------------------------------------
   64 O2    x      -1.1882      0.1278     -0.0008
            y       0.1131     -1.2692     -0.0233
            z       0.0037     -0.0199     -2.0715
-------------------------------------------------------------------------------
   65 O2    x      -1.2172     -0.0292      0.0779
            y      -0.0449     -2.5201     -0.0272
            z       0.0969     -0.0051     -1.0235
-------------------------------------------------------------------------------
   66 O2    x      -1.2443     -0.0205     -0.0661
            y      -0.0542     -2.5531      0.0139
            z      -0.0851      0.0225     -1.0063
-------------------------------------------------------------------------------
   67 O2    x      -1.2176      0.0167      0.0813
            y       0.0649     -2.4852      0.0433
            z       0.0979      0.0311     -1.0378
-------------------------------------------------------------------------------
   68 O3    x      -1.4573      0.1792     -0.1069
            y       0.2311     -3.1103      0.0934
            z      -0.1374      0.0926     -1.1198
-------------------------------------------------------------------------------
   69 O2    x      -2.4172      0.0515     -0.0314
            y       0.0358     -1.2482      0.0654
            z      -0.0287      0.0384     -1.0469
-------------------------------------------------------------------------------
   70 O2    x      -2.4403      0.0496      0.0056
            y       0.0202     -1.2282     -0.0648
            z      -0.0012     -0.0294     -1.0375
-------------------------------------------------------------------------------
   71 O2    x      -2.4420     -0.1336      0.0502
            y      -0.0888     -1.2334     -0.0506
            z       0.0233     -0.0182     -1.0544
-------------------------------------------------------------------------------
   72 O3    x      -3.0557     -0.0706     -0.0322
            y      -0.0251     -1.3633      0.0892
            z      -0.0689      0.0364     -1.2183
-------------------------------------------------------------------------------




  Elastic Constant Matrix: (Units=GPa)

-------------------------------------------------------------------------------
  Indices      1         2         3         4         5         6    
-------------------------------------------------------------------------------
       1     55.2918   29.5520   22.6646    0.2734   -6.6835   -0.7123
       2     29.5520   74.6903   22.6126   -0.0478   -7.5013   -2.1077
       3     22.6646   22.6126   25.4203    0.2166   -0.3165   -1.5339
       4      0.2734   -0.0478    0.2166   11.2945   -0.6768    0.2640
       5     -6.6835   -7.5013   -0.3165   -0.6768   23.6252    0.8120
       6     -0.7123   -2.1077   -1.5339    0.2640    0.8120   20.0381
-------------------------------------------------------------------------------


  Elastic Compliance Matrix: (Units=1/GPa)

-------------------------------------------------------------------------------
  Indices      1         2         3         4         5         6    
-------------------------------------------------------------------------------
       1    0.031008 -0.004415 -0.023721  0.000146  0.007107 -0.001468
       2   -0.004415  0.019735 -0.013524  0.000724  0.004833  0.000678
       3   -0.023721 -0.013524  0.072630 -0.001575 -0.010205  0.003728
       4    0.000146  0.000724 -0.001575  0.088770  0.002839 -0.001324
       5    0.007107  0.004833 -0.010205  0.002839  0.045883 -0.001917
       6   -0.001468  0.000678  0.003728 -0.001324 -0.001917  0.050305
-------------------------------------------------------------------------------

  Mechanical properties :

-------------------------------------------------------------------------------
  Convention :                    Reuss         Voigt         Hill
-------------------------------------------------------------------------------
  Bulk  Modulus (GPa)     =      24.96670      33.89566      29.43118
  Shear Modulus (GPa)     =      12.34561      16.36310      14.35436
-------------------------------------------------------------------------------
  Velocity S-wave (km/s)  =       2.51866       2.89965       2.71585
  Velocity P-wave (km/s)  =       4.61379       5.35047       4.99573
-------------------------------------------------------------------------------
  Compressibility (1/GPa) =    0.04005336
-------------------------------------------------------------------------------
  Stress axis :                     x             y             z
-------------------------------------------------------------------------------
  Youngs Moduli (GPa)     =      32.24924      50.67197      13.76840
-------------------------------------------------------------------------------
  Poissons Ratio (x)      =                     0.22370       0.32660
  Poissons Ratio (y)      =       0.14237                     0.18620
  Poissons Ratio (z)      =       0.76499       0.68529
-------------------------------------------------------------------------------


  Piezoelectric Strain Matrix: (Units=C/m**2)

-------------------------------------------------------------------------------
  Indices      1         2         3         4         5         6    
-------------------------------------------------------------------------------
       x     0.29363   0.82389  -0.38154   0.12055  -0.43457  -0.08456
       y     0.54303   0.58306  -0.06545  -0.19257   0.25448   0.31217
       z    -0.28906  -0.61821   1.67372  -0.07032  -0.41445   0.23681
-------------------------------------------------------------------------------


  Piezoelectric Stress Matrix: (Units=10**-11 C/N)

-------------------------------------------------------------------------------
  Indices      1         2         3         4         5         6    
-------------------------------------------------------------------------------
       x     1.15715   1.80523  -4.18889   1.08195  -0.94726  -0.48750
       y     1.71395   1.12968  -2.66505  -1.61811   1.78768   1.48252
       z    -4.92402  -3.54530  14.20028  -1.08577  -4.17926   1.90453
-------------------------------------------------------------------------------


  Static dielectric constant tensor : 

-------------------------------------------------------------------------------
              x         y         z
-------------------------------------------------------------------------------
       x     3.95390  -0.07312  -0.10347
       y    -0.07312   4.08474   0.00374
       z    -0.10347   0.00374   3.29414
--------------------------------------------------------------------------------

  High frequency dielectric constant tensor : 

-------------------------------------------------------------------------------
              x         y         z
-------------------------------------------------------------------------------
       x     1.67627  -0.00015  -0.00108
       y    -0.00015   1.68312   0.00022
       z    -0.00108   0.00022   1.61525
-------------------------------------------------------------------------------

  Static refractive indices : 

-------------------------------------------------------------------------------
    1 =    1.81059      2 =    1.98355      3 =    2.02980
-------------------------------------------------------------------------------

  High frequency refractive indices : 

-------------------------------------------------------------------------------
    1 =    1.27092      2 =    1.29471      3 =    1.29735
-------------------------------------------------------------------------------


  Time to end of optimisation =       9.4530 seconds


  Peak dynamic memory used =       5.01 MB 


  Timing analysis for GULP :

--------------------------------------------------------------------------------
  Task / Subroutine                                          Time (Seconds)
--------------------------------------------------------------------------------
  Calculation of reciprocal space energy and derivatives          0.5681
  Calculation of real space energy and derivatives                6.1076
  Calculation of three-body energy and derivatives                0.5604
  Calculation and manipulation of Hessian matrix                  2.4777
  Calculation of matrix inversion                                 0.0380
  Global summation overhead                                       0.0001
--------------------------------------------------------------------------------
  Total CPU time                                                  9.4530
--------------------------------------------------------------------------------


  Dump file written as c00092.vasp.grs
  CIF file written as c00092.vasp.cif


  Job Finished at 11:42.44  7th October    2025                               

