********************************************************************************
*                       GENERAL UTILITY LATTICE PROGRAM                        *
*                                 Julian Gale                                  *
*                       Curtin Institute for Computation                       *
*                    School of Molecular and Life Sciences                     *
*                    Curtin University, Western Australia                      *
********************************************************************************
* Version = 6.1.2 * Last modified =   3rd November 2022                        *
********************************************************************************
*  optimise     - perform optimisation run                                     *
*  conp         - constant pressure calculation                                *
*  property     - calculate properties for final geometry                      *
********************************************************************************

  Job Started  at 11:38.02  7th October    2025                               

  Number of CPUs =     1


  Total number of configurations input =      1

********************************************************************************
*  Input for Configuration =   1 : c00066.vasp                                 *
********************************************************************************

  Formula = Ge3Si21O48                                                  

  Number of irreducible atoms/shells =     120


  Total number atoms/shells =     120

  Dimensionality = 3               :  Bulk   



  Cartesian lattice vectors (Angstroms) :

       17.182800    0.000000    0.000000
        0.000000    7.513760    0.000000
        0.000000    0.000000   10.447700

  Cell parameters (Angstroms/Degrees):

  a =      17.1828    alpha =  90.0000
  b =       7.5138    beta  =  90.0000
  c =      10.4477    gamma =  90.0000

  Initial cell volume =        1348.875752 Angs**3

  Temperature of configuration =   0.00     K 

  Pressure of configuration =         0.000 GPa 

  Fractional coordinates of asymmetric unit :

--------------------------------------------------------------------------------
   No.  Atomic       x           y          z         Charge      Occupancy
        Label      (Frac)      (Frac)     (Frac)        (e)         (Frac)  
--------------------------------------------------------------------------------
      1 Ge    c    0.052090    0.000000    0.372270     4.00000    1.000000    
      2 Ge    c    0.160190 *  0.293910 *  0.273440 *   4.00000    1.000000    
      3 Ge    c    0.839340 *  0.705910 *  0.017440 *   4.00000    1.000000    
      4 Si    c    0.447910 *  0.000000 *  0.372270 *   4.00000    1.000000    
      5 Si    c    0.947910 *  0.000000 *  0.627730 *   4.00000    1.000000    
      6 Si    c    0.552090 *  0.000000 *  0.627730 *   4.00000    1.000000    
      7 Si    c    0.556730 *  0.000000 *  0.122130 *   4.00000    1.000000    
      8 Si    c    0.943270 *  0.000000 *  0.122130 *   4.00000    1.000000    
      9 Si    c    0.443270 *  0.000000 *  0.877870 *   4.00000    1.000000    
     10 Si    c    0.056730 *  0.000000 *  0.877870 *   4.00000    1.000000    
     11 Si    c    0.339810 *  0.706090 *  0.273440 *   4.00000    1.000000    
     12 Si    c    0.839810 *  0.293910 *  0.726560 *   4.00000    1.000000    
     13 Si    c    0.660190 *  0.706090 *  0.726560 *   4.00000    1.000000    
     14 Si    c    0.839810 *  0.706090 *  0.726560 *   4.00000    1.000000    
     15 Si    c    0.660190 *  0.293910 *  0.726560 *   4.00000    1.000000    
     16 Si    c    0.160190 *  0.706090 *  0.273440 *   4.00000    1.000000    
     17 Si    c    0.339810 *  0.293910 *  0.273440 *   4.00000    1.000000    
     18 Si    c    0.660660 *  0.294090 *  0.017440 *   4.00000    1.000000    
     19 Si    c    0.339340 *  0.294090 *  0.982560 *   4.00000    1.000000    
     20 Si    c    0.160660 *  0.705910 *  0.982560 *   4.00000    1.000000    
     21 Si    c    0.339340 *  0.705910 *  0.982560 *   4.00000    1.000000    
     22 Si    c    0.160660 *  0.294090 *  0.982560 *   4.00000    1.000000    
     23 Si    c    0.660660 *  0.705910 *  0.017440 *   4.00000    1.000000    
     24 Si    c    0.839340 *  0.294090 *  0.017440 *   4.00000    1.000000    
     25 O1    c    0.106570 *  0.174340 *  0.366200 *   1.73396    1.000000    
     26 O2    c    0.393430 *  0.825660 *  0.366200 *   0.87073    1.000000    
     27 O2    c    0.893430 *  0.174340 *  0.633800 *   0.87073    1.000000    
     28 O2    c    0.606570 *  0.825660 *  0.633800 *   0.87073    1.000000    
     29 O2    c    0.893430 *  0.825660 *  0.633800 *   0.87073    1.000000    
     30 O2    c    0.606570 *  0.174340 *  0.633800 *   0.87073    1.000000    
     31 O3    c    0.106570 *  0.825660 *  0.366200 *   1.33043    1.000000    
     32 O2    c    0.393430 *  0.174340 *  0.366200 *   0.87073    1.000000    
     33 O3    c    0.000000 *  0.000000 *  0.500000 *   1.33043    1.000000    
     34 O2    c    0.500000 *  0.000000 *  0.500000 *   0.87073    1.000000    
     35 O3    c    0.994520 *  0.000000 *  0.250840 *   1.33043    1.000000    
     36 O2    c    0.505480 *  0.000000 *  0.250840 *   0.87073    1.000000    
     37 O2    c    0.005480 *  0.000000 *  0.749160 *   0.87073    1.000000    
     38 O2    c    0.494520 *  0.000000 *  0.749160 *   0.87073    1.000000    
     39 O2    c    0.610230 *  0.175520 *  0.115390 *   0.87073    1.000000    
     40 O3    c    0.889770 *  0.824480 *  0.115390 *   1.33043    1.000000    
     41 O2    c    0.389770 *  0.175520 *  0.884610 *   0.87073    1.000000    
     42 O2    c    0.110230 *  0.824480 *  0.884610 *   0.87073    1.000000    
     43 O2    c    0.389770 *  0.824480 *  0.884610 *   0.87073    1.000000    
     44 O2    c    0.110230 *  0.175520 *  0.884610 *   0.87073    1.000000    
     45 O2    c    0.610230 *  0.824480 *  0.115390 *   0.87073    1.000000    
     46 O2    c    0.889770 *  0.175520 *  0.115390 *   0.87073    1.000000    
     47 O2    c    0.500000 *  0.000000 *  0.000000 *   0.87073    1.000000    
     48 O2    c    0.000000 *  0.000000 *  0.000000 *   0.87073    1.000000    
     49 O3    c    0.151750 *  0.500000 *  0.313330 *   1.33043    1.000000    
     50 O2    c    0.348250 *  0.500000 *  0.313330 *   0.87073    1.000000    
     51 O2    c    0.848250 *  0.500000 *  0.686670 *   0.87073    1.000000    
     52 O2    c    0.651750 *  0.500000 *  0.686670 *   0.87073    1.000000    
     53 O3    c    0.250000 *  0.234950 *  0.285720 *   1.33043    1.000000    
     54 O2    c    0.250000 *  0.765050 *  0.285720 *   0.87073    1.000000    
     55 O2    c    0.750000 *  0.234950 *  0.714280 *   0.87073    1.000000    
     56 O2    c    0.750000 *  0.765050 *  0.714280 *   0.87073    1.000000    
     57 O3    c    0.131410 *  0.268650 *  0.127790 *   1.33043    1.000000    
     58 O2    c    0.368590 *  0.731350 *  0.127790 *   0.87073    1.000000    
     59 O2    c    0.868590 *  0.268650 *  0.872210 *   0.87073    1.000000    
     60 O2    c    0.631410 *  0.731350 *  0.872210 *   0.87073    1.000000    
     61 O3    c    0.868590 *  0.731350 *  0.872210 *   1.33043    1.000000    
     62 O2    c    0.631410 *  0.268650 *  0.872210 *   0.87073    1.000000    
     63 O2    c    0.131410 *  0.731350 *  0.127790 *   0.87073    1.000000    
     64 O2    c    0.368590 *  0.268650 *  0.127790 *   0.87073    1.000000    
     65 O2    c    0.653920 *  0.500000 *  0.058200 *   0.87073    1.000000    
     66 O3    c    0.846080 *  0.500000 *  0.058200 *   1.33043    1.000000    
     67 O2    c    0.346080 *  0.500000 *  0.941800 *   0.87073    1.000000    
     68 O2    c    0.153920 *  0.500000 *  0.941800 *   0.87073    1.000000    
     69 O2    c    0.750000 *  0.231060 *  0.027050 *   0.87073    1.000000    
     70 O3    c    0.750000 *  0.768940 *  0.027050 *   1.33043    1.000000    
     71 O2    c    0.250000 *  0.231060 *  0.972950 *   0.87073    1.000000    
     72 O2    c    0.250000 *  0.768940 *  0.972950 *   0.87073    1.000000    
     73 O1    s    0.106570 *  0.174340 *  0.366200 *  -3.73396    1.000000    
     74 O2    s    0.393430 *  0.825660 *  0.366200 *  -2.87073    1.000000    
     75 O2    s    0.893430 *  0.174340 *  0.633800 *  -2.87073    1.000000    
     76 O2    s    0.606570 *  0.825660 *  0.633800 *  -2.87073    1.000000    
     77 O2    s    0.893430 *  0.825660 *  0.633800 *  -2.87073    1.000000    
     78 O2    s    0.606570 *  0.174340 *  0.633800 *  -2.87073    1.000000    
     79 O3    s    0.106570 *  0.825660 *  0.366200 *  -3.33043    1.000000    
     80 O2    s    0.393430 *  0.174340 *  0.366200 *  -2.87073    1.000000    
     81 O3    s    0.000000 *  0.000000 *  0.500000 *  -3.33043    1.000000    
     82 O2    s    0.500000 *  0.000000 *  0.500000 *  -2.87073    1.000000    
     83 O3    s    0.994520 *  0.000000 *  0.250840 *  -3.33043    1.000000    
     84 O2    s    0.505480 *  0.000000 *  0.250840 *  -2.87073    1.000000    
     85 O2    s    0.005480 *  0.000000 *  0.749160 *  -2.87073    1.000000    
     86 O2    s    0.494520 *  0.000000 *  0.749160 *  -2.87073    1.000000    
     87 O2    s    0.610230 *  0.175520 *  0.115390 *  -2.87073    1.000000    
     88 O3    s    0.889770 *  0.824480 *  0.115390 *  -3.33043    1.000000    
     89 O2    s    0.389770 *  0.175520 *  0.884610 *  -2.87073    1.000000    
     90 O2    s    0.110230 *  0.824480 *  0.884610 *  -2.87073    1.000000    
     91 O2    s    0.389770 *  0.824480 *  0.884610 *  -2.87073    1.000000    
     92 O2    s    0.110230 *  0.175520 *  0.884610 *  -2.87073    1.000000    
     93 O2    s    0.610230 *  0.824480 *  0.115390 *  -2.87073    1.000000    
     94 O2    s    0.889770 *  0.175520 *  0.115390 *  -2.87073    1.000000    
     95 O2    s    0.500000 *  0.000000 *  0.000000 *  -2.87073    1.000000    
     96 O2    s    0.000000 *  0.000000 *  0.000000 *  -2.87073    1.000000    
     97 O3    s    0.151750 *  0.500000 *  0.313330 *  -3.33043    1.000000    
     98 O2    s    0.348250 *  0.500000 *  0.313330 *  -2.87073    1.000000    
     99 O2    s    0.848250 *  0.500000 *  0.686670 *  -2.87073    1.000000    
    100 O2    s    0.651750 *  0.500000 *  0.686670 *  -2.87073    1.000000    
    101 O3    s    0.250000 *  0.234950 *  0.285720 *  -3.33043    1.000000    
    102 O2    s    0.250000 *  0.765050 *  0.285720 *  -2.87073    1.000000    
    103 O2    s    0.750000 *  0.234950 *  0.714280 *  -2.87073    1.000000    
    104 O2    s    0.750000 *  0.765050 *  0.714280 *  -2.87073    1.000000    
    105 O3    s    0.131410 *  0.268650 *  0.127790 *  -3.33043    1.000000    
    106 O2    s    0.368590 *  0.731350 *  0.127790 *  -2.87073    1.000000    
    107 O2    s    0.868590 *  0.268650 *  0.872210 *  -2.87073    1.000000    
    108 O2    s    0.631410 *  0.731350 *  0.872210 *  -2.87073    1.000000    
    109 O3    s    0.868590 *  0.731350 *  0.872210 *  -3.33043    1.000000    
    110 O2    s    0.631410 *  0.268650 *  0.872210 *  -2.87073    1.000000    
    111 O2    s    0.131410 *  0.731350 *  0.127790 *  -2.87073    1.000000    
    112 O2    s    0.368590 *  0.268650 *  0.127790 *  -2.87073    1.000000    
    113 O2    s    0.653920 *  0.500000 *  0.058200 *  -2.87073    1.000000    
    114 O3    s    0.846080 *  0.500000 *  0.058200 *  -3.33043    1.000000    
    115 O2    s    0.346080 *  0.500000 *  0.941800 *  -2.87073    1.000000    
    116 O2    s    0.153920 *  0.500000 *  0.941800 *  -2.87073    1.000000    
    117 O2    s    0.750000 *  0.231060 *  0.027050 *  -2.87073    1.000000    
    118 O3    s    0.750000 *  0.768940 *  0.027050 *  -3.33043    1.000000    
    119 O2    s    0.250000 *  0.231060 *  0.972950 *  -2.87073    1.000000    
    120 O2    s    0.250000 *  0.768940 *  0.972950 *  -2.87073    1.000000    
--------------------------------------------------------------------------------



********************************************************************************
*  General input information                                                   *
********************************************************************************

  Species output for all configurations : 

--------------------------------------------------------------------------------
  Species    Type    Atomic    Atomic    Charge       Radii (Angs)     Library
                     Number     Mass       (e)     Cova   Ionic  VDW   Symbol
--------------------------------------------------------------------------------
    Ge       Core       32      72.61   4.000000   1.170  0.000  1.750 Ge       
    Si       Core       14      28.09   4.000000   1.200  0.000  2.100 Si       
    O1       Core        8      16.00   1.733957   0.730  0.000  1.360 O1       
    O2       Core        8      16.00   0.870733   0.730  0.000  1.360 O2       
    O3       Core        8      16.00   1.330431   0.730  0.000  1.360 O3       
    O1       Shell       8       0.00  -3.733957   0.730  0.000  0.000 O1       
    O2       Shell       8       0.00  -2.870733   0.730  0.000  0.000 O2       
    O3       Shell       8       0.00  -3.330431   0.730  0.000  0.000 O3       
--------------------------------------------------------------------------------


  Lattice summation method               =    Ewald          (3-D)
                                         =    Parry          (2-D)
                                         =    Saunders et al (1-D)
  Accuracy factor for lattice sums       =   12.000


  Analytic derivatives to be used

  Time limit = Infinity

  Maximum range for interatomic potentials =    100000.000000 Angstroms

  General interatomic potentials :

--------------------------------------------------------------------------------
Atom  Types   Potential      Parameter       Value         Units   Cutoffs(Ang)
  1     2                                                            Min /  Max 
--------------------------------------------------------------------------------
Si   c O1   s Buckingham    Buckingham A     1315.2478    eV        0.000 16.000
                            Buckingham rho  0.31775900    Ang       
                            Buckingham C     10.141118    eV*Ang^6  
--------------------------------------------------------------------------------
Si   c O2   s Buckingham    Buckingham A     1315.2478    eV        0.000 16.000
                            Buckingham rho  0.31775900    Ang       
                            Buckingham C     10.141118    eV*Ang^6  
--------------------------------------------------------------------------------
Si   c O3   s Buckingham    Buckingham A     1315.2478    eV        0.000 16.000
                            Buckingham rho  0.31775900    Ang       
                            Buckingham C     10.141118    eV*Ang^6  
--------------------------------------------------------------------------------
Ge   c O1   s Buckingham    Buckingham A     1497.3996    eV        0.000 16.000
                            Buckingham rho  0.32564600    Ang       
                            Buckingham C     16.808599    eV*Ang^6  
--------------------------------------------------------------------------------
Ge   c O2   s Buckingham    Buckingham A     1497.3996    eV        0.000 16.000
                            Buckingham rho  0.32564600    Ang       
                            Buckingham C     16.808599    eV*Ang^6  
--------------------------------------------------------------------------------
Ge   c O3   s Buckingham    Buckingham A     1497.3996    eV        0.000 16.000
                            Buckingham rho  0.32564600    Ang       
                            Buckingham C     16.808599    eV*Ang^6  
--------------------------------------------------------------------------------
O1   s O1   s Buckingham    Buckingham A     22764.000    eV        0.000 16.000
                            Buckingham rho  0.14900000    Ang       
                            Buckingham C     10.937044    eV*Ang^6  
--------------------------------------------------------------------------------
O1   s O2   s Buckingham    Buckingham A     22764.000    eV        0.000 16.000
                            Buckingham rho  0.14900000    Ang       
                            Buckingham C     10.937044    eV*Ang^6  
--------------------------------------------------------------------------------
O1   s O3   s Buckingham    Buckingham A     22764.000    eV        0.000 16.000
                            Buckingham rho  0.14900000    Ang       
                            Buckingham C     10.937044    eV*Ang^6  
--------------------------------------------------------------------------------
O2   s O2   s Buckingham    Buckingham A     22764.000    eV        0.000 16.000
                            Buckingham rho  0.14900000    Ang       
                            Buckingham C     10.937044    eV*Ang^6  
--------------------------------------------------------------------------------
O2   s O3   s Buckingham    Buckingham A     22764.000    eV        0.000 16.000
                            Buckingham rho  0.14900000    Ang       
                            Buckingham C     10.937044    eV*Ang^6  
--------------------------------------------------------------------------------
O3   s O3   s Buckingham    Buckingham A     22764.000    eV        0.000 16.000
                            Buckingham rho  0.14900000    Ang       
                            Buckingham C     10.937044    eV*Ang^6  
--------------------------------------------------------------------------------
O1   c O1   s Spring (c-s)  Spring k 2       180.31577    eV*Ang^-2 0.000  0.800
                            Spring k 4       0.0000000    eV*Ang^-4 
--------------------------------------------------------------------------------
O2   c O2   s Spring (c-s)  Spring k 2       75.969800    eV*Ang^-2 0.000  0.800
                            Spring k 4       0.0000000    eV*Ang^-4 
--------------------------------------------------------------------------------
O3   c O3   s Spring (c-s)  Spring k 2       128.14270    eV*Ang^-2 0.000  0.800
                            Spring k 4       0.0000000    eV*Ang^-4 
--------------------------------------------------------------------------------

  General Three-body potentials :

--------------------------------------------------------------------------------
  Atoms       Potential      Parameter       Value         Units   Cutoffs(Ang)
  1 / 2 / 3                                                          Min /  Max 
--------------------------------------------------------------------------------
Si    core    Harmonic      Three-body cnst  1.2614000    eV*rad^-2 0.000  1.900
O1    shel                  Three-body angl  109.47000    degrees   0.000  1.900
O1    shel                  Three-body k4    0.0000000    eV*rad^-4 0.000  3.500
                            Three-body k3    0.0000000    eV*rad^-3 
--------------------------------------------------------------------------------
Si    core    Harmonic      Three-body cnst  1.2614000    eV*rad^-2 0.000  1.900
O1    shel                  Three-body angl  109.47000    degrees   0.000  1.900
õ(1   shel                  Three-body k4    0.0000000    eV*rad^-4 0.000  3.500
                            Three-body k3    0.0000000    eV*rad^-3 
--------------------------------------------------------------------------------
Si    core    Harmonic      Three-body cnst  1.2614000    eV*rad^-2 0.000  1.900
õ(1   shel                  Three-body angl  109.47000    degrees   0.000  1.900
õ(1   shel                  Three-body k4    0.0000000    eV*rad^-4 0.000  3.500
                            Three-body k3    0.0000000    eV*rad^-3 
--------------------------------------------------------------------------------
Si    core    Harmonic      Three-body cnst  1.2614000    eV*rad^-2 0.000  1.900
O1    shel                  Three-body angl  109.47000    degrees   0.000  1.900
O2    shel                  Three-body k4    0.0000000    eV*rad^-4 0.000  3.500
                            Three-body k3    0.0000000    eV*rad^-3 
--------------------------------------------------------------------------------
Si    core    Harmonic      Three-body cnst  1.2614000    eV*rad^-2 0.000  1.900
O1    shel                  Three-body angl  109.47000    degrees   0.000  1.900
õ(2   shel                  Three-body k4    0.0000000    eV*rad^-4 0.000  3.500
                            Three-body k3    0.0000000    eV*rad^-3 
--------------------------------------------------------------------------------
Si    core    Harmonic      Three-body cnst  1.2614000    eV*rad^-2 0.000  1.900
O2    shel                  Three-body angl  109.47000    degrees   0.000  1.900
õ(1   shel                  Three-body k4    0.0000000    eV*rad^-4 0.000  3.500
                            Three-body k3    0.0000000    eV*rad^-3 
--------------------------------------------------------------------------------
Si    core    Harmonic      Three-body cnst  1.2614000    eV*rad^-2 0.000  1.900
õ(1   shel                  Three-body angl  109.47000    degrees   0.000  1.900
õ(2   shel                  Three-body k4    0.0000000    eV*rad^-4 0.000  3.500
                            Three-body k3    0.0000000    eV*rad^-3 
--------------------------------------------------------------------------------
Si    core    Harmonic      Three-body cnst  1.2614000    eV*rad^-2 0.000  1.900
O2    shel                  Three-body angl  109.47000    degrees   0.000  1.900
O2    shel                  Three-body k4    0.0000000    eV*rad^-4 0.000  3.500
                            Three-body k3    0.0000000    eV*rad^-3 
--------------------------------------------------------------------------------
Si    core    Harmonic      Three-body cnst  1.2614000    eV*rad^-2 0.000  1.900
O2    shel                  Three-body angl  109.47000    degrees   0.000  1.900
õ(2   shel                  Three-body k4    0.0000000    eV*rad^-4 0.000  3.500
                            Three-body k3    0.0000000    eV*rad^-3 
--------------------------------------------------------------------------------
Si    core    Harmonic      Three-body cnst  1.2614000    eV*rad^-2 0.000  1.900
õ(2   shel                  Three-body angl  109.47000    degrees   0.000  1.900
õ(2   shel                  Three-body k4    0.0000000    eV*rad^-4 0.000  3.500
                            Three-body k3    0.0000000    eV*rad^-3 
--------------------------------------------------------------------------------

********************************************************************************
*  Output for configuration   1 : c00066.vasp                                  *
********************************************************************************


  Components of energy : 

--------------------------------------------------------------------------------
  Interatomic potentials     =         760.30861002 eV    
  Three-body potentials      =           0.01473998 eV    
  Monopole - monopole (real) =       -2676.00317478 eV    
  Monopole - monopole (recip)=       -1115.35404472 eV    
  Monopole - monopole (total)=       -3791.35721950 eV    
--------------------------------------------------------------------------------
  Total lattice energy       =       -3031.03386950 eV    
--------------------------------------------------------------------------------
  Total lattice energy       =         -292448.4348 kJ/(mole unit cells)
--------------------------------------------------------------------------------


  Number of variables =      363

  Maximum number of calculations  =          1000
  Maximum Hessian update interval =            10
  Maximum step size               =   0.100000000
  Maximum parameter tolerance     =   0.000010000
  Maximum function  tolerance     =   0.000010000
  Maximum gradient  tolerance     =   0.001000000
  Maximum gradient  component     =   0.010000000

  Symmetry not applied to optimisation

  Cell parameters to be optimised using strains

  Newton-Raphson optimiser to be used

  BFGS hessian update to be used

  Lower half triangular hessian to be used

  Minimiser to switch to RFO
  When gradient norm is less than     0.050000

  Dumpfile to be written after every cycle

  Start of bulk optimisation :

  Cycle:      0 Energy:     -3031.033870  Gnorm:      4.400329  CPU:    0.099
  ** Hessian calculated **
  Cycle:      1 Energy:     -3061.829979  Gnorm:      0.964950  CPU:    0.225
  ** Hessian calculated **
  Cycle:      2 Energy:     -3065.561858  Gnorm:      0.556404  CPU:    0.452
  ** Hessian calculated **
  Cycle:      3 Energy:     -3066.389581  Gnorm:      0.309261  CPU:    0.642
  Cycle:      4 Energy:     -3066.645324  Gnorm:      0.200353  CPU:    0.742
  Cycle:      5 Energy:     -3066.854959  Gnorm:      0.158087  CPU:    0.860
  Cycle:      6 Energy:     -3067.056675  Gnorm:      0.126006  CPU:    0.979
  Cycle:      7 Energy:     -3067.211563  Gnorm:      0.105084  CPU:    1.097
  Cycle:      8 Energy:     -3067.279076  Gnorm:      0.074708  CPU:    1.196
  Cycle:      9 Energy:     -3067.317443  Gnorm:      0.055706  CPU:    1.297
  Cycle:     10 Energy:     -3067.340473  Gnorm:      0.042975  CPU:    1.415
  ** Hessian has required structure
  Cycle:     11 Energy:     -3067.355179  Gnorm:      0.092958  CPU:    1.559
  ** Hessian has required structure
  Cycle:     12 Energy:     -3067.373803  Gnorm:      0.083209  CPU:    1.722
  ** Hessian has wrong structure
  ** Imaginary eigenvectors =   3
  ** Hessian has wrong structure
  ** Imaginary eigenvectors =   3
  Cycle:     13 Energy:     -3067.387512  Gnorm:      0.082833  CPU:    2.302
  ** Hessian has wrong structure
  ** Imaginary eigenvectors =   3
  ** Hessian has wrong structure
  ** Imaginary eigenvectors =   3
  Cycle:     14 Energy:     -3067.421874  Gnorm:      0.082090  CPU:    2.782
  ** Hessian has wrong structure
  ** Imaginary eigenvectors =   3
  Cycle:     15 Energy:     -3067.466553  Gnorm:      0.082765  CPU:    3.092
  ** Hessian has wrong structure
  ** Imaginary eigenvectors =   1
  ** Hessian has wrong structure
  ** Imaginary eigenvectors =   1
  Cycle:     16 Energy:     -3067.592775  Gnorm:      0.075327  CPU:    3.615
  ** Hessian has wrong structure
  ** Imaginary eigenvectors =   1
  ** Hessian has wrong structure
  ** Imaginary eigenvectors =   1
  Cycle:     17 Energy:     -3067.726858  Gnorm:      0.062290  CPU:    4.041
  ** Hessian has wrong structure
  ** Imaginary eigenvectors =   1
  Cycle:     18 Energy:     -3067.825954  Gnorm:      0.050363  CPU:    4.333
  ** Hessian has required structure
  Cycle:     19 Energy:     -3067.939084  Gnorm:      0.046449  CPU:    4.564
  ** Hessian has required structure
  Cycle:     20 Energy:     -3068.008104  Gnorm:      0.035792  CPU:    4.716
  ** Hessian has required structure
  Cycle:     21 Energy:     -3068.023560  Gnorm:      0.023726  CPU:    4.849
  ** Hessian has required structure
  Cycle:     22 Energy:     -3068.054546  Gnorm:      0.025097  CPU:    5.017
  ** Hessian has required structure
  Cycle:     23 Energy:     -3068.071652  Gnorm:      0.038293  CPU:    5.169
  ** Hessian has required structure
  Cycle:     24 Energy:     -3068.088135  Gnorm:      0.023164  CPU:    5.336
  ** Hessian has required structure
  Cycle:     25 Energy:     -3068.102892  Gnorm:      0.025040  CPU:    5.487
  ** Hessian has required structure
  Cycle:     26 Energy:     -3068.116704  Gnorm:      0.020808  CPU:    5.638
  ** Hessian has required structure
  Cycle:     27 Energy:     -3068.123553  Gnorm:      0.019079  CPU:    5.789
  ** Hessian has required structure
  Cycle:     28 Energy:     -3068.130044  Gnorm:      0.015622  CPU:    5.941
  ** Hessian has required structure
  Cycle:     29 Energy:     -3068.140461  Gnorm:      0.013286  CPU:    6.189
  ** Hessian has required structure
  Cycle:     30 Energy:     -3068.145463  Gnorm:      0.008965  CPU:    6.340
  ** Hessian has required structure
  Cycle:     31 Energy:     -3068.147048  Gnorm:      0.010224  CPU:    6.490
  ** Hessian has required structure
  Cycle:     32 Energy:     -3068.148102  Gnorm:      0.006376  CPU:    6.640
  ** Hessian has required structure
  Cycle:     33 Energy:     -3068.148754  Gnorm:      0.005222  CPU:    6.825
  ** Hessian has required structure
  Cycle:     34 Energy:     -3068.149610  Gnorm:      0.004231  CPU:    6.993
  ** Hessian has required structure
  Cycle:     35 Energy:     -3068.150346  Gnorm:      0.003435  CPU:    7.161
  ** Hessian has required structure
  Cycle:     36 Energy:     -3068.150763  Gnorm:      0.002249  CPU:    7.329
  ** Hessian has required structure
  Cycle:     37 Energy:     -3068.151049  Gnorm:      0.001861  CPU:    7.498
  ** Hessian has required structure
  Cycle:     38 Energy:     -3068.151256  Gnorm:      0.001182  CPU:    7.666
  ** Hessian has required structure
  Cycle:     39 Energy:     -3068.151444  Gnorm:      0.000813  CPU:    7.914
  ** Hessian has required structure
  Cycle:     40 Energy:     -3068.151532  Gnorm:      0.000748  CPU:    8.083
  ** Hessian has required structure
  Cycle:     41 Energy:     -3068.151593  Gnorm:      0.000631  CPU:    8.253
  ** Hessian has required structure
  Cycle:     42 Energy:     -3068.151641  Gnorm:      0.000590  CPU:    8.423
  ** Hessian has required structure
  Cycle:     43 Energy:     -3068.151687  Gnorm:      0.000568  CPU:    8.581
  ** Hessian has required structure
  Cycle:     44 Energy:     -3068.151743  Gnorm:      0.000785  CPU:    8.741
  ** Hessian has required structure
  Cycle:     45 Energy:     -3068.151838  Gnorm:      0.001536  CPU:    8.902
  ** Hessian has required structure
  Cycle:     46 Energy:     -3068.151934  Gnorm:      0.002523  CPU:    9.047
  ** Hessian has required structure
  Cycle:     47 Energy:     -3068.152095  Gnorm:      0.002225  CPU:    9.209
  ** Hessian has required structure
  Cycle:     48 Energy:     -3068.152234  Gnorm:      0.002222  CPU:    9.370
  ** Hessian has required structure
  Cycle:     49 Energy:     -3068.152452  Gnorm:      0.001469  CPU:    9.609
  ** Hessian has required structure
  Cycle:     50 Energy:     -3068.152567  Gnorm:      0.001154  CPU:    9.770
  ** Hessian has required structure
  Cycle:     51 Energy:     -3068.152648  Gnorm:      0.000558  CPU:    9.932
  ** Hessian has required structure
  Cycle:     52 Energy:     -3068.152679  Gnorm:      0.000692  CPU:   10.076
  ** Hessian has required structure
  Cycle:     53 Energy:     -3068.152703  Gnorm:      0.000206  CPU:   10.221
  ** Hessian has required structure
  Cycle:     54 Energy:     -3068.152709  Gnorm:      0.000166  CPU:   10.382
  ** Hessian has required structure
  Cycle:     55 Energy:     -3068.152711  Gnorm:      0.000111  CPU:   10.510
  ** Hessian has required structure
  Cycle:     56 Energy:     -3068.152711  Gnorm:      0.000091  CPU:   10.639
  ** Hessian has required structure
  Cycle:     57 Energy:     -3068.148602  Gnorm:      0.020031  CPU:   10.918
  ** Hessian has wrong structure
  ** Imaginary eigenvectors =   1
  ** Hessian has wrong structure
  ** Imaginary eigenvectors =   1
  Cycle:     58 Energy:     -3068.148603  Gnorm:      0.020031  CPU:   11.307
  ** Hessian has wrong structure
  ** Imaginary eigenvectors =   1
  ** Hessian has wrong structure
  ** Imaginary eigenvectors =   1
  Cycle:     59 Energy:     -3068.148604  Gnorm:      0.020030  CPU:   11.700
  ** Hessian has wrong structure
  ** Imaginary eigenvectors =   1
  ** Hessian has wrong structure
  ** Imaginary eigenvectors =   1
  Cycle:     60 Energy:     -3068.151262  Gnorm:      0.011937  CPU:   12.115
  ** Hessian has wrong structure
  ** Imaginary eigenvectors =   1
  ** Hessian has required structure
  Cycle:     61 Energy:     -3068.152249  Gnorm:      0.006785  CPU:   12.464
  ** Hessian has required structure
  Cycle:     62 Energy:     -3068.152320  Gnorm:      0.006213  CPU:   12.644
  ** Hessian has required structure
  Cycle:     63 Energy:     -3068.152449  Gnorm:      0.005119  CPU:   12.808
  ** Hessian has required structure
  Cycle:     64 Energy:     -3068.152631  Gnorm:      0.002872  CPU:   12.955
  ** Hessian has required structure
  Cycle:     65 Energy:     -3068.152695  Gnorm:      0.001399  CPU:   13.118
  ** Hessian has required structure
  Cycle:     66 Energy:     -3068.152709  Gnorm:      0.000697  CPU:   13.282
  ** Hessian has required structure
  Cycle:     67 Energy:     -3068.152711  Gnorm:      0.000484  CPU:   13.412
  ** Hessian has required structure
  Cycle:     68 Energy:     -3068.152713  Gnorm:      0.000337  CPU:   13.543
  ** Hessian has required structure
  Cycle:     69 Energy:     -3068.152713  Gnorm:      0.000235  CPU:   13.673
  ** Hessian has required structure
  Cycle:     70 Energy:     -3068.152714  Gnorm:      0.000164  CPU:   13.803
  ** Hessian has required structure
  Cycle:     71 Energy:     -3068.152714  Gnorm:      0.000115  CPU:   14.011
  ** Hessian has required structure
  Cycle:     72 Energy:     -3068.152714  Gnorm:      0.000080  CPU:   14.142
  ** Hessian has required structure
  Cycle:     73 Energy:     -3068.152714  Gnorm:      0.000056  CPU:   14.273
  ** Hessian has required structure


  **** Optimisation achieved ****


  Final energy =   -3068.15271386 eV      
  Final Gnorm  =       0.00003936

  Components of energy : 

--------------------------------------------------------------------------------
  Interatomic potentials     =         815.39532042 eV    
  Three-body potentials      =           0.22298832 eV    
  Monopole - monopole (real) =       -2205.65788593 eV    
  Monopole - monopole (recip)=       -1678.11313666 eV    
  Monopole - monopole (total)=       -3883.77102259 eV    
--------------------------------------------------------------------------------
  Total lattice energy       =       -3068.15271386 eV    
--------------------------------------------------------------------------------
  Total lattice energy       =         -296029.8359 kJ/(mole unit cells)
--------------------------------------------------------------------------------

  Final fractional coordinates of atoms :

--------------------------------------------------------------------------------
   No.  Atomic        x           y          z          Radius
        Label       (Frac)      (Frac)     (Frac)       (Angs) 
--------------------------------------------------------------------------------
     1  Ge    c     0.052090    0.000000    0.372270    0.000000
     2  Ge    c     0.172629    0.284300    0.286626    0.000000
     3  Ge    c     0.853468    0.672848    0.036618    0.000000
     4  Si    c     0.456792    0.010451    0.363813    0.000000
     5  Si    c     0.945735    0.991170    0.623476    0.000000
     6  Si    c     0.549073    0.005864    0.632651    0.000000
     7  Si    c     0.559401    0.995803    0.113939    0.000000
     8  Si    c     0.952059    0.990756    0.108645    0.000000
     9  Si    c     0.441893    0.003118    0.875475    0.000000
    10  Si    c     0.057802    0.995203    0.865933    0.000000
    11  Si    c     0.340353    0.723412    0.275598    0.000000
    12  Si    c     0.833178    0.284755    0.720303    0.000000
    13  Si    c     0.665764    0.712908    0.728020    0.000000
    14  Si    c     0.843654    0.689252    0.724356    0.000000
    15  Si    c     0.654989    0.309185    0.720604    0.000000
    16  Si    c     0.159269    0.697310    0.278744    0.000000
    17  Si    c     0.354220    0.320397    0.282613    0.000000
    18  Si    c     0.656024    0.307963    0.024993    0.000000
    19  Si    c     0.346021    0.315646    0.975643    0.000000
    20  Si    c     0.154471    0.688164    0.977419    0.000000
    21  Si    c     0.334591    0.713979    0.971587    0.000000
    22  Si    c     0.166950    0.282565    0.977711    0.000000
    23  Si    c     0.671279    0.704496    0.034583    0.000000
    24  Si    c     0.835043    0.270700    0.026791    0.000000
    25  O1    c     0.120243    0.161492    0.390882    0.000000
    26  O2    c     0.389014    0.863857    0.360123    0.000000
    27  O2    c     0.886632    0.153900    0.639393    0.000000
    28  O2    c     0.610096    0.847257    0.651338    0.000000
    29  O2    c     0.900823    0.807719    0.640012    0.000000
    30  O2    c     0.594534    0.190982    0.637995    0.000000
    31  O3    c     0.103586    0.805687    0.370027    0.000000
    32  O2    c     0.418621    0.204304    0.359683    0.000000
    33  O3    c     0.977983    0.996970    0.479799    0.000000
    34  O2    c     0.508338    0.986333    0.492888    0.000000
    35  O3    c     0.009615    0.048076    0.221810    0.000000
    36  O2    c     0.512355    0.981561    0.243931    0.000000
    37  O2    c     0.020804    0.004848    0.720932    0.000000
    38  O2    c     0.481439    0.998030    0.736913    0.000000
    39  O2    c     0.600001    0.186213    0.108040    0.000000
    40  O3    c     0.921641    0.792593    0.124410    0.000000
    41  O2    c     0.402405    0.193378    0.893081    0.000000
    42  O2    c     0.098738    0.804656    0.884021    0.000000
    43  O2    c     0.376865    0.850860    0.878773    0.000000
    44  O2    c     0.119633    0.153269    0.880690    0.000000
    45  O2    c     0.623657    0.842822    0.118542    0.000000
    46  O2    c     0.874585    0.112350    0.106079    0.000000
    47  O2    c     0.504735    0.963393    0.988311    0.000000
    48  O2    c     0.990758    0.019499    0.968999    0.000000
    49  O3    c     0.140804    0.496666    0.301116    0.000000
    50  O2    c     0.370577    0.526926    0.307606    0.000000
    51  O2    c     0.861059    0.484056    0.695622    0.000000
    52  O2    c     0.636769    0.514792    0.697752    0.000000
    53  O3    c     0.269850    0.271128    0.330921    0.000000
    54  O2    c     0.249942    0.739980    0.311578    0.000000
    55  O2    c     0.742617    0.265122    0.676531    0.000000
    56  O2    c     0.754414    0.734019    0.682291    0.000000
    57  O3    c     0.160341    0.218352    0.125187    0.000000
    58  O2    c     0.349829    0.765429    0.122621    0.000000
    59  O2    c     0.841146    0.238284    0.872174    0.000000
    60  O2    c     0.665522    0.754437    0.881720    0.000000
    61  O3    c     0.859791    0.731479    0.874762    0.000000
    62  O2    c     0.644578    0.261546    0.872306    0.000000
    63  O2    c     0.141398    0.748565    0.126582    0.000000
    64  O2    c     0.358724    0.276520    0.128704    0.000000
    65  O2    c     0.634849    0.510236    0.053245    0.000000
    66  O3    c     0.875359    0.454307    0.061560    0.000000
    67  O2    c     0.366547    0.517910    0.944675    0.000000
    68  O2    c     0.133993    0.481968    0.962172    0.000000
    69  O2    c     0.745356    0.275160    0.067572    0.000000
    70  O3    c     0.759475    0.708917    0.084743    0.000000
    71  O2    c     0.256670    0.277529    0.935632    0.000000
    72  O2    c     0.242974    0.721782    0.938042    0.000000
    73  O1    s     0.119100    0.158736    0.381171    0.000000
    74  O2    s     0.390775    0.863802    0.351017    0.000000
    75  O2    s     0.886992    0.151057    0.646801    0.000000
    76  O2    s     0.609765    0.849354    0.658113    0.000000
    77  O2    s     0.899401    0.814573    0.647503    0.000000
    78  O2    s     0.596406    0.184314    0.646638    0.000000
    79  O3    s     0.105150    0.810373    0.360746    0.000000
    80  O2    s     0.415681    0.196274    0.351766    0.000000
    81  O3    s     0.981103    0.996596    0.485552    0.000000
    82  O2    s     0.507031    0.991524    0.494123    0.000000
    83  O3    s     0.006704    0.037908    0.221490    0.000000
    84  O2    s     0.511509    0.986651    0.242225    0.000000
    85  O2    s     0.016973    0.002337    0.726551    0.000000
    86  O2    s     0.484466    0.999508    0.741317    0.000000
    87  O2    s     0.601896    0.179409    0.099346    0.000000
    88  O3    s     0.919070    0.801870    0.115896    0.000000
    89  O2    s     0.400352    0.186518    0.900480    0.000000
    90  O2    s     0.100569    0.811743    0.892403    0.000000
    91  O2    s     0.379102    0.851900    0.888825    0.000000
    92  O2    s     0.118165    0.150403    0.889739    0.000000
    93  O2    s     0.621964    0.844102    0.108501    0.000000
    94  O2    s     0.878180    0.117438    0.097406    0.000000
    95  O2    s     0.503752    0.971585    0.989650    0.000000
    96  O2    s     0.994188    0.013705    0.972344    0.000000
    97  O3    s     0.145491    0.500079    0.297482    0.000000
    98  O2    s     0.365631    0.526012    0.301545    0.000000
    99  O2    s     0.856253    0.484444    0.701233    0.000000
   100  O2    s     0.641809    0.513668    0.703411    0.000000
   101  O3    s     0.270570    0.277236    0.322363    0.000000
   102  O2    s     0.250186    0.733801    0.304281    0.000000
   103  O2    s     0.742967    0.271861    0.685750    0.000000
   104  O2    s     0.754309    0.727064    0.691512    0.000000
   105  O3    s     0.161948    0.229800    0.123103    0.000000
   106  O2    s     0.347196    0.755548    0.122737    0.000000
   107  O2    s     0.839567    0.246920    0.871933    0.000000
   108  O2    s     0.666164    0.744645    0.881262    0.000000
   109  O3    s     0.857639    0.722435    0.872615    0.000000
   110  O2    s     0.646897    0.271473    0.872436    0.000000
   111  O2    s     0.144495    0.737389    0.126249    0.000000
   112  O2    s     0.356889    0.285331    0.128329    0.000000
   113  O2    s     0.640903    0.508598    0.048232    0.000000
   114  O3    s     0.869604    0.453757    0.056122    0.000000
   115  O2    s     0.360983    0.517186    0.950825    0.000000
   116  O2    s     0.139522    0.483359    0.965384    0.000000
   117  O2    s     0.745318    0.278354    0.058447    0.000000
   118  O3    s     0.758143    0.705502    0.075651    0.000000
   119  O2    s     0.256786    0.282298    0.944477    0.000000
   120  O2    s     0.243318    0.717142    0.946075    0.000000
--------------------------------------------------------------------------------

  Final Cartesian lattice vectors (Angstroms) :

       17.189451    0.017474   -0.209414
        0.007522    7.612320   -0.006271
       -0.126362   -0.008333   10.246633


  Final cell parameters and derivatives :

--------------------------------------------------------------------------------
       a           17.190736 Angstrom     dE/de1(xx)    -0.001464 eV/strain
       b            7.612326 Angstrom     dE/de2(yy)    -0.000055 eV/strain
       c           10.247416 Angstrom     dE/de3(zz)    -0.008947 eV/strain
       alpha       90.094490 Degrees      dE/de4(yz)    -0.000110 eV/strain
       beta        91.404571 Degrees      dE/de5(xz)    -0.000083 eV/strain
       gamma       89.884573 Degrees      dE/de6(xy)     0.000047 eV/strain
--------------------------------------------------------------------------------

  Primitive cell volume =          1340.584736 Angs**3

  Density of cell =      1.951825 g/cm**3

  Non-primitive cell volume =          1340.584736 Angs**3


  Final internal derivatives :

--------------------------------------------------------------------------------
   No.  Atomic          a             b             c           Radius
        Label          (eV)          (eV)          (eV)        (eV/Angs)
--------------------------------------------------------------------------------
      1 Ge    c       0.000000      0.000000      0.000000      0.000000
      2 Ge    c      -0.000551     -0.000470     -0.001239      0.000000
      3 Ge    c       0.000409      0.000444     -0.001364      0.000000
      4 Si    c       0.002645     -0.000157      0.000378      0.000000
      5 Si    c       0.002394      0.000123     -0.001009      0.000000
      6 Si    c      -0.002437     -0.000102     -0.000810      0.000000
      7 Si    c      -0.002520     -0.000165      0.000388      0.000000
      8 Si    c       0.002621      0.000311      0.000068      0.000000
      9 Si    c       0.002318     -0.000015     -0.000663      0.000000
     10 Si    c      -0.002180      0.000077     -0.000733      0.000000
     11 Si    c       0.000511      0.000360     -0.001416      0.000000
     12 Si    c       0.000459     -0.000432      0.001405      0.000000
     13 Si    c      -0.000250      0.000312      0.001524      0.000000
     14 Si    c       0.000723      0.000310      0.001597      0.000000
     15 Si    c      -0.000558     -0.000379      0.001373      0.000000
     16 Si    c      -0.000876      0.000456     -0.001210      0.000000
     17 Si    c       0.000383     -0.000307     -0.001436      0.000000
     18 Si    c      -0.000413     -0.000311     -0.001507      0.000000
     19 Si    c       0.000577     -0.000405      0.001399      0.000000
     20 Si    c      -0.000645      0.000453      0.001397      0.000000
     21 Si    c       0.000483      0.000384      0.001408      0.000000
     22 Si    c      -0.000541     -0.000560      0.001388      0.000000
     23 Si    c      -0.000254      0.000445     -0.001315      0.000000
     24 Si    c       0.000313     -0.000274     -0.001537      0.000000
     25 O1    c       0.001369      0.000595     -0.000256      0.000000
     26 O2    c      -0.000688     -0.000338     -0.000086      0.000000
     27 O2    c      -0.000595      0.000292      0.000140      0.000000
     28 O2    c       0.000448     -0.000220      0.000029      0.000000
     29 O2    c      -0.000526     -0.000304      0.000081      0.000000
     30 O2    c       0.000634      0.000337      0.000080      0.000000
     31 O3    c       0.001205     -0.000534     -0.000330      0.000000
     32 O2    c      -0.000433      0.000260      0.000009      0.000000
     33 O3    c      -0.000447     -0.000072      0.001627      0.000000
     34 O2    c      -0.000029      0.000217      0.000352      0.000000
     35 O3    c      -0.000422     -0.000637      0.000560      0.000000
     36 O2    c       0.000082      0.000191     -0.000232      0.000000
     37 O2    c       0.000339     -0.000089      0.001014      0.000000
     38 O2    c      -0.000288      0.000055      0.000811      0.000000
     39 O2    c       0.000527      0.000322     -0.000037      0.000000
     40 O3    c      -0.000790     -0.000488      0.000026      0.000000
     41 O2    c      -0.000639      0.000319      0.000167      0.000000
     42 O2    c       0.000638     -0.000338      0.000170      0.000000
     43 O2    c      -0.000685     -0.000341      0.000125      0.000000
     44 O2    c       0.000800      0.000409      0.000262      0.000000
     45 O2    c       0.000702     -0.000344     -0.000122      0.000000
     46 O2    c      -0.000442      0.000206      0.000036      0.000000
     47 O2    c       0.000164      0.000265      0.000292      0.000000
     48 O2    c      -0.000076     -0.000217      0.000681      0.000000
     49 O3    c      -0.000216     -0.000099      0.000203      0.000000
     50 O2    c       0.000122      0.000004      0.000176      0.000000
     51 O2    c       0.000146      0.000075     -0.000161      0.000000
     52 O2    c      -0.000128      0.000054     -0.000167      0.000000
     53 O3    c       0.000050      0.000046      0.000260      0.000000
     54 O2    c       0.000070     -0.000019      0.000163      0.000000
     55 O2    c      -0.000054      0.000033     -0.000164      0.000000
     56 O2    c      -0.000023     -0.000024     -0.000178      0.000000
     57 O3    c       0.000680      0.001017     -0.000134      0.000000
     58 O2    c      -0.000715     -0.000553     -0.000004      0.000000
     59 O2    c      -0.000396      0.000475      0.000093      0.000000
     60 O2    c       0.000119     -0.000548     -0.000175      0.000000
     61 O3    c      -0.000975     -0.000818     -0.000474      0.000000
     62 O2    c       0.000640      0.000558      0.000096      0.000000
     63 O2    c       0.000853     -0.000608     -0.000093      0.000000
     64 O2    c      -0.000478      0.000501      0.000044      0.000000
     65 O2    c      -0.000191     -0.000079      0.000154      0.000000
     66 O3    c       0.000210     -0.000067      0.000259      0.000000
     67 O2    c       0.000108      0.000061     -0.000177      0.000000
     68 O2    c      -0.000153     -0.000017     -0.000098      0.000000
     69 O2    c       0.000008      0.000023      0.000176      0.000000
     70 O3    c      -0.000050     -0.000054      0.000220      0.000000
     71 O2    c      -0.000056      0.000029     -0.000159      0.000000
     72 O2    c      -0.000042     -0.000027     -0.000167      0.000000
     73 O1    s      -0.000960     -0.000384     -0.000479      0.000000
     74 O2    s       0.000302      0.000110     -0.000464      0.000000
     75 O2    s       0.000176     -0.000114      0.000340      0.000000
     76 O2    s      -0.000146      0.000084      0.000348      0.000000
     77 O2    s       0.000108      0.000127      0.000366      0.000000
     78 O2    s      -0.000164     -0.000132      0.000431      0.000000
     79 O3    s      -0.000529      0.000286     -0.000438      0.000000
     80 O2    s       0.000071     -0.000124     -0.000459      0.000000
     81 O3    s       0.000508      0.000084     -0.000622      0.000000
     82 O2    s      -0.000047     -0.000080     -0.000109      0.000000
     83 O3    s       0.000216      0.000337     -0.000473      0.000000
     84 O2    s      -0.000098     -0.000099     -0.000042      0.000000
     85 O2    s      -0.000511      0.000045     -0.000076      0.000000
     86 O2    s       0.000265     -0.000044     -0.000086      0.000000
     87 O2    s      -0.000200     -0.000156     -0.000462      0.000000
     88 O3    s       0.000366      0.000313     -0.000560      0.000000
     89 O2    s       0.000269     -0.000126      0.000315      0.000000
     90 O2    s      -0.000265      0.000150      0.000391      0.000000
     91 O2    s       0.000423      0.000133      0.000449      0.000000
     92 O2    s      -0.000379     -0.000151      0.000343      0.000000
     93 O2    s      -0.000368      0.000131     -0.000452      0.000000
     94 O2    s       0.000363     -0.000059     -0.000537      0.000000
     95 O2    s      -0.000112     -0.000112     -0.000062      0.000000
     96 O2    s       0.000075      0.000082     -0.000128      0.000000
     97 O3    s       0.000016      0.000062     -0.000351      0.000000
     98 O2    s      -0.000041      0.000000     -0.000431      0.000000
     99 O2    s      -0.000055     -0.000024      0.000366      0.000000
    100 O2    s       0.000040     -0.000014      0.000405      0.000000
    101 O3    s       0.000050     -0.000109     -0.000683      0.000000
    102 O2    s      -0.000034      0.000099     -0.000478      0.000000
    103 O2    s       0.000025     -0.000092      0.000600      0.000000
    104 O2    s      -0.000037      0.000081      0.000616      0.000000
    105 O3    s      -0.000149     -0.000449     -0.000062      0.000000
    106 O2    s       0.000091      0.000152     -0.000021      0.000000
    107 O2    s      -0.000048     -0.000102     -0.000014      0.000000
    108 O2    s       0.000153      0.000149      0.000052      0.000000
    109 O3    s       0.000342      0.000345      0.000129      0.000000
    110 O2    s      -0.000099     -0.000165      0.000008      0.000000
    111 O2    s      -0.000157      0.000142     -0.000026      0.000000
    112 O2    s      -0.000024     -0.000142     -0.000027      0.000000
    113 O2    s       0.000069      0.000028     -0.000373      0.000000
    114 O3    s      -0.000118     -0.000029     -0.000520      0.000000
    115 O2    s       0.000039     -0.000000      0.000422      0.000000
    116 O2    s      -0.000034      0.000021      0.000234      0.000000
    117 O2    s      -0.000032     -0.000076     -0.000595      0.000000
    118 O3    s      -0.000036      0.000132     -0.000661      0.000000
    119 O2    s       0.000057     -0.000103      0.000518      0.000000
    120 O2    s       0.000045      0.000108      0.000495      0.000000
--------------------------------------------------------------------------------
  Maximum abs         0.002645      0.001017      0.001627      0.000000
--------------------------------------------------------------------------------


  Born effective charge tensors : 

-------------------------------------------------------------------------------
  Atom             x           y             z
-------------------------------------------------------------------------------
    1 Ge    x       4.3214     -0.0892     -0.0777
            y       0.1535      3.8581      0.0643
            z      -0.9348     -0.0671      4.4657
-------------------------------------------------------------------------------
    2 Ge    x       3.9984      0.3797     -0.2159
            y       0.2351      4.1469     -0.3487
            z      -0.2199     -0.1078      3.5491
-------------------------------------------------------------------------------
    3 Ge    x       4.0511      0.3402      0.1155
            y       0.3518      4.1753      0.2068
            z       0.2067      0.0231      3.2755
-------------------------------------------------------------------------------
    4 Si    x       3.3959     -0.1510      0.1511
            y       0.1454      3.2197     -0.0011
            z       0.5054     -0.0529      3.8061
-------------------------------------------------------------------------------
    5 Si    x       3.6010      0.0509     -0.4747
            y      -0.0923      3.2786     -0.0017
            z      -0.4112     -0.0132      4.2108
-------------------------------------------------------------------------------
    6 Si    x       3.4623      0.0940      0.2437
            y      -0.0920      3.2524     -0.0335
            z       0.3399      0.0817      3.8279
-------------------------------------------------------------------------------
    7 Si    x       3.4649      0.1492     -0.1571
            y      -0.1238      3.2443     -0.0314
            z      -0.5170     -0.0480      3.0876
-------------------------------------------------------------------------------
    8 Si    x       3.7964      0.4304      0.1867
            y      -0.0460      3.5333      0.0120
            z       0.7361      0.2473      3.3047
-------------------------------------------------------------------------------
    9 Si    x       3.4956     -0.1222     -0.2769
            y       0.1326      3.2682      0.0196
            z      -0.4677     -0.0181      3.1319
-------------------------------------------------------------------------------
   10 Si    x       3.5270     -0.1113      0.3434
            y       0.1031      3.2692     -0.0094
            z       0.3979     -0.0486      3.0796
-------------------------------------------------------------------------------
   11 Si    x       3.1712      0.3049      0.1301
            y       0.1544      3.4422      0.1487
            z       0.0955      0.0764      2.8246
-------------------------------------------------------------------------------
   12 Si    x       3.2320     -0.2957     -0.1001
            y      -0.2074      3.4400      0.1474
            z      -0.1433      0.0619      2.7640
-------------------------------------------------------------------------------
   13 Si    x       3.1942     -0.3067      0.0617
            y      -0.2065      3.4882     -0.1461
            z       0.1614     -0.0839      2.7930
-------------------------------------------------------------------------------
   14 Si    x       3.2895      0.2643      0.0065
            y       0.2967      3.5211     -0.0971
            z      -0.0633     -0.0085      3.0869
-------------------------------------------------------------------------------
   15 Si    x       3.2036      0.2360      0.0424
            y       0.2811      3.4425      0.1791
            z       0.1202      0.0629      2.8056
-------------------------------------------------------------------------------
   16 Si    x       3.5162     -0.2945     -0.2780
            y      -0.2870      3.8334      0.2890
            z      -0.2881      0.1285      3.0973
-------------------------------------------------------------------------------
   17 Si    x       3.4653     -0.1499     -0.0464
            y      -0.2540      3.5361     -0.2004
            z       0.0515     -0.1040      2.9021
-------------------------------------------------------------------------------
   18 Si    x       3.2400      0.2733     -0.1438
            y       0.2330      3.3679     -0.1774
            z      -0.1831     -0.0511      2.7330
-------------------------------------------------------------------------------
   19 Si    x       3.2564     -0.2652     -0.1111
            y      -0.2475      3.4288      0.1745
            z      -0.1565      0.0827      2.7308
-------------------------------------------------------------------------------
   20 Si    x       3.2939     -0.2602      0.1511
            y      -0.2366      3.4209     -0.2371
            z       0.1443     -0.0313      2.6891
-------------------------------------------------------------------------------
   21 Si    x       3.2433      0.3351     -0.1756
            y       0.1211      3.4398     -0.1807
            z      -0.1041     -0.0692      2.7385
-------------------------------------------------------------------------------
   22 Si    x       3.3367      0.3499      0.1536
            y       0.1520      3.5804      0.1441
            z       0.1319     -0.0408      2.9960
-------------------------------------------------------------------------------
   23 Si    x       3.5685     -0.3361     -0.0181
            y      -0.1113      3.5017      0.1980
            z      -0.0673      0.0788      2.8063
-------------------------------------------------------------------------------
   24 Si    x       3.3270     -0.2703      0.1409
            y       0.0756      3.6869     -0.0402
            z       0.1449     -0.0044      2.7664
-------------------------------------------------------------------------------
   25 O1    x      -2.2638     -0.9598      0.4023
            y      -1.0404     -2.3779      0.4388
            z       0.4901      0.3854     -1.7556
-------------------------------------------------------------------------------
   26 O2    x      -1.7555     -0.7232     -0.3055
            y      -0.7452     -1.9331     -0.3319
            z      -0.3489     -0.3235     -1.3489
-------------------------------------------------------------------------------
   27 O2    x      -1.7463      0.7316      0.3465
            y       0.7480     -1.9753     -0.3500
            z       0.3602     -0.3434     -1.3421
-------------------------------------------------------------------------------
   28 O2    x      -1.7631      0.7428     -0.3420
            y       0.7819     -1.9899      0.3636
            z      -0.3845      0.3466     -1.3294
-------------------------------------------------------------------------------
   29 O2    x      -1.6727     -0.6962      0.3233
            y      -0.6643     -2.0041      0.3322
            z       0.3371      0.3311     -1.3445
-------------------------------------------------------------------------------
   30 O2    x      -1.6726     -0.7120     -0.3179
            y      -0.6901     -1.9960     -0.3109
            z      -0.3607     -0.3258     -1.3465
-------------------------------------------------------------------------------
   31 O3    x      -2.0557      0.9143      0.5166
            y       0.8991     -2.2287     -0.5251
            z       0.6109     -0.4956     -1.6837
-------------------------------------------------------------------------------
   32 O2    x      -1.6144      0.6923     -0.2889
            y       0.6370     -2.0342      0.3085
            z      -0.3380      0.3052     -1.3418
-------------------------------------------------------------------------------
   33 O3    x      -2.0067     -0.0127      1.0543
            y       0.0118     -1.1859     -0.0016
            z       1.3666      0.0378     -3.3758
-------------------------------------------------------------------------------
   34 O2    x      -1.5670      0.0200     -0.8032
            y       0.0004     -1.0924      0.0120
            z      -0.9903      0.0158     -2.8112
-------------------------------------------------------------------------------
   35 O3    x      -2.0020     -0.1177     -0.9308
            y      -0.0590     -1.2940     -0.0671
            z      -0.8904     -0.0958     -2.6868
-------------------------------------------------------------------------------
   36 O2    x      -1.7028      0.0173      0.7375
            y       0.0180     -1.1209     -0.0260
            z       0.7299     -0.0195     -2.2263
-------------------------------------------------------------------------------
   37 O2    x      -1.8332     -0.0006     -0.6956
            y      -0.0206     -1.1109     -0.0028
            z      -0.6751      0.0096     -2.1422
-------------------------------------------------------------------------------
   38 O2    x      -1.7645     -0.0011      0.7334
            y      -0.0110     -1.1034     -0.0029
            z       0.7484     -0.0028     -2.2138
-------------------------------------------------------------------------------
   39 O2    x      -1.6646     -0.7093      0.3266
            y      -0.6178     -2.0064      0.3468
            z       0.3671      0.3357     -1.2300
-------------------------------------------------------------------------------
   40 O3    x      -1.9470     -0.8598     -0.2803
            y      -0.7641     -2.5567     -0.2444
            z      -0.3735     -0.2520     -1.3519
-------------------------------------------------------------------------------
   41 O2    x      -1.6668      0.7096      0.3628
            y       0.6269     -2.0357     -0.3939
            z       0.3729     -0.3651     -1.2466
-------------------------------------------------------------------------------
   42 O2    x      -1.6902      0.7181     -0.4086
            y       0.6102     -2.0074      0.4163
            z      -0.3572      0.3587     -1.2724
-------------------------------------------------------------------------------
   43 O2    x      -1.7419     -0.7153      0.3531
            y      -0.6839     -1.9311      0.3728
            z       0.3377      0.3465     -1.2745
-------------------------------------------------------------------------------
   44 O2    x      -1.7749     -0.7374     -0.3967
            y      -0.6880     -1.9525     -0.3943
            z      -0.3519     -0.3383     -1.2608
-------------------------------------------------------------------------------
   45 O2    x      -1.7360      0.7106      0.2823
            y       0.6818     -1.9331     -0.3105
            z       0.3230     -0.3024     -1.2353
-------------------------------------------------------------------------------
   46 O2    x      -1.8313      0.6368     -0.2275
            y       0.6398     -1.8308      0.2737
            z      -0.3059      0.2511     -1.2164
-------------------------------------------------------------------------------
   47 O2    x      -1.8264      0.0122     -0.6123
            y       0.0084     -1.1719      0.0094
            z      -0.3559      0.0176     -1.7000
-------------------------------------------------------------------------------
   48 O2    x      -1.8173      0.0149      0.5905
            y       0.0331     -1.1785      0.0028
            z       0.3218     -0.0041     -1.7119
-------------------------------------------------------------------------------
   49 O3    x      -1.3333      0.0092      0.0665
            y       0.0498     -3.1287      0.0907
            z       0.0860      0.0763     -1.1973
-------------------------------------------------------------------------------
   50 O2    x      -1.1561      0.0796     -0.0616
            y       0.1454     -2.5486      0.0241
            z      -0.0757      0.0225     -1.0837
-------------------------------------------------------------------------------
   51 O2    x      -1.1869     -0.0509      0.0474
            y      -0.0843     -2.5718      0.0104
            z       0.0722      0.0078     -1.0549
-------------------------------------------------------------------------------
   52 O2    x      -1.1637     -0.0386     -0.0465
            y      -0.0870     -2.5731     -0.0361
            z      -0.0786     -0.0029     -1.0608
-------------------------------------------------------------------------------
   53 O3    x      -2.9335     -0.1739      0.1101
            y      -0.1112     -1.3951      0.1089
            z       0.1228      0.0740     -1.2504
-------------------------------------------------------------------------------
   54 O2    x      -2.4248     -0.0721      0.0105
            y      -0.0340     -1.2416     -0.0649
            z       0.0331     -0.0369     -1.0971
-------------------------------------------------------------------------------
   55 O2    x      -2.3914      0.0761      0.0204
            y       0.0398     -1.2387     -0.0692
            z       0.0005     -0.0429     -1.0847
-------------------------------------------------------------------------------
   56 O2    x      -2.3850      0.0778      0.0590
            y       0.0325     -1.2604      0.0634
            z       0.0514      0.0436     -1.0767
-------------------------------------------------------------------------------
   57 O3    x      -1.3311     -0.1536     -0.0308
            y      -0.1016     -1.4965      0.0859
            z      -0.0307      0.0684     -2.5494
-------------------------------------------------------------------------------
   58 O2    x      -1.1800     -0.1340     -0.0106
            y      -0.0892     -1.2802     -0.0205
            z      -0.0024     -0.0162     -2.0727
-------------------------------------------------------------------------------
   59 O2    x      -1.1973      0.1258     -0.0265
            y       0.0743     -1.2602      0.0424
            z      -0.0008      0.0602     -2.0534
-------------------------------------------------------------------------------
   60 O2    x      -1.1665      0.1125      0.0552
            y       0.0676     -1.3013      0.0234
            z       0.0184      0.0133     -2.0765
-------------------------------------------------------------------------------
   61 O3    x      -1.3508     -0.1543     -0.1331
            y      -0.1428     -1.4354     -0.0536
            z      -0.1226     -0.0036     -2.6052
-------------------------------------------------------------------------------
   62 O2    x      -1.1874     -0.1252      0.0306
            y      -0.1145     -1.2726      0.0136
            z       0.0369      0.0049     -2.0721
-------------------------------------------------------------------------------
   63 O2    x      -1.2550      0.1414     -0.0535
            y       0.1272     -1.2929     -0.0274
            z      -0.0571     -0.0346     -2.0363
-------------------------------------------------------------------------------
   64 O2    x      -1.1814      0.1109     -0.0485
            y       0.1089     -1.2871     -0.0098
            z      -0.0433     -0.0181     -2.0963
-------------------------------------------------------------------------------
   65 O2    x      -1.2214     -0.0314      0.0767
            y      -0.0950     -2.4882     -0.0362
            z       0.1009     -0.0249     -1.0299
-------------------------------------------------------------------------------
   66 O3    x      -1.4581     -0.1983     -0.1215
            y      -0.2738     -3.0617     -0.1045
            z      -0.1573     -0.1137     -1.1526
-------------------------------------------------------------------------------
   67 O2    x      -1.2213      0.0512      0.0811
            y       0.0938     -2.5135      0.0189
            z       0.0943      0.0046     -1.0269
-------------------------------------------------------------------------------
   68 O2    x      -1.2588      0.0462     -0.0644
            y       0.1031     -2.5843     -0.0246
            z      -0.0808     -0.0289     -0.9927
-------------------------------------------------------------------------------
   69 O2    x      -2.4035      0.1430      0.0194
            y       0.0888     -1.2344      0.0496
            z       0.0114      0.0243     -1.0649
-------------------------------------------------------------------------------
   70 O3    x      -3.0463      0.1080     -0.0836
            y       0.0582     -1.3715     -0.0805
            z      -0.0823     -0.0379     -1.2185
-------------------------------------------------------------------------------
   71 O2    x      -2.4418     -0.0965     -0.0059
            y      -0.0630     -1.2541     -0.0685
            z      -0.0140     -0.0344     -1.0396
-------------------------------------------------------------------------------
   72 O2    x      -2.4598     -0.0841      0.0383
            y      -0.0361     -1.2330      0.0699
            z       0.0047      0.0281     -1.0318
-------------------------------------------------------------------------------




  Elastic Constant Matrix: (Units=GPa)

-------------------------------------------------------------------------------
  Indices      1         2         3         4         5         6    
-------------------------------------------------------------------------------
       1     51.8182   26.1875   15.9507   -0.1197   -4.3645   -3.1026
       2     26.1875   72.6404   16.4812    0.5060   -3.8971   -1.9627
       3     15.9507   16.4812   19.7821   -0.6389   -2.2371   -0.4283
       4     -0.1197    0.5060   -0.6389   11.4007    0.3940    0.5898
       5     -4.3645   -3.8971   -2.2371    0.3940   24.9058   -0.1267
       6     -3.1026   -1.9627   -0.4283    0.5898   -0.1267   24.2416
-------------------------------------------------------------------------------


  Elastic Compliance Matrix: (Units=1/GPa)

-------------------------------------------------------------------------------
  Indices      1         2         3         4         5         6    
-------------------------------------------------------------------------------
       1    0.028010 -0.005960 -0.017302 -0.000642  0.002446  0.002825
       2   -0.005960  0.018355 -0.010419 -0.001523  0.000919  0.000581
       3   -0.017302 -0.010419  0.073495  0.004432  0.001860 -0.001858
       4   -0.000642 -0.001523  0.004432  0.088188 -0.001359 -0.002280
       5    0.002446  0.000919  0.001860 -0.001359  0.040916  0.000667
       6    0.002825  0.000581 -0.001858 -0.002280  0.000667  0.041686
-------------------------------------------------------------------------------

  Mechanical properties :

-------------------------------------------------------------------------------
  Convention :                    Reuss         Voigt         Hill
-------------------------------------------------------------------------------
  Bulk  Modulus (GPa)     =      19.04853      29.05327      24.05090
  Shear Modulus (GPa)     =      13.31516      17.81771      15.56643
-------------------------------------------------------------------------------
  Velocity S-wave (km/s)  =       2.61188       3.02138       2.82406
  Velocity P-wave (km/s)  =       4.34226       5.20162       4.79125
-------------------------------------------------------------------------------
  Compressibility (1/GPa) =    0.05249749
-------------------------------------------------------------------------------
  Stress axis :                     x             y             z
-------------------------------------------------------------------------------
  Youngs Moduli (GPa)     =      35.70150      54.48218      13.60628
-------------------------------------------------------------------------------
  Poissons Ratio (x)      =                     0.32472       0.23542
  Poissons Ratio (y)      =       0.21279                     0.14176
  Poissons Ratio (z)      =       0.61772       0.56764
-------------------------------------------------------------------------------


  Piezoelectric Strain Matrix: (Units=C/m**2)

-------------------------------------------------------------------------------
  Indices      1         2         3         4         5         6    
-------------------------------------------------------------------------------
       x     0.09471  -0.51339   0.90114   0.17136   0.42693  -0.09454
       y     0.36394   0.30350  -0.12858   0.02361   0.21000  -0.05978
       z    -0.63649  -0.16790  -2.77078  -0.10468  -0.26632   0.13037
-------------------------------------------------------------------------------


  Piezoelectric Stress Matrix: (Units=10**-11 C/N)

-------------------------------------------------------------------------------
  Indices      1         2         3         4         5         6    
-------------------------------------------------------------------------------
       x    -0.92118  -1.93000   7.16689   1.94614   1.86082  -0.57516
       y     1.09394   0.48635  -1.83032   0.06669   0.94503  -0.09623
       z     3.08975   2.95707 -19.20790  -2.07812  -1.75317   0.87468
-------------------------------------------------------------------------------


  Static dielectric constant tensor : 

-------------------------------------------------------------------------------
              x         y         z
-------------------------------------------------------------------------------
       x     4.01139   0.07160  -0.12832
       y     0.07160   4.11518   0.07174
       z    -0.12832   0.07174   3.35397
--------------------------------------------------------------------------------

  High frequency dielectric constant tensor : 

-------------------------------------------------------------------------------
              x         y         z
-------------------------------------------------------------------------------
       x     1.67867  -0.00066  -0.00085
       y    -0.00066   1.68534   0.00027
       z    -0.00085   0.00027   1.61726
-------------------------------------------------------------------------------

  Static refractive indices : 

-------------------------------------------------------------------------------
    1 =    1.82234      2 =    2.00196      3 =    2.03759
-------------------------------------------------------------------------------

  High frequency refractive indices : 

-------------------------------------------------------------------------------
    1 =    1.27171      2 =    1.29561      3 =    1.29823
-------------------------------------------------------------------------------


  Time to end of optimisation =      14.5732 seconds


  Peak dynamic memory used =       5.01 MB 


  Timing analysis for GULP :

--------------------------------------------------------------------------------
  Task / Subroutine                                          Time (Seconds)
--------------------------------------------------------------------------------
  Calculation of reciprocal space energy and derivatives          0.8715
  Calculation of real space energy and derivatives                8.8037
  Calculation of three-body energy and derivatives                0.8616
  Calculation and manipulation of Hessian matrix                  4.9733
  Calculation of matrix inversion                                 0.0209
  Global summation overhead                                       0.0002
--------------------------------------------------------------------------------
  Total CPU time                                                 14.5732
--------------------------------------------------------------------------------


  Dump file written as c00066.vasp.grs
  CIF file written as c00066.vasp.cif


  Job Finished at 11:38.16  7th October    2025                               

