********************************************************************************
*                       GENERAL UTILITY LATTICE PROGRAM                        *
*                                 Julian Gale                                  *
*                       Curtin Institute for Computation                       *
*                    School of Molecular and Life Sciences                     *
*                    Curtin University, Western Australia                      *
********************************************************************************
* Version = 6.1.2 * Last modified =   3rd November 2022                        *
********************************************************************************
*  optimise     - perform optimisation run                                     *
*  conp         - constant pressure calculation                                *
*  property     - calculate properties for final geometry                      *
********************************************************************************

  Job Started  at 11:39.39  7th October    2025                               

  Number of CPUs =     1


  Total number of configurations input =      1

********************************************************************************
*  Input for Configuration =   1 : c00075.vasp                                 *
********************************************************************************

  Formula = Ge3Si21O48                                                  

  Number of irreducible atoms/shells =     120


  Total number atoms/shells =     120

  Dimensionality = 3               :  Bulk   



  Cartesian lattice vectors (Angstroms) :

       17.182800    0.000000    0.000000
        0.000000    7.513760    0.000000
        0.000000    0.000000   10.447700

  Cell parameters (Angstroms/Degrees):

  a =      17.1828    alpha =  90.0000
  b =       7.5138    beta  =  90.0000
  c =      10.4477    gamma =  90.0000

  Initial cell volume =        1348.875752 Angs**3

  Temperature of configuration =   0.00     K 

  Pressure of configuration =         0.000 GPa 

  Fractional coordinates of asymmetric unit :

--------------------------------------------------------------------------------
   No.  Atomic       x           y          z         Charge      Occupancy
        Label      (Frac)      (Frac)     (Frac)        (e)         (Frac)  
--------------------------------------------------------------------------------
      1 Ge    c    0.052090    0.000000    0.372270     4.00000    1.000000    
      2 Ge    c    0.339810 *  0.706090 *  0.273440 *   4.00000    1.000000    
      3 Ge    c    0.839810 *  0.706090 *  0.726560 *   4.00000    1.000000    
      4 Si    c    0.447910 *  0.000000 *  0.372270 *   4.00000    1.000000    
      5 Si    c    0.947910 *  0.000000 *  0.627730 *   4.00000    1.000000    
      6 Si    c    0.552090 *  0.000000 *  0.627730 *   4.00000    1.000000    
      7 Si    c    0.556730 *  0.000000 *  0.122130 *   4.00000    1.000000    
      8 Si    c    0.943270 *  0.000000 *  0.122130 *   4.00000    1.000000    
      9 Si    c    0.443270 *  0.000000 *  0.877870 *   4.00000    1.000000    
     10 Si    c    0.056730 *  0.000000 *  0.877870 *   4.00000    1.000000    
     11 Si    c    0.160190 *  0.293910 *  0.273440 *   4.00000    1.000000    
     12 Si    c    0.839810 *  0.293910 *  0.726560 *   4.00000    1.000000    
     13 Si    c    0.660190 *  0.706090 *  0.726560 *   4.00000    1.000000    
     14 Si    c    0.660190 *  0.293910 *  0.726560 *   4.00000    1.000000    
     15 Si    c    0.160190 *  0.706090 *  0.273440 *   4.00000    1.000000    
     16 Si    c    0.339810 *  0.293910 *  0.273440 *   4.00000    1.000000    
     17 Si    c    0.660660 *  0.294090 *  0.017440 *   4.00000    1.000000    
     18 Si    c    0.839340 *  0.705910 *  0.017440 *   4.00000    1.000000    
     19 Si    c    0.339340 *  0.294090 *  0.982560 *   4.00000    1.000000    
     20 Si    c    0.160660 *  0.705910 *  0.982560 *   4.00000    1.000000    
     21 Si    c    0.339340 *  0.705910 *  0.982560 *   4.00000    1.000000    
     22 Si    c    0.160660 *  0.294090 *  0.982560 *   4.00000    1.000000    
     23 Si    c    0.660660 *  0.705910 *  0.017440 *   4.00000    1.000000    
     24 Si    c    0.839340 *  0.294090 *  0.017440 *   4.00000    1.000000    
     25 O3    c    0.106570 *  0.174340 *  0.366200 *   1.33043    1.000000    
     26 O3    c    0.393430 *  0.825660 *  0.366200 *   1.33043    1.000000    
     27 O2    c    0.893430 *  0.174340 *  0.633800 *   0.87073    1.000000    
     28 O2    c    0.606570 *  0.825660 *  0.633800 *   0.87073    1.000000    
     29 O3    c    0.893430 *  0.825660 *  0.633800 *   1.33043    1.000000    
     30 O2    c    0.606570 *  0.174340 *  0.633800 *   0.87073    1.000000    
     31 O3    c    0.106570 *  0.825660 *  0.366200 *   1.33043    1.000000    
     32 O2    c    0.393430 *  0.174340 *  0.366200 *   0.87073    1.000000    
     33 O3    c    0.000000 *  0.000000 *  0.500000 *   1.33043    1.000000    
     34 O2    c    0.500000 *  0.000000 *  0.500000 *   0.87073    1.000000    
     35 O3    c    0.994520 *  0.000000 *  0.250840 *   1.33043    1.000000    
     36 O2    c    0.505480 *  0.000000 *  0.250840 *   0.87073    1.000000    
     37 O2    c    0.005480 *  0.000000 *  0.749160 *   0.87073    1.000000    
     38 O2    c    0.494520 *  0.000000 *  0.749160 *   0.87073    1.000000    
     39 O2    c    0.610230 *  0.175520 *  0.115390 *   0.87073    1.000000    
     40 O2    c    0.889770 *  0.824480 *  0.115390 *   0.87073    1.000000    
     41 O2    c    0.389770 *  0.175520 *  0.884610 *   0.87073    1.000000    
     42 O2    c    0.110230 *  0.824480 *  0.884610 *   0.87073    1.000000    
     43 O2    c    0.389770 *  0.824480 *  0.884610 *   0.87073    1.000000    
     44 O2    c    0.110230 *  0.175520 *  0.884610 *   0.87073    1.000000    
     45 O2    c    0.610230 *  0.824480 *  0.115390 *   0.87073    1.000000    
     46 O2    c    0.889770 *  0.175520 *  0.115390 *   0.87073    1.000000    
     47 O2    c    0.500000 *  0.000000 *  0.000000 *   0.87073    1.000000    
     48 O2    c    0.000000 *  0.000000 *  0.000000 *   0.87073    1.000000    
     49 O2    c    0.151750 *  0.500000 *  0.313330 *   0.87073    1.000000    
     50 O3    c    0.348250 *  0.500000 *  0.313330 *   1.33043    1.000000    
     51 O3    c    0.848250 *  0.500000 *  0.686670 *   1.33043    1.000000    
     52 O2    c    0.651750 *  0.500000 *  0.686670 *   0.87073    1.000000    
     53 O2    c    0.250000 *  0.234950 *  0.285720 *   0.87073    1.000000    
     54 O3    c    0.250000 *  0.765050 *  0.285720 *   1.33043    1.000000    
     55 O2    c    0.750000 *  0.234950 *  0.714280 *   0.87073    1.000000    
     56 O3    c    0.750000 *  0.765050 *  0.714280 *   1.33043    1.000000    
     57 O2    c    0.131410 *  0.268650 *  0.127790 *   0.87073    1.000000    
     58 O3    c    0.368590 *  0.731350 *  0.127790 *   1.33043    1.000000    
     59 O2    c    0.868590 *  0.268650 *  0.872210 *   0.87073    1.000000    
     60 O2    c    0.631410 *  0.731350 *  0.872210 *   0.87073    1.000000    
     61 O3    c    0.868590 *  0.731350 *  0.872210 *   1.33043    1.000000    
     62 O2    c    0.631410 *  0.268650 *  0.872210 *   0.87073    1.000000    
     63 O2    c    0.131410 *  0.731350 *  0.127790 *   0.87073    1.000000    
     64 O2    c    0.368590 *  0.268650 *  0.127790 *   0.87073    1.000000    
     65 O2    c    0.653920 *  0.500000 *  0.058200 *   0.87073    1.000000    
     66 O2    c    0.846080 *  0.500000 *  0.058200 *   0.87073    1.000000    
     67 O2    c    0.346080 *  0.500000 *  0.941800 *   0.87073    1.000000    
     68 O2    c    0.153920 *  0.500000 *  0.941800 *   0.87073    1.000000    
     69 O2    c    0.750000 *  0.231060 *  0.027050 *   0.87073    1.000000    
     70 O2    c    0.750000 *  0.768940 *  0.027050 *   0.87073    1.000000    
     71 O2    c    0.250000 *  0.231060 *  0.972950 *   0.87073    1.000000    
     72 O2    c    0.250000 *  0.768940 *  0.972950 *   0.87073    1.000000    
     73 O3    s    0.106570 *  0.174340 *  0.366200 *  -3.33043    1.000000    
     74 O3    s    0.393430 *  0.825660 *  0.366200 *  -3.33043    1.000000    
     75 O2    s    0.893430 *  0.174340 *  0.633800 *  -2.87073    1.000000    
     76 O2    s    0.606570 *  0.825660 *  0.633800 *  -2.87073    1.000000    
     77 O3    s    0.893430 *  0.825660 *  0.633800 *  -3.33043    1.000000    
     78 O2    s    0.606570 *  0.174340 *  0.633800 *  -2.87073    1.000000    
     79 O3    s    0.106570 *  0.825660 *  0.366200 *  -3.33043    1.000000    
     80 O2    s    0.393430 *  0.174340 *  0.366200 *  -2.87073    1.000000    
     81 O3    s    0.000000 *  0.000000 *  0.500000 *  -3.33043    1.000000    
     82 O2    s    0.500000 *  0.000000 *  0.500000 *  -2.87073    1.000000    
     83 O3    s    0.994520 *  0.000000 *  0.250840 *  -3.33043    1.000000    
     84 O2    s    0.505480 *  0.000000 *  0.250840 *  -2.87073    1.000000    
     85 O2    s    0.005480 *  0.000000 *  0.749160 *  -2.87073    1.000000    
     86 O2    s    0.494520 *  0.000000 *  0.749160 *  -2.87073    1.000000    
     87 O2    s    0.610230 *  0.175520 *  0.115390 *  -2.87073    1.000000    
     88 O2    s    0.889770 *  0.824480 *  0.115390 *  -2.87073    1.000000    
     89 O2    s    0.389770 *  0.175520 *  0.884610 *  -2.87073    1.000000    
     90 O2    s    0.110230 *  0.824480 *  0.884610 *  -2.87073    1.000000    
     91 O2    s    0.389770 *  0.824480 *  0.884610 *  -2.87073    1.000000    
     92 O2    s    0.110230 *  0.175520 *  0.884610 *  -2.87073    1.000000    
     93 O2    s    0.610230 *  0.824480 *  0.115390 *  -2.87073    1.000000    
     94 O2    s    0.889770 *  0.175520 *  0.115390 *  -2.87073    1.000000    
     95 O2    s    0.500000 *  0.000000 *  0.000000 *  -2.87073    1.000000    
     96 O2    s    0.000000 *  0.000000 *  0.000000 *  -2.87073    1.000000    
     97 O2    s    0.151750 *  0.500000 *  0.313330 *  -2.87073    1.000000    
     98 O3    s    0.348250 *  0.500000 *  0.313330 *  -3.33043    1.000000    
     99 O3    s    0.848250 *  0.500000 *  0.686670 *  -3.33043    1.000000    
    100 O2    s    0.651750 *  0.500000 *  0.686670 *  -2.87073    1.000000    
    101 O2    s    0.250000 *  0.234950 *  0.285720 *  -2.87073    1.000000    
    102 O3    s    0.250000 *  0.765050 *  0.285720 *  -3.33043    1.000000    
    103 O2    s    0.750000 *  0.234950 *  0.714280 *  -2.87073    1.000000    
    104 O3    s    0.750000 *  0.765050 *  0.714280 *  -3.33043    1.000000    
    105 O2    s    0.131410 *  0.268650 *  0.127790 *  -2.87073    1.000000    
    106 O3    s    0.368590 *  0.731350 *  0.127790 *  -3.33043    1.000000    
    107 O2    s    0.868590 *  0.268650 *  0.872210 *  -2.87073    1.000000    
    108 O2    s    0.631410 *  0.731350 *  0.872210 *  -2.87073    1.000000    
    109 O3    s    0.868590 *  0.731350 *  0.872210 *  -3.33043    1.000000    
    110 O2    s    0.631410 *  0.268650 *  0.872210 *  -2.87073    1.000000    
    111 O2    s    0.131410 *  0.731350 *  0.127790 *  -2.87073    1.000000    
    112 O2    s    0.368590 *  0.268650 *  0.127790 *  -2.87073    1.000000    
    113 O2    s    0.653920 *  0.500000 *  0.058200 *  -2.87073    1.000000    
    114 O2    s    0.846080 *  0.500000 *  0.058200 *  -2.87073    1.000000    
    115 O2    s    0.346080 *  0.500000 *  0.941800 *  -2.87073    1.000000    
    116 O2    s    0.153920 *  0.500000 *  0.941800 *  -2.87073    1.000000    
    117 O2    s    0.750000 *  0.231060 *  0.027050 *  -2.87073    1.000000    
    118 O2    s    0.750000 *  0.768940 *  0.027050 *  -2.87073    1.000000    
    119 O2    s    0.250000 *  0.231060 *  0.972950 *  -2.87073    1.000000    
    120 O2    s    0.250000 *  0.768940 *  0.972950 *  -2.87073    1.000000    
--------------------------------------------------------------------------------



********************************************************************************
*  General input information                                                   *
********************************************************************************

  Species output for all configurations : 

--------------------------------------------------------------------------------
  Species    Type    Atomic    Atomic    Charge       Radii (Angs)     Library
                     Number     Mass       (e)     Cova   Ionic  VDW   Symbol
--------------------------------------------------------------------------------
    Ge       Core       32      72.61   4.000000   1.170  0.000  1.750 Ge       
    Si       Core       14      28.09   4.000000   1.200  0.000  2.100 Si       
    O1       Core        8      16.00   1.733957   0.730  0.000  0.000 O1       
    O2       Core        8      16.00   0.870733   0.730  0.000  1.360 O2       
    O3       Core        8      16.00   1.330431   0.730  0.000  1.360 O3       
    O1       Shell       8       0.00  -3.733957   0.730  0.000  0.000 O1       
    O2       Shell       8       0.00  -2.870733   0.730  0.000  0.000 O2       
    O3       Shell       8       0.00  -3.330431   0.730  0.000  0.000 O3       
--------------------------------------------------------------------------------


  Lattice summation method               =    Ewald          (3-D)
                                         =    Parry          (2-D)
                                         =    Saunders et al (1-D)
  Accuracy factor for lattice sums       =   12.000


  Analytic derivatives to be used

  Time limit = Infinity

  Maximum range for interatomic potentials =    100000.000000 Angstroms

  General interatomic potentials :

--------------------------------------------------------------------------------
Atom  Types   Potential      Parameter       Value         Units   Cutoffs(Ang)
  1     2                                                            Min /  Max 
--------------------------------------------------------------------------------
Si   c O1   s Buckingham    Buckingham A     1315.2478    eV        0.000 16.000
                            Buckingham rho  0.31775900    Ang       
                            Buckingham C     10.141118    eV*Ang^6  
--------------------------------------------------------------------------------
Si   c O2   s Buckingham    Buckingham A     1315.2478    eV        0.000 16.000
                            Buckingham rho  0.31775900    Ang       
                            Buckingham C     10.141118    eV*Ang^6  
--------------------------------------------------------------------------------
Si   c O3   s Buckingham    Buckingham A     1315.2478    eV        0.000 16.000
                            Buckingham rho  0.31775900    Ang       
                            Buckingham C     10.141118    eV*Ang^6  
--------------------------------------------------------------------------------
Ge   c O1   s Buckingham    Buckingham A     1497.3996    eV        0.000 16.000
                            Buckingham rho  0.32564600    Ang       
                            Buckingham C     16.808599    eV*Ang^6  
--------------------------------------------------------------------------------
Ge   c O2   s Buckingham    Buckingham A     1497.3996    eV        0.000 16.000
                            Buckingham rho  0.32564600    Ang       
                            Buckingham C     16.808599    eV*Ang^6  
--------------------------------------------------------------------------------
Ge   c O3   s Buckingham    Buckingham A     1497.3996    eV        0.000 16.000
                            Buckingham rho  0.32564600    Ang       
                            Buckingham C     16.808599    eV*Ang^6  
--------------------------------------------------------------------------------
O1   s O1   s Buckingham    Buckingham A     22764.000    eV        0.000 16.000
                            Buckingham rho  0.14900000    Ang       
                            Buckingham C     10.937044    eV*Ang^6  
--------------------------------------------------------------------------------
O1   s O2   s Buckingham    Buckingham A     22764.000    eV        0.000 16.000
                            Buckingham rho  0.14900000    Ang       
                            Buckingham C     10.937044    eV*Ang^6  
--------------------------------------------------------------------------------
O1   s O3   s Buckingham    Buckingham A     22764.000    eV        0.000 16.000
                            Buckingham rho  0.14900000    Ang       
                            Buckingham C     10.937044    eV*Ang^6  
--------------------------------------------------------------------------------
O2   s O2   s Buckingham    Buckingham A     22764.000    eV        0.000 16.000
                            Buckingham rho  0.14900000    Ang       
                            Buckingham C     10.937044    eV*Ang^6  
--------------------------------------------------------------------------------
O2   s O3   s Buckingham    Buckingham A     22764.000    eV        0.000 16.000
                            Buckingham rho  0.14900000    Ang       
                            Buckingham C     10.937044    eV*Ang^6  
--------------------------------------------------------------------------------
O3   s O3   s Buckingham    Buckingham A     22764.000    eV        0.000 16.000
                            Buckingham rho  0.14900000    Ang       
                            Buckingham C     10.937044    eV*Ang^6  
--------------------------------------------------------------------------------
O1   c O1   s Spring (c-s)  Spring k 2       180.31577    eV*Ang^-2 0.000  0.800
                            Spring k 4       0.0000000    eV*Ang^-4 
--------------------------------------------------------------------------------
O2   c O2   s Spring (c-s)  Spring k 2       75.969800    eV*Ang^-2 0.000  0.800
                            Spring k 4       0.0000000    eV*Ang^-4 
--------------------------------------------------------------------------------
O3   c O3   s Spring (c-s)  Spring k 2       128.14270    eV*Ang^-2 0.000  0.800
                            Spring k 4       0.0000000    eV*Ang^-4 
--------------------------------------------------------------------------------

  General Three-body potentials :

--------------------------------------------------------------------------------
  Atoms       Potential      Parameter       Value         Units   Cutoffs(Ang)
  1 / 2 / 3                                                          Min /  Max 
--------------------------------------------------------------------------------
Si    core    Harmonic      Three-body cnst  1.2614000    eV*rad^-2 0.000  1.900
O1    shel                  Three-body angl  109.47000    degrees   0.000  1.900
O1    shel                  Three-body k4    0.0000000    eV*rad^-4 0.000  3.500
                            Three-body k3    0.0000000    eV*rad^-3 
--------------------------------------------------------------------------------
Si    core    Harmonic      Three-body cnst  1.2614000    eV*rad^-2 0.000  1.900
O1    shel                  Three-body angl  109.47000    degrees   0.000  1.900
õ(1   shel                  Three-body k4    0.0000000    eV*rad^-4 0.000  3.500
                            Three-body k3    0.0000000    eV*rad^-3 
--------------------------------------------------------------------------------
Si    core    Harmonic      Three-body cnst  1.2614000    eV*rad^-2 0.000  1.900
õ(1   shel                  Three-body angl  109.47000    degrees   0.000  1.900
õ(1   shel                  Three-body k4    0.0000000    eV*rad^-4 0.000  3.500
                            Three-body k3    0.0000000    eV*rad^-3 
--------------------------------------------------------------------------------
Si    core    Harmonic      Three-body cnst  1.2614000    eV*rad^-2 0.000  1.900
O1    shel                  Three-body angl  109.47000    degrees   0.000  1.900
O2    shel                  Three-body k4    0.0000000    eV*rad^-4 0.000  3.500
                            Three-body k3    0.0000000    eV*rad^-3 
--------------------------------------------------------------------------------
Si    core    Harmonic      Three-body cnst  1.2614000    eV*rad^-2 0.000  1.900
O1    shel                  Three-body angl  109.47000    degrees   0.000  1.900
õ(2   shel                  Three-body k4    0.0000000    eV*rad^-4 0.000  3.500
                            Three-body k3    0.0000000    eV*rad^-3 
--------------------------------------------------------------------------------
Si    core    Harmonic      Three-body cnst  1.2614000    eV*rad^-2 0.000  1.900
O2    shel                  Three-body angl  109.47000    degrees   0.000  1.900
õ(1   shel                  Three-body k4    0.0000000    eV*rad^-4 0.000  3.500
                            Three-body k3    0.0000000    eV*rad^-3 
--------------------------------------------------------------------------------
Si    core    Harmonic      Three-body cnst  1.2614000    eV*rad^-2 0.000  1.900
õ(1   shel                  Three-body angl  109.47000    degrees   0.000  1.900
õ(2   shel                  Three-body k4    0.0000000    eV*rad^-4 0.000  3.500
                            Three-body k3    0.0000000    eV*rad^-3 
--------------------------------------------------------------------------------
Si    core    Harmonic      Three-body cnst  1.2614000    eV*rad^-2 0.000  1.900
O2    shel                  Three-body angl  109.47000    degrees   0.000  1.900
O2    shel                  Three-body k4    0.0000000    eV*rad^-4 0.000  3.500
                            Three-body k3    0.0000000    eV*rad^-3 
--------------------------------------------------------------------------------
Si    core    Harmonic      Three-body cnst  1.2614000    eV*rad^-2 0.000  1.900
O2    shel                  Three-body angl  109.47000    degrees   0.000  1.900
õ(2   shel                  Three-body k4    0.0000000    eV*rad^-4 0.000  3.500
                            Three-body k3    0.0000000    eV*rad^-3 
--------------------------------------------------------------------------------
Si    core    Harmonic      Three-body cnst  1.2614000    eV*rad^-2 0.000  1.900
õ(2   shel                  Three-body angl  109.47000    degrees   0.000  1.900
õ(2   shel                  Three-body k4    0.0000000    eV*rad^-4 0.000  3.500
                            Three-body k3    0.0000000    eV*rad^-3 
--------------------------------------------------------------------------------

********************************************************************************
*  Output for configuration   1 : c00075.vasp                                  *
********************************************************************************


  Components of energy : 

--------------------------------------------------------------------------------
  Interatomic potentials     =         760.28190526 eV    
  Three-body potentials      =           0.01507781 eV    
  Monopole - monopole (real) =       -2676.00317479 eV    
  Monopole - monopole (recip)=       -1115.35404472 eV    
  Monopole - monopole (total)=       -3791.35721950 eV    
--------------------------------------------------------------------------------
  Total lattice energy       =       -3031.06023643 eV    
--------------------------------------------------------------------------------
  Total lattice energy       =         -292450.9788 kJ/(mole unit cells)
--------------------------------------------------------------------------------


  Number of variables =      363

  Maximum number of calculations  =          1000
  Maximum Hessian update interval =            10
  Maximum step size               =   0.100000000
  Maximum parameter tolerance     =   0.000010000
  Maximum function  tolerance     =   0.000010000
  Maximum gradient  tolerance     =   0.001000000
  Maximum gradient  component     =   0.010000000

  Symmetry not applied to optimisation

  Cell parameters to be optimised using strains

  Newton-Raphson optimiser to be used

  BFGS hessian update to be used

  Lower half triangular hessian to be used

  Minimiser to switch to RFO
  When gradient norm is less than     0.050000

  Dumpfile to be written after every cycle

  Start of bulk optimisation :

  Cycle:      0 Energy:     -3031.060236  Gnorm:      4.404952  CPU:    0.117
  ** Hessian calculated **
  Cycle:      1 Energy:     -3040.935457  Gnorm:      3.778564  CPU:    0.313
  ** Hessian calculated **
  Cycle:      2 Energy:     -3063.375050  Gnorm:      0.844210  CPU:    0.515
  ** Hessian calculated **
  Cycle:      3 Energy:     -3065.249618  Gnorm:      0.479330  CPU:    0.714
  Cycle:      4 Energy:     -3065.880956  Gnorm:      0.314302  CPU:    0.820
  Cycle:      5 Energy:     -3066.415575  Gnorm:      0.242898  CPU:    0.946
  Cycle:      6 Energy:     -3066.896196  Gnorm:      0.185874  CPU:    1.071
  Cycle:      7 Energy:     -3067.180676  Gnorm:      0.148809  CPU:    1.160
  Cycle:      8 Energy:     -3067.349412  Gnorm:      0.109319  CPU:    1.248
  Cycle:      9 Energy:     -3067.437822  Gnorm:      0.080112  CPU:    1.336
  Cycle:     10 Energy:     -3067.486352  Gnorm:      0.063506  CPU:    1.443
  Cycle:     11 Energy:     -3067.521084  Gnorm:      0.059987  CPU:    1.549
  Cycle:     12 Energy:     -3067.561542  Gnorm:      0.064740  CPU:    1.655
  ** Hessian calculated **
  Cycle:     13 Energy:     -3067.572958  Gnorm:      0.064296  CPU:    1.840
  Cycle:     14 Energy:     -3067.592763  Gnorm:      0.063458  CPU:    1.964
  Cycle:     15 Energy:     -3067.632906  Gnorm:      0.061528  CPU:    2.088
  Cycle:     16 Energy:     -3067.730968  Gnorm:      0.056022  CPU:    2.196
  Cycle:     17 Energy:     -3067.809200  Gnorm:      0.051975  CPU:    2.320
  Cycle:     18 Energy:     -3067.989581  Gnorm:      0.045059  CPU:    2.427
  ** Hessian has wrong structure
  ** Imaginary eigenvectors =   2
  Cycle:     19 Energy:     -3068.018606  Gnorm:      0.109237  CPU:    2.635
  ** Hessian has wrong structure
  ** Imaginary eigenvectors =   2
  ** Hessian has wrong structure
  ** Imaginary eigenvectors =   1
  Cycle:     20 Energy:     -3068.054448  Gnorm:      0.116817  CPU:    3.078
  ** Hessian has required structure
  Cycle:     21 Energy:     -3068.207731  Gnorm:      0.074150  CPU:    3.239
  ** Hessian has required structure
  Cycle:     22 Energy:     -3068.263990  Gnorm:      0.030280  CPU:    3.384
  ** Hessian has required structure
  Cycle:     23 Energy:     -3068.298995  Gnorm:      0.020642  CPU:    3.546
  ** Hessian has required structure
  Cycle:     24 Energy:     -3068.336944  Gnorm:      0.020528  CPU:    3.707
  ** Hessian has required structure
  Cycle:     25 Energy:     -3068.349417  Gnorm:      0.025352  CPU:    3.853
  ** Hessian has required structure
  Cycle:     26 Energy:     -3068.367675  Gnorm:      0.018771  CPU:    4.015
  ** Hessian has required structure
  Cycle:     27 Energy:     -3068.381659  Gnorm:      0.016662  CPU:    4.161
  ** Hessian has required structure
  Cycle:     28 Energy:     -3068.389579  Gnorm:      0.018444  CPU:    4.324
  ** Hessian has required structure
  Cycle:     29 Energy:     -3068.397775  Gnorm:      0.014445  CPU:    4.498
  ** Hessian has required structure
  Cycle:     30 Energy:     -3068.406322  Gnorm:      0.008104  CPU:    4.779
  ** Hessian has required structure
  Cycle:     31 Energy:     -3068.408717  Gnorm:      0.004860  CPU:    4.954
  ** Hessian has required structure
  Cycle:     32 Energy:     -3068.409546  Gnorm:      0.002440  CPU:    5.129
  ** Hessian has required structure
  Cycle:     33 Energy:     -3068.409819  Gnorm:      0.001559  CPU:    5.302
  ** Hessian has required structure
  Cycle:     34 Energy:     -3068.409894  Gnorm:      0.000810  CPU:    5.458
  ** Hessian has required structure
  Cycle:     35 Energy:     -3068.409922  Gnorm:      0.000601  CPU:    5.614
  ** Hessian has required structure
  Cycle:     36 Energy:     -3068.409936  Gnorm:      0.000218  CPU:    5.787
  ** Hessian has required structure
  Cycle:     37 Energy:     -3068.409938  Gnorm:      0.000175  CPU:    5.926
  ** Hessian has required structure
  Cycle:     38 Energy:     -3068.409940  Gnorm:      0.000130  CPU:    6.063
  ** Hessian has required structure
  Cycle:     39 Energy:     -3068.409940  Gnorm:      0.000105  CPU:    6.200
  ** Hessian has required structure
  Cycle:     40 Energy:     -3068.409940  Gnorm:      0.000074  CPU:    6.417
  ** Hessian has required structure


  **** Optimisation achieved ****


  Final energy =   -3068.40994060 eV      
  Final Gnorm  =       0.00005177

  Components of energy : 

--------------------------------------------------------------------------------
  Interatomic potentials     =         814.91568241 eV    
  Three-body potentials      =           0.19057150 eV    
  Monopole - monopole (real) =       -2208.52166916 eV    
  Monopole - monopole (recip)=       -1674.99452536 eV    
  Monopole - monopole (total)=       -3883.51619451 eV    
--------------------------------------------------------------------------------
  Total lattice energy       =       -3068.40994060 eV    
--------------------------------------------------------------------------------
  Total lattice energy       =         -296054.6543 kJ/(mole unit cells)
--------------------------------------------------------------------------------

  Final fractional coordinates of atoms :

--------------------------------------------------------------------------------
   No.  Atomic        x           y          z          Radius
        Label       (Frac)      (Frac)     (Frac)       (Angs) 
--------------------------------------------------------------------------------
     1  Ge    c     0.052090    0.000000    0.372270    0.000000
     2  Ge    c     0.339780    0.724804    0.271987    0.000000
     3  Ge    c     0.845150    0.701487    0.704043    0.000000
     4  Si    c     0.456562    0.012490    0.351500    0.000000
     5  Si    c     0.954349    0.005131    0.635598    0.000000
     6  Si    c     0.551477    0.013474    0.612343    0.000000
     7  Si    c     0.556104    0.008810    0.093351    0.000000
     8  Si    c     0.940860    0.006638    0.127962    0.000000
     9  Si    c     0.441747    0.016350    0.853459    0.000000
    10  Si    c     0.055704    0.006752    0.892628    0.000000
    11  Si    c     0.171599    0.288965    0.269333    0.000000
    12  Si    c     0.837496    0.292014    0.711393    0.000000
    13  Si    c     0.663618    0.715783    0.704173    0.000000
    14  Si    c     0.658302    0.312922    0.710053    0.000000
    15  Si    c     0.158283    0.693737    0.276379    0.000000
    16  Si    c     0.350770    0.314318    0.264759    0.000000
    17  Si    c     0.656108    0.319329    0.015487    0.000000
    18  Si    c     0.844786    0.700572    0.016556    0.000000
    19  Si    c     0.345784    0.323655    0.959461    0.000000
    20  Si    c     0.157278    0.697937    0.969777    0.000000
    21  Si    c     0.336294    0.724795    0.960328    0.000000
    22  Si    c     0.166536    0.299706    0.965015    0.000000
    23  Si    c     0.666389    0.715297    0.012399    0.000000
    24  Si    c     0.835145    0.300776    0.017475    0.000000
    25  O3    c     0.122182    0.158116    0.354347    0.000000
    26  O3    c     0.396738    0.854937    0.368501    0.000000
    27  O2    c     0.887049    0.152626    0.630430    0.000000
    28  O2    c     0.604174    0.841507    0.629187    0.000000
    29  O3    c     0.910809    0.821844    0.615500    0.000000
    30  O2    c     0.602424    0.187943    0.628313    0.000000
    31  O3    c     0.094576    0.797111    0.357092    0.000000
    32  O2    c     0.408137    0.192390    0.347584    0.000000
    33  O3    c     0.019463    0.031880    0.529130    0.000000
    34  O2    c     0.518814    0.016560    0.466525    0.000000
    35  O3    c     0.971728    0.018654    0.273767    0.000000
    36  O2    c     0.501530    0.984165    0.216279    0.000000
    37  O2    c     0.994424    0.013813    0.777451    0.000000
    38  O2    c     0.478982    0.010679    0.710550    0.000000
    39  O2    c     0.599926    0.195612    0.100053    0.000000
    40  O2    c     0.898895    0.820231    0.107319    0.000000
    41  O2    c     0.399353    0.203114    0.869192    0.000000
    42  O2    c     0.100528    0.821458    0.886336    0.000000
    43  O2    c     0.380830    0.857254    0.864258    0.000000
    44  O2    c     0.116779    0.166316    0.877852    0.000000
    45  O2    c     0.618450    0.852712    0.096623    0.000000
    46  O2    c     0.881482    0.166308    0.107374    0.000000
    47  O2    c     0.508195    0.991607    0.960462    0.000000
    48  O2    c     0.013683    0.026771    0.031504    0.000000
    49  O2    c     0.145778    0.487234    0.298317    0.000000
    50  O3    c     0.369560    0.512312    0.295842    0.000000
    51  O3    c     0.866252    0.484535    0.678030    0.000000
    52  O2    c     0.638839    0.514640    0.678111    0.000000
    53  O2    c     0.262346    0.268088    0.303754    0.000000
    54  O3    c     0.244362    0.747550    0.318963    0.000000
    55  O2    c     0.747115    0.272965    0.671772    0.000000
    56  O3    c     0.750794    0.744611    0.656263    0.000000
    57  O2    c     0.158120    0.245672    0.116552    0.000000
    58  O3    c     0.349711    0.780709    0.108918    0.000000
    59  O2    c     0.846200    0.252401    0.865938    0.000000
    60  O2    c     0.660715    0.757273    0.858601    0.000000
    61  O3    c     0.857147    0.753285    0.867125    0.000000
    62  O2    c     0.645084    0.273185    0.863122    0.000000
    63  O2    c     0.148374    0.741806    0.122752    0.000000
    64  O2    c     0.361686    0.274898    0.110353    0.000000
    65  O2    c     0.633564    0.520783    0.041675    0.000000
    66  O2    c     0.866872    0.497183    0.040704    0.000000
    67  O2    c     0.366789    0.527045    0.936152    0.000000
    68  O2    c     0.134968    0.496408    0.941671    0.000000
    69  O2    c     0.745003    0.287375    0.056764    0.000000
    70  O2    c     0.755421    0.729199    0.056905    0.000000
    71  O2    c     0.256234    0.288641    0.922784    0.000000
    72  O2    c     0.245241    0.733766    0.925930    0.000000
    73  O3    s     0.121680    0.159092    0.346481    0.000000
    74  O3    s     0.397979    0.859865    0.358653    0.000000
    75  O2    s     0.888593    0.152774    0.639965    0.000000
    76  O2    s     0.605124    0.846207    0.635810    0.000000
    77  O3    s     0.909614    0.829725    0.624720    0.000000
    78  O2    s     0.603212    0.182996    0.635947    0.000000
    79  O3    s     0.097697    0.803028    0.349987    0.000000
    80  O2    s     0.406974    0.186618    0.338758    0.000000
    81  O3    s     0.015155    0.026244    0.527391    0.000000
    82  O2    s     0.515363    0.015702    0.470030    0.000000
    83  O3    s     0.975236    0.015800    0.266692    0.000000
    84  O2    s     0.502974    0.990255    0.216728    0.000000
    85  O2    s     0.997289    0.012031    0.775618    0.000000
    86  O2    s     0.482778    0.011631    0.715872    0.000000
    87  O2    s     0.601458    0.189544    0.090064    0.000000
    88  O2    s     0.897432    0.826937    0.099513    0.000000
    89  O2    s     0.397920    0.196581    0.877597    0.000000
    90  O2    s     0.102040    0.827387    0.896196    0.000000
    91  O2    s     0.382499    0.859855    0.873709    0.000000
    92  O2    s     0.115834    0.164217    0.888997    0.000000
    93  O2    s     0.617123    0.854067    0.086595    0.000000
    94  O2    s     0.882641    0.164304    0.099241    0.000000
    95  O2    s     0.506075    0.996353    0.963351    0.000000
    96  O2    s     0.010373    0.022371    0.026801    0.000000
    97  O2    s     0.149895    0.488167    0.292826    0.000000
    98  O3    s     0.365094    0.508959    0.290582    0.000000
    99  O3    s     0.861547    0.482628    0.683584    0.000000
   100  O2    s     0.643530    0.514035    0.684286    0.000000
   101  O2    s     0.261980    0.275177    0.295930    0.000000
   102  O3    s     0.243597    0.740410    0.310946    0.000000
   103  O2    s     0.747115    0.279287    0.680092    0.000000
   104  O3    s     0.749606    0.738301    0.664862    0.000000
   105  O2    s     0.160449    0.255980    0.116373    0.000000
   106  O3    s     0.347571    0.770665    0.107114    0.000000
   107  O2    s     0.844058    0.261807    0.866080    0.000000
   108  O2    s     0.661643    0.748282    0.858849    0.000000
   109  O3    s     0.854925    0.743797    0.869130    0.000000
   110  O2    s     0.647687    0.282344    0.863064    0.000000
   111  O2    s     0.150335    0.732202    0.122177    0.000000
   112  O2    s     0.358848    0.284120    0.110186    0.000000
   113  O2    s     0.639402    0.519642    0.035802    0.000000
   114  O2    s     0.861235    0.497725    0.035742    0.000000
   115  O2    s     0.361385    0.525944    0.941143    0.000000
   116  O2    s     0.140655    0.497049    0.947104    0.000000
   117  O2    s     0.745099    0.292385    0.047997    0.000000
   118  O2    s     0.755258    0.724502    0.047683    0.000000
   119  O2    s     0.256136    0.293690    0.931324    0.000000
   120  O2    s     0.245437    0.728777    0.934442    0.000000
--------------------------------------------------------------------------------

  Final Cartesian lattice vectors (Angstroms) :

       17.238281   -0.004900   -0.010176
       -0.002052    7.647099    0.013949
       -0.006386    0.018646   10.218781


  Final cell parameters and derivatives :

--------------------------------------------------------------------------------
       a           17.238285 Angstrom     dE/de1(xx)     0.005914 eV/strain
       b            7.647112 Angstrom     dE/de2(yy)     0.007290 eV/strain
       c           10.218800 Angstrom     dE/de3(zz)     0.004431 eV/strain
       alpha       89.790929 Degrees      dE/de4(yz)    -0.000065 eV/strain
       beta        90.069657 Degrees      dE/de5(xz)    -0.000149 eV/strain
       gamma       90.031724 Degrees      dE/de6(xy)    -0.000443 eV/strain
--------------------------------------------------------------------------------

  Primitive cell volume =          1347.063744 Angs**3

  Density of cell =      1.942437 g/cm**3

  Non-primitive cell volume =          1347.063744 Angs**3


  Final internal derivatives :

--------------------------------------------------------------------------------
   No.  Atomic          a             b             c           Radius
        Label          (eV)          (eV)          (eV)        (eV/Angs)
--------------------------------------------------------------------------------
      1 Ge    c       0.000000      0.000000      0.000000      0.000000
      2 Ge    c       0.002947      0.001946     -0.001323      0.000000
      3 Ge    c       0.000868      0.000898      0.000134      0.000000
      4 Si    c       0.001024      0.000237      0.000085      0.000000
      5 Si    c       0.000759     -0.000076      0.000151      0.000000
      6 Si    c      -0.001072      0.000063     -0.000419      0.000000
      7 Si    c      -0.000427      0.000205     -0.000187      0.000000
      8 Si    c       0.000585     -0.000220      0.000035      0.000000
      9 Si    c       0.000152     -0.000285     -0.000238      0.000000
     10 Si    c      -0.000360      0.000246      0.000142      0.000000
     11 Si    c      -0.001260     -0.000691     -0.002681      0.000000
     12 Si    c      -0.000719     -0.000481      0.000088      0.000000
     13 Si    c      -0.000133     -0.000028     -0.000211      0.000000
     14 Si    c      -0.000367     -0.000483      0.000426      0.000000
     15 Si    c      -0.001575     -0.000143     -0.000051      0.000000
     16 Si    c       0.000559     -0.000943     -0.000080      0.000000
     17 Si    c      -0.000084     -0.000242     -0.000051      0.000000
     18 Si    c       0.000001      0.000383      0.000619      0.000000
     19 Si    c      -0.000848      0.000011      0.000005      0.000000
     20 Si    c       0.000243     -0.000312     -0.000040      0.000000
     21 Si    c       0.000083      0.000283     -0.000818      0.000000
     22 Si    c       0.000227     -0.000155      0.000263      0.000000
     23 Si    c       0.000329      0.000032      0.000090      0.000000
     24 Si    c      -0.001062     -0.000041     -0.000007      0.000000
     25 O3    c      -0.000005     -0.000095      0.002094      0.000000
     26 O3    c      -0.001101     -0.000876      0.001426      0.000000
     27 O2    c      -0.000619      0.000230     -0.000185      0.000000
     28 O2    c       0.000481     -0.000342      0.000087      0.000000
     29 O3    c       0.000114     -0.000311     -0.000407      0.000000
     30 O2    c       0.000039      0.000189     -0.000134      0.000000
     31 O3    c       0.000709     -0.000864     -0.000002      0.000000
     32 O2    c      -0.001500      0.000988     -0.000173      0.000000
     33 O3    c       0.000133     -0.000022     -0.000171      0.000000
     34 O2    c       0.000798     -0.000027      0.000913      0.000000
     35 O3    c      -0.000536      0.000063     -0.000231      0.000000
     36 O2    c       0.000094     -0.000140     -0.000677      0.000000
     37 O2    c       0.000305     -0.000001      0.000264      0.000000
     38 O2    c      -0.000397      0.000035      0.000350      0.000000
     39 O2    c       0.000195      0.000223      0.000047      0.000000
     40 O2    c      -0.000119     -0.000192     -0.000041      0.000000
     41 O2    c      -0.000411      0.000420      0.000090      0.000000
     42 O2    c       0.000177     -0.000253     -0.000173      0.000000
     43 O2    c      -0.000365     -0.000144      0.000121      0.000000
     44 O2    c       0.000356      0.000184     -0.000096      0.000000
     45 O2    c       0.000304     -0.000094      0.000108      0.000000
     46 O2    c      -0.000132      0.000131      0.000018      0.000000
     47 O2    c       0.000054     -0.000032     -0.000020      0.000000
     48 O2    c       0.000160      0.000035      0.000134      0.000000
     49 O2    c      -0.001931      0.003024      0.001167      0.000000
     50 O3    c       0.003610     -0.003582      0.002000      0.000000
     51 O3    c       0.001393     -0.001064     -0.001528      0.000000
     52 O2    c      -0.000302      0.001121     -0.000501      0.000000
     53 O2    c       0.005092     -0.000811      0.001089      0.000000
     54 O3    c      -0.006511      0.001152      0.001696      0.000000
     55 O2    c       0.001251     -0.000210     -0.000200      0.000000
     56 O3    c      -0.002642      0.000446     -0.000308      0.000000
     57 O2    c       0.000213      0.000050      0.000316      0.000000
     58 O3    c       0.001071      0.000433      0.000980      0.000000
     59 O2    c       0.000633     -0.000121      0.000595      0.000000
     60 O2    c      -0.000658      0.000190      0.000068      0.000000
     61 O3    c       0.001168      0.000238     -0.000691      0.000000
     62 O2    c      -0.000007     -0.000072      0.000009      0.000000
     63 O2    c      -0.000493      0.000303     -0.000646      0.000000
     64 O2    c       0.000298     -0.000167     -0.001167      0.000000
     65 O2    c      -0.000373      0.000128      0.000279      0.000000
     66 O2    c       0.000589     -0.000659      0.000398      0.000000
     67 O2    c       0.000489     -0.000764     -0.000064      0.000000
     68 O2    c      -0.000280      0.000549      0.000024      0.000000
     69 O2    c       0.001250     -0.000008     -0.000020      0.000000
     70 O2    c      -0.000588      0.000094      0.000126      0.000000
     71 O2    c       0.000999      0.000113     -0.000081      0.000000
     72 O2    c      -0.001259      0.000025     -0.000296      0.000000
     73 O3    s      -0.002212     -0.000789     -0.000356      0.000000
     74 O3    s       0.001184      0.000318     -0.000242      0.000000
     75 O2    s      -0.000407     -0.000003     -0.000362      0.000000
     76 O2    s       0.000137     -0.000046     -0.000279      0.000000
     77 O3    s       0.000064     -0.000068      0.000147      0.000000
     78 O2    s      -0.000426     -0.000253     -0.000110      0.000000
     79 O3    s      -0.000162      0.000022      0.000280      0.000000
     80 O2    s      -0.000257      0.000315      0.000444      0.000000
     81 O3    s       0.000113      0.000124      0.000154      0.000000
     82 O2    s       0.000961      0.000087     -0.000007      0.000000
     83 O3    s      -0.000807      0.000115      0.000080      0.000000
     84 O2    s       0.001344     -0.000094     -0.000139      0.000000
     85 O2    s       0.000146      0.000000      0.000068      0.000000
     86 O2    s      -0.000095     -0.000034     -0.000048      0.000000
     87 O2    s       0.000029     -0.000029     -0.000033      0.000000
     88 O2    s       0.000116      0.000151      0.000180      0.000000
     89 O2    s      -0.000014      0.000037     -0.000173      0.000000
     90 O2    s      -0.000010     -0.000150     -0.000373      0.000000
     91 O2    s       0.000367      0.000156     -0.000328      0.000000
     92 O2    s      -0.000138     -0.000080     -0.000043      0.000000
     93 O2    s       0.000195     -0.000052      0.000408      0.000000
     94 O2    s      -0.000326     -0.000000      0.000219      0.000000
     95 O2    s       0.000011     -0.000039     -0.000100      0.000000
     96 O2    s      -0.000415      0.000015      0.000079      0.000000
     97 O2    s      -0.000983      0.000550      0.000456      0.000000
     98 O3    s      -0.000367      0.001068      0.000077      0.000000
     99 O3    s       0.000004      0.000446     -0.000211      0.000000
    100 O2    s      -0.000333      0.000122     -0.000301      0.000000
    101 O2    s       0.001639     -0.000999      0.000687      0.000000
    102 O3    s       0.001710      0.000425      0.000230      0.000000
    103 O2    s      -0.000110     -0.000433     -0.000513      0.000000
    104 O3    s       0.000856      0.000186     -0.000454      0.000000
    105 O2    s      -0.001663     -0.000906     -0.001538      0.000000
    106 O3    s       0.001134      0.000803     -0.001044      0.000000
    107 O2    s      -0.000217     -0.000225      0.000328      0.000000
    108 O2    s      -0.000220     -0.000032     -0.000204      0.000000
    109 O3    s       0.000395      0.000358      0.000250      0.000000
    110 O2    s      -0.000927     -0.000225      0.000390      0.000000
    111 O2    s      -0.000427      0.000064      0.000135      0.000000
    112 O2    s       0.000500     -0.000195     -0.000214      0.000000
    113 O2    s      -0.000513      0.000072      0.000321      0.000000
    114 O2    s       0.000247     -0.000143      0.000481      0.000000
    115 O2    s       0.000875     -0.000290     -0.000526      0.000000
    116 O2    s      -0.000606      0.000153     -0.000382      0.000000
    117 O2    s      -0.000053     -0.000192      0.000325      0.000000
    118 O2    s      -0.000075      0.000353      0.000429      0.000000
    119 O2    s       0.000484     -0.000227     -0.000381      0.000000
    120 O2    s      -0.000573      0.000222     -0.000631      0.000000
--------------------------------------------------------------------------------
  Maximum abs         0.006511      0.003582      0.002681      0.000000
--------------------------------------------------------------------------------


  Born effective charge tensors : 

-------------------------------------------------------------------------------
  Atom             x           y             z
-------------------------------------------------------------------------------
    1 Ge    x       4.2277     -0.1681     -0.3922
            y       0.1495      3.8911      0.0256
            z      -0.2803      0.1443      4.6073
-------------------------------------------------------------------------------
    2 Ge    x       3.9331      0.3372      0.1579
            y       0.2544      4.1841      0.2425
            z       0.1539      0.0693      3.4525
-------------------------------------------------------------------------------
    3 Ge    x       3.9660      0.2974     -0.0826
            y       0.3420      4.1680     -0.2111
            z      -0.1473     -0.0456      3.4142
-------------------------------------------------------------------------------
    4 Si    x       3.6001      0.0883      0.0122
            y       0.2405      3.4188     -0.0823
            z       0.6438      0.0475      3.8143
-------------------------------------------------------------------------------
    5 Si    x       3.8467      0.2965     -0.1081
            y       0.0665      3.4919      0.0401
            z      -0.9184     -0.1301      4.0234
-------------------------------------------------------------------------------
    6 Si    x       3.4068      0.0115      0.3002
            y      -0.0269      3.2618     -0.0003
            z       0.2524      0.0012      3.8134
-------------------------------------------------------------------------------
    7 Si    x       3.4909      0.1138     -0.0634
            y      -0.1086      3.2669     -0.0004
            z      -0.5510     -0.0793      3.0469
-------------------------------------------------------------------------------
    8 Si    x       3.6376      0.0827      0.4587
            y      -0.0991      3.3070      0.0042
            z       0.4720      0.0481      3.5498
-------------------------------------------------------------------------------
    9 Si    x       3.5130     -0.1043     -0.2835
            y       0.0889      3.2700      0.0147
            z      -0.4013      0.0268      3.1396
-------------------------------------------------------------------------------
   10 Si    x       3.5419     -0.0782      0.0154
            y       0.0807      3.2779     -0.0273
            z       0.5919     -0.0056      2.9370
-------------------------------------------------------------------------------
   11 Si    x       3.3686      0.4278     -0.2508
            y       0.3133      3.6092     -0.3199
            z      -0.2333     -0.2329      3.0107
-------------------------------------------------------------------------------
   12 Si    x       3.2997     -0.2281     -0.1272
            y      -0.0600      3.7358      0.0547
            z      -0.1263     -0.0190      2.8592
-------------------------------------------------------------------------------
   13 Si    x       3.5384     -0.2330     -0.0194
            y      -0.2071      3.5417     -0.1797
            z       0.0787     -0.1032      2.8975
-------------------------------------------------------------------------------
   14 Si    x       3.1856      0.2392      0.0889
            y       0.2379      3.4236      0.1607
            z       0.1221      0.0839      2.8291
-------------------------------------------------------------------------------
   15 Si    x       3.7673     -0.2519     -0.1378
            y      -0.3887      3.5951      0.3129
            z      -0.2170      0.1670      3.0403
-------------------------------------------------------------------------------
   16 Si    x       3.2642     -0.1595      0.1224
            y      -0.1724      3.7438     -0.0718
            z       0.1490      0.0036      2.9046
-------------------------------------------------------------------------------
   17 Si    x       3.2620      0.2852     -0.1109
            y       0.2461      3.4089     -0.1677
            z      -0.1337     -0.0498      2.7058
-------------------------------------------------------------------------------
   18 Si    x       3.3274      0.3033      0.0845
            y       0.2570      3.5116      0.1129
            z       0.1246     -0.0191      3.0044
-------------------------------------------------------------------------------
   19 Si    x       3.2824     -0.2627     -0.1435
            y      -0.2354      3.4215      0.1968
            z      -0.1469      0.0573      2.7252
-------------------------------------------------------------------------------
   20 Si    x       3.2633     -0.2837      0.1020
            y      -0.2383      3.4266     -0.1768
            z       0.1219     -0.0503      2.6645
-------------------------------------------------------------------------------
   21 Si    x       3.3140      0.3598     -0.1317
            y       0.1709      3.5580     -0.1108
            z      -0.0946      0.0165      3.0207
-------------------------------------------------------------------------------
   22 Si    x       3.2836      0.3353      0.1434
            y       0.1583      3.4342      0.1721
            z       0.1159      0.0344      2.6674
-------------------------------------------------------------------------------
   23 Si    x       3.2035     -0.3304     -0.1072
            y      -0.1368      3.4458      0.1617
            z      -0.1293      0.0751      2.7107
-------------------------------------------------------------------------------
   24 Si    x       3.2432     -0.3044      0.1476
            y      -0.1357      3.4239     -0.1787
            z       0.1363     -0.0633      2.7158
-------------------------------------------------------------------------------
   25 O3    x      -2.1268     -0.9802      0.5520
            y      -1.0148     -2.3304      0.5679
            z       0.5808      0.5739     -1.6367
-------------------------------------------------------------------------------
   26 O3    x      -2.1166     -0.9633     -0.2982
            y      -1.0218     -2.3525     -0.3150
            z      -0.3959     -0.3027     -1.5510
-------------------------------------------------------------------------------
   27 O2    x      -1.8035      0.6805      0.2353
            y       0.7222     -1.8692     -0.2723
            z       0.3318     -0.2420     -1.3416
-------------------------------------------------------------------------------
   28 O2    x      -1.7047      0.7341     -0.3443
            y       0.7409     -2.0141      0.3548
            z      -0.3538      0.3467     -1.3441
-------------------------------------------------------------------------------
   29 O3    x      -1.9851     -0.9187      0.2506
            y      -0.9166     -2.4792      0.2369
            z       0.3898      0.2455     -1.5137
-------------------------------------------------------------------------------
   30 O2    x      -1.6812     -0.7275     -0.3565
            y      -0.7067     -1.9856     -0.3661
            z      -0.3626     -0.3682     -1.3612
-------------------------------------------------------------------------------
   31 O3    x      -2.0478      0.9340      0.5350
            y       0.9065     -2.3513     -0.5047
            z       0.5422     -0.4904     -1.6085
-------------------------------------------------------------------------------
   32 O2    x      -1.7057      0.6802     -0.3013
            y       0.6887     -1.9102      0.3245
            z      -0.3787      0.2905     -1.3698
-------------------------------------------------------------------------------
   33 O3    x      -2.0243     -0.0128      1.0657
            y      -0.0465     -1.2098      0.0179
            z       1.3411     -0.0237     -3.3032
-------------------------------------------------------------------------------
   34 O2    x      -1.6024      0.0194     -0.7807
            y      -0.0028     -1.0862      0.0152
            z      -0.9636      0.0228     -2.7329
-------------------------------------------------------------------------------
   35 O3    x      -2.0518      0.0161     -0.9123
            y       0.0313     -1.2174      0.0084
            z      -0.9428     -0.0261     -2.8196
-------------------------------------------------------------------------------
   36 O2    x      -1.6748     -0.0048      0.7120
            y       0.0105     -1.1464     -0.0244
            z       0.6763     -0.0180     -2.2486
-------------------------------------------------------------------------------
   37 O2    x      -1.7553      0.0139     -0.7232
            y       0.0161     -1.1407      0.0195
            z      -0.6937      0.0237     -2.1749
-------------------------------------------------------------------------------
   38 O2    x      -1.7720      0.0200      0.7005
            y      -0.0054     -1.1003     -0.0166
            z       0.7112     -0.0228     -2.1885
-------------------------------------------------------------------------------
   39 O2    x      -1.6844     -0.7194      0.2790
            y      -0.6480     -2.0133      0.2917
            z       0.3413      0.2941     -1.2135
-------------------------------------------------------------------------------
   40 O2    x      -1.6729     -0.6950     -0.3552
            y      -0.6118     -2.0248     -0.3698
            z      -0.3453     -0.3514     -1.2626
-------------------------------------------------------------------------------
   41 O2    x      -1.6682      0.7200      0.3842
            y       0.6267     -2.0176     -0.4025
            z       0.3650     -0.3725     -1.2758
-------------------------------------------------------------------------------
   42 O2    x      -1.7128      0.7397     -0.2703
            y       0.6602     -2.0192      0.2953
            z      -0.3377      0.2824     -1.1867
-------------------------------------------------------------------------------
   43 O2    x      -1.7316     -0.7250      0.3633
            y      -0.6805     -1.9642      0.3778
            z       0.3412      0.3473     -1.2700
-------------------------------------------------------------------------------
   44 O2    x      -1.7791     -0.7478     -0.2466
            y      -0.7125     -1.9497     -0.2748
            z      -0.3224     -0.2730     -1.2047
-------------------------------------------------------------------------------
   45 O2    x      -1.7447      0.7344      0.2675
            y       0.7076     -1.9579     -0.3110
            z       0.3327     -0.2983     -1.2096
-------------------------------------------------------------------------------
   46 O2    x      -1.7193      0.7244     -0.3767
            y       0.6723     -1.9646      0.3929
            z      -0.3515      0.3649     -1.2773
-------------------------------------------------------------------------------
   47 O2    x      -1.8389      0.0197     -0.6355
            y       0.0173     -1.1604      0.0054
            z      -0.3645      0.0120     -1.7279
-------------------------------------------------------------------------------
   48 O2    x      -1.9055     -0.0136      0.6037
            y      -0.0140     -1.1674     -0.0020
            z       0.3285     -0.0094     -1.6747
-------------------------------------------------------------------------------
   49 O2    x      -1.1849      0.0865      0.0636
            y       0.1334     -2.4869     -0.0273
            z       0.0798     -0.0178     -1.1066
-------------------------------------------------------------------------------
   50 O3    x      -1.3064     -0.0180     -0.0836
            y       0.0447     -3.2131     -0.1071
            z      -0.0974     -0.1019     -1.2006
-------------------------------------------------------------------------------
   51 O3    x      -1.3398     -0.1332      0.0920
            y      -0.1556     -3.1727      0.0991
            z       0.1131      0.1032     -1.2023
-------------------------------------------------------------------------------
   52 O2    x      -1.1505      0.0056     -0.0554
            y      -0.0125     -2.5780      0.0184
            z      -0.0749      0.0258     -1.0861
-------------------------------------------------------------------------------
   53 O2    x      -2.3910     -0.0320      0.0056
            y       0.0033     -1.2380      0.0662
            z       0.0062      0.0464     -1.1019
-------------------------------------------------------------------------------
   54 O3    x      -2.9529     -0.1829     -0.0586
            y      -0.1676     -1.4115     -0.1057
            z      -0.0823     -0.0734     -1.2462
-------------------------------------------------------------------------------
   55 O2    x      -2.4109      0.0972     -0.0100
            y       0.0597     -1.2344     -0.0606
            z      -0.0134     -0.0366     -1.0887
-------------------------------------------------------------------------------
   56 O3    x      -2.9902      0.0197      0.0873
            y      -0.0245     -1.3838      0.0978
            z       0.1071      0.0663     -1.2504
-------------------------------------------------------------------------------
   57 O2    x      -1.2026     -0.1368     -0.0587
            y      -0.0945     -1.2932      0.0085
            z      -0.0677      0.0018     -2.0307
-------------------------------------------------------------------------------
   58 O3    x      -1.3286     -0.1626     -0.0579
            y      -0.1219     -1.4668     -0.0926
            z      -0.0360     -0.0652     -2.5916
-------------------------------------------------------------------------------
   59 O2    x      -1.1996      0.1260     -0.0072
            y       0.0858     -1.2653     -0.0537
            z      -0.0082     -0.0438     -2.0607
-------------------------------------------------------------------------------
   60 O2    x      -1.1692      0.1132     -0.0266
            y       0.0785     -1.2930      0.0110
            z      -0.0251     -0.0071     -2.0864
-------------------------------------------------------------------------------
   61 O3    x      -1.3425     -0.1587      0.0418
            y      -0.1384     -1.4444      0.0925
            z       0.0073      0.0620     -2.5904
-------------------------------------------------------------------------------
   62 O2    x      -1.1888     -0.1264      0.0212
            y      -0.1110     -1.2672     -0.0147
            z       0.0365     -0.0119     -2.0688
-------------------------------------------------------------------------------
   63 O2    x      -1.2030      0.1233     -0.0141
            y       0.1145     -1.3013      0.0196
            z      -0.0198      0.0329     -2.0511
-------------------------------------------------------------------------------
   64 O2    x      -1.2134      0.1219     -0.0063
            y       0.1152     -1.2633      0.0419
            z      -0.0053      0.0414     -2.0828
-------------------------------------------------------------------------------
   65 O2    x      -1.2244     -0.0310      0.0736
            y      -0.0846     -2.5015      0.0135
            z       0.0976     -0.0005     -1.0185
-------------------------------------------------------------------------------
   66 O2    x      -1.2455     -0.0421     -0.0704
            y      -0.0800     -2.5378     -0.0252
            z      -0.0941     -0.0286     -1.0094
-------------------------------------------------------------------------------
   67 O2    x      -1.2374      0.0348      0.0736
            y       0.0781     -2.5555      0.0185
            z       0.0887      0.0287     -1.0134
-------------------------------------------------------------------------------
   68 O2    x      -1.2351      0.0447     -0.0742
            y       0.0787     -2.5203     -0.0244
            z      -0.0895     -0.0098     -1.0036
-------------------------------------------------------------------------------
   69 O2    x      -2.4324      0.0551     -0.0086
            y       0.0403     -1.2290      0.0615
            z      -0.0175      0.0327     -1.0462
-------------------------------------------------------------------------------
   70 O2    x      -2.4132      0.0498     -0.0508
            y       0.0239     -1.2462     -0.0615
            z      -0.0485     -0.0337     -1.0458
-------------------------------------------------------------------------------
   71 O2    x      -2.4542     -0.0767      0.0272
            y      -0.0310     -1.2301     -0.0642
            z       0.0361     -0.0284     -1.0408
-------------------------------------------------------------------------------
   72 O2    x      -2.4408     -0.0790      0.0736
            y      -0.0504     -1.2516      0.0676
            z       0.0549      0.0354     -1.0342
-------------------------------------------------------------------------------




  Elastic Constant Matrix: (Units=GPa)

-------------------------------------------------------------------------------
  Indices      1         2         3         4         5         6    
-------------------------------------------------------------------------------
       1     48.8486   25.6586   18.1807   -0.2809    6.1802   -7.5878
       2     25.6586   73.2823   19.3227   -0.1466    7.8955   -4.5261
       3     18.1807   19.3227   27.1053    0.4402    1.1162   -4.6790
       4     -0.2809   -0.1466    0.4402   10.8205   -0.4001    0.9373
       5      6.1802    7.8955    1.1162   -0.4001   23.3205   -0.1341
       6     -7.5878   -4.5261   -4.6790    0.9373   -0.1341   18.5223
-------------------------------------------------------------------------------


  Elastic Compliance Matrix: (Units=1/GPa)

-------------------------------------------------------------------------------
  Indices      1         2         3         4         5         6    
-------------------------------------------------------------------------------
       1    0.031012 -0.005813 -0.015164  0.000501 -0.005474  0.007388
       2   -0.005813  0.018556 -0.009195  0.000335 -0.004297 -0.000218
       3   -0.015164 -0.009195  0.054429 -0.003040  0.004506  0.005477
       4    0.000501  0.000335 -0.003040  0.093061  0.001466 -0.005180
       5   -0.005474 -0.004297  0.004506  0.001466  0.045585 -0.001898
       6    0.007388 -0.000218  0.005477 -0.005180 -0.001898  0.058594
-------------------------------------------------------------------------------

  Mechanical properties :

-------------------------------------------------------------------------------
  Convention :                    Reuss         Voigt         Hill
-------------------------------------------------------------------------------
  Bulk  Modulus (GPa)     =      22.90868      30.61779      26.76323
  Shear Modulus (GPa)     =      13.29322      16.27095      14.78209
-------------------------------------------------------------------------------
  Velocity S-wave (km/s)  =       2.61602       2.89423       2.75864
  Velocity P-wave (km/s)  =       4.57368       5.18954       4.89131
-------------------------------------------------------------------------------
  Compressibility (1/GPa) =    0.04365158
-------------------------------------------------------------------------------
  Stress axis :                     x             y             z
-------------------------------------------------------------------------------
  Youngs Moduli (GPa)     =      32.24605      53.89146      18.37257
-------------------------------------------------------------------------------
  Poissons Ratio (x)      =                     0.31325       0.27861
  Poissons Ratio (y)      =       0.18744                     0.16894
  Poissons Ratio (z)      =       0.48899       0.49555
-------------------------------------------------------------------------------


  Piezoelectric Strain Matrix: (Units=C/m**2)

-------------------------------------------------------------------------------
  Indices      1         2         3         4         5         6    
-------------------------------------------------------------------------------
       x    -0.33682  -0.02555  -0.05044   0.03993  -0.07078   0.39705
       y    -0.42332  -0.88138  -0.46012  -0.08813  -0.00550  -0.23235
       z    -0.54363  -0.40893  -0.23884   0.24414   0.09754  -0.11759
-------------------------------------------------------------------------------


  Piezoelectric Stress Matrix: (Units=10**-11 C/N)

-------------------------------------------------------------------------------
  Indices      1         2         3         4         5         6    
-------------------------------------------------------------------------------
       x    -0.61910   0.21785   0.43313   0.15320  -0.21955   2.04330
       y    -0.27577  -0.96184  -1.15495  -0.61140   0.40925  -1.86030
       z    -1.21404  -0.25438  -0.19423   2.37892   0.86842  -1.35754
-------------------------------------------------------------------------------


  Static dielectric constant tensor : 

-------------------------------------------------------------------------------
              x         y         z
-------------------------------------------------------------------------------
       x     3.98330   0.04022  -0.09492
       y     0.04022   4.10500  -0.03277
       z    -0.09492  -0.03277   3.26861
--------------------------------------------------------------------------------

  High frequency dielectric constant tensor : 

-------------------------------------------------------------------------------
              x         y         z
-------------------------------------------------------------------------------
       x     1.67548  -0.00046   0.00049
       y    -0.00046   1.68203  -0.00027
       z     0.00049  -0.00027   1.61350
-------------------------------------------------------------------------------

  Static refractive indices : 

-------------------------------------------------------------------------------
    1 =    1.80426      2 =    1.99505      3 =    2.03011
-------------------------------------------------------------------------------

  High frequency refractive indices : 

-------------------------------------------------------------------------------
    1 =    1.27024      2 =    1.29439      3 =    1.29694
-------------------------------------------------------------------------------


  Time to end of optimisation =       6.7274 seconds


  Peak dynamic memory used =       5.01 MB 


  Timing analysis for GULP :

--------------------------------------------------------------------------------
  Task / Subroutine                                          Time (Seconds)
--------------------------------------------------------------------------------
  Calculation of reciprocal space energy and derivatives          0.4055
  Calculation of real space energy and derivatives                4.4633
  Calculation of three-body energy and derivatives                0.4033
  Calculation and manipulation of Hessian matrix                  1.5653
  Calculation of matrix inversion                                 0.0284
--------------------------------------------------------------------------------
  Total CPU time                                                  6.7274
--------------------------------------------------------------------------------


  Dump file written as c00075.vasp.grs
  CIF file written as c00075.vasp.cif


  Job Finished at 11:39.45  7th October    2025                               

