********************************************************************************
*                       GENERAL UTILITY LATTICE PROGRAM                        *
*                                 Julian Gale                                  *
*                       Curtin Institute for Computation                       *
*                    School of Molecular and Life Sciences                     *
*                    Curtin University, Western Australia                      *
********************************************************************************
* Version = 6.1.2 * Last modified =   3rd November 2022                        *
********************************************************************************
*  optimise     - perform optimisation run                                     *
*  conp         - constant pressure calculation                                *
*  property     - calculate properties for final geometry                      *
********************************************************************************

  Job Started  at 11:46.08  7th October    2025                               

  Number of CPUs =     1


  Total number of configurations input =      1

********************************************************************************
*  Input for Configuration =   1 : c00113.vasp                                 *
********************************************************************************

  Formula = Ge3Si21O48                                                  

  Number of irreducible atoms/shells =     120


  Total number atoms/shells =     120

  Dimensionality = 3               :  Bulk   



  Cartesian lattice vectors (Angstroms) :

       17.182800    0.000000    0.000000
        0.000000    7.513760    0.000000
        0.000000    0.000000   10.447700

  Cell parameters (Angstroms/Degrees):

  a =      17.1828    alpha =  90.0000
  b =       7.5138    beta  =  90.0000
  c =      10.4477    gamma =  90.0000

  Initial cell volume =        1348.875752 Angs**3

  Temperature of configuration =   0.00     K 

  Pressure of configuration =         0.000 GPa 

  Fractional coordinates of asymmetric unit :

--------------------------------------------------------------------------------
   No.  Atomic       x           y          z         Charge      Occupancy
        Label      (Frac)      (Frac)     (Frac)        (e)         (Frac)  
--------------------------------------------------------------------------------
      1 Ge    c    0.052090    0.000000    0.372270     4.00000    1.000000    
      2 Ge    c    0.839340 *  0.705910 *  0.017440 *   4.00000    1.000000    
      3 Ge    c    0.339340 *  0.294090 *  0.982560 *   4.00000    1.000000    
      4 Si    c    0.447910 *  0.000000 *  0.372270 *   4.00000    1.000000    
      5 Si    c    0.947910 *  0.000000 *  0.627730 *   4.00000    1.000000    
      6 Si    c    0.552090 *  0.000000 *  0.627730 *   4.00000    1.000000    
      7 Si    c    0.556730 *  0.000000 *  0.122130 *   4.00000    1.000000    
      8 Si    c    0.943270 *  0.000000 *  0.122130 *   4.00000    1.000000    
      9 Si    c    0.443270 *  0.000000 *  0.877870 *   4.00000    1.000000    
     10 Si    c    0.056730 *  0.000000 *  0.877870 *   4.00000    1.000000    
     11 Si    c    0.160190 *  0.293910 *  0.273440 *   4.00000    1.000000    
     12 Si    c    0.339810 *  0.706090 *  0.273440 *   4.00000    1.000000    
     13 Si    c    0.839810 *  0.293910 *  0.726560 *   4.00000    1.000000    
     14 Si    c    0.660190 *  0.706090 *  0.726560 *   4.00000    1.000000    
     15 Si    c    0.839810 *  0.706090 *  0.726560 *   4.00000    1.000000    
     16 Si    c    0.660190 *  0.293910 *  0.726560 *   4.00000    1.000000    
     17 Si    c    0.160190 *  0.706090 *  0.273440 *   4.00000    1.000000    
     18 Si    c    0.339810 *  0.293910 *  0.273440 *   4.00000    1.000000    
     19 Si    c    0.660660 *  0.294090 *  0.017440 *   4.00000    1.000000    
     20 Si    c    0.160660 *  0.705910 *  0.982560 *   4.00000    1.000000    
     21 Si    c    0.339340 *  0.705910 *  0.982560 *   4.00000    1.000000    
     22 Si    c    0.160660 *  0.294090 *  0.982560 *   4.00000    1.000000    
     23 Si    c    0.660660 *  0.705910 *  0.017440 *   4.00000    1.000000    
     24 Si    c    0.839340 *  0.294090 *  0.017440 *   4.00000    1.000000    
     25 O3    c    0.106570 *  0.174340 *  0.366200 *   1.33043    1.000000    
     26 O2    c    0.393430 *  0.825660 *  0.366200 *   0.87073    1.000000    
     27 O2    c    0.893430 *  0.174340 *  0.633800 *   0.87073    1.000000    
     28 O2    c    0.606570 *  0.825660 *  0.633800 *   0.87073    1.000000    
     29 O2    c    0.893430 *  0.825660 *  0.633800 *   0.87073    1.000000    
     30 O2    c    0.606570 *  0.174340 *  0.633800 *   0.87073    1.000000    
     31 O3    c    0.106570 *  0.825660 *  0.366200 *   1.33043    1.000000    
     32 O2    c    0.393430 *  0.174340 *  0.366200 *   0.87073    1.000000    
     33 O3    c    0.000000 *  0.000000 *  0.500000 *   1.33043    1.000000    
     34 O2    c    0.500000 *  0.000000 *  0.500000 *   0.87073    1.000000    
     35 O3    c    0.994520 *  0.000000 *  0.250840 *   1.33043    1.000000    
     36 O2    c    0.505480 *  0.000000 *  0.250840 *   0.87073    1.000000    
     37 O2    c    0.005480 *  0.000000 *  0.749160 *   0.87073    1.000000    
     38 O2    c    0.494520 *  0.000000 *  0.749160 *   0.87073    1.000000    
     39 O2    c    0.610230 *  0.175520 *  0.115390 *   0.87073    1.000000    
     40 O3    c    0.889770 *  0.824480 *  0.115390 *   1.33043    1.000000    
     41 O3    c    0.389770 *  0.175520 *  0.884610 *   1.33043    1.000000    
     42 O2    c    0.110230 *  0.824480 *  0.884610 *   0.87073    1.000000    
     43 O2    c    0.389770 *  0.824480 *  0.884610 *   0.87073    1.000000    
     44 O2    c    0.110230 *  0.175520 *  0.884610 *   0.87073    1.000000    
     45 O2    c    0.610230 *  0.824480 *  0.115390 *   0.87073    1.000000    
     46 O2    c    0.889770 *  0.175520 *  0.115390 *   0.87073    1.000000    
     47 O2    c    0.500000 *  0.000000 *  0.000000 *   0.87073    1.000000    
     48 O2    c    0.000000 *  0.000000 *  0.000000 *   0.87073    1.000000    
     49 O2    c    0.151750 *  0.500000 *  0.313330 *   0.87073    1.000000    
     50 O2    c    0.348250 *  0.500000 *  0.313330 *   0.87073    1.000000    
     51 O2    c    0.848250 *  0.500000 *  0.686670 *   0.87073    1.000000    
     52 O2    c    0.651750 *  0.500000 *  0.686670 *   0.87073    1.000000    
     53 O2    c    0.250000 *  0.234950 *  0.285720 *   0.87073    1.000000    
     54 O2    c    0.250000 *  0.765050 *  0.285720 *   0.87073    1.000000    
     55 O2    c    0.750000 *  0.234950 *  0.714280 *   0.87073    1.000000    
     56 O2    c    0.750000 *  0.765050 *  0.714280 *   0.87073    1.000000    
     57 O2    c    0.131410 *  0.268650 *  0.127790 *   0.87073    1.000000    
     58 O2    c    0.368590 *  0.731350 *  0.127790 *   0.87073    1.000000    
     59 O2    c    0.868590 *  0.268650 *  0.872210 *   0.87073    1.000000    
     60 O2    c    0.631410 *  0.731350 *  0.872210 *   0.87073    1.000000    
     61 O3    c    0.868590 *  0.731350 *  0.872210 *   1.33043    1.000000    
     62 O2    c    0.631410 *  0.268650 *  0.872210 *   0.87073    1.000000    
     63 O2    c    0.131410 *  0.731350 *  0.127790 *   0.87073    1.000000    
     64 O3    c    0.368590 *  0.268650 *  0.127790 *   1.33043    1.000000    
     65 O2    c    0.653920 *  0.500000 *  0.058200 *   0.87073    1.000000    
     66 O3    c    0.846080 *  0.500000 *  0.058200 *   1.33043    1.000000    
     67 O3    c    0.346080 *  0.500000 *  0.941800 *   1.33043    1.000000    
     68 O2    c    0.153920 *  0.500000 *  0.941800 *   0.87073    1.000000    
     69 O2    c    0.750000 *  0.231060 *  0.027050 *   0.87073    1.000000    
     70 O3    c    0.750000 *  0.768940 *  0.027050 *   1.33043    1.000000    
     71 O3    c    0.250000 *  0.231060 *  0.972950 *   1.33043    1.000000    
     72 O2    c    0.250000 *  0.768940 *  0.972950 *   0.87073    1.000000    
     73 O3    s    0.106570 *  0.174340 *  0.366200 *  -3.33043    1.000000    
     74 O2    s    0.393430 *  0.825660 *  0.366200 *  -2.87073    1.000000    
     75 O2    s    0.893430 *  0.174340 *  0.633800 *  -2.87073    1.000000    
     76 O2    s    0.606570 *  0.825660 *  0.633800 *  -2.87073    1.000000    
     77 O2    s    0.893430 *  0.825660 *  0.633800 *  -2.87073    1.000000    
     78 O2    s    0.606570 *  0.174340 *  0.633800 *  -2.87073    1.000000    
     79 O3    s    0.106570 *  0.825660 *  0.366200 *  -3.33043    1.000000    
     80 O2    s    0.393430 *  0.174340 *  0.366200 *  -2.87073    1.000000    
     81 O3    s    0.000000 *  0.000000 *  0.500000 *  -3.33043    1.000000    
     82 O2    s    0.500000 *  0.000000 *  0.500000 *  -2.87073    1.000000    
     83 O3    s    0.994520 *  0.000000 *  0.250840 *  -3.33043    1.000000    
     84 O2    s    0.505480 *  0.000000 *  0.250840 *  -2.87073    1.000000    
     85 O2    s    0.005480 *  0.000000 *  0.749160 *  -2.87073    1.000000    
     86 O2    s    0.494520 *  0.000000 *  0.749160 *  -2.87073    1.000000    
     87 O2    s    0.610230 *  0.175520 *  0.115390 *  -2.87073    1.000000    
     88 O3    s    0.889770 *  0.824480 *  0.115390 *  -3.33043    1.000000    
     89 O3    s    0.389770 *  0.175520 *  0.884610 *  -3.33043    1.000000    
     90 O2    s    0.110230 *  0.824480 *  0.884610 *  -2.87073    1.000000    
     91 O2    s    0.389770 *  0.824480 *  0.884610 *  -2.87073    1.000000    
     92 O2    s    0.110230 *  0.175520 *  0.884610 *  -2.87073    1.000000    
     93 O2    s    0.610230 *  0.824480 *  0.115390 *  -2.87073    1.000000    
     94 O2    s    0.889770 *  0.175520 *  0.115390 *  -2.87073    1.000000    
     95 O2    s    0.500000 *  0.000000 *  0.000000 *  -2.87073    1.000000    
     96 O2    s    0.000000 *  0.000000 *  0.000000 *  -2.87073    1.000000    
     97 O2    s    0.151750 *  0.500000 *  0.313330 *  -2.87073    1.000000    
     98 O2    s    0.348250 *  0.500000 *  0.313330 *  -2.87073    1.000000    
     99 O2    s    0.848250 *  0.500000 *  0.686670 *  -2.87073    1.000000    
    100 O2    s    0.651750 *  0.500000 *  0.686670 *  -2.87073    1.000000    
    101 O2    s    0.250000 *  0.234950 *  0.285720 *  -2.87073    1.000000    
    102 O2    s    0.250000 *  0.765050 *  0.285720 *  -2.87073    1.000000    
    103 O2    s    0.750000 *  0.234950 *  0.714280 *  -2.87073    1.000000    
    104 O2    s    0.750000 *  0.765050 *  0.714280 *  -2.87073    1.000000    
    105 O2    s    0.131410 *  0.268650 *  0.127790 *  -2.87073    1.000000    
    106 O2    s    0.368590 *  0.731350 *  0.127790 *  -2.87073    1.000000    
    107 O2    s    0.868590 *  0.268650 *  0.872210 *  -2.87073    1.000000    
    108 O2    s    0.631410 *  0.731350 *  0.872210 *  -2.87073    1.000000    
    109 O3    s    0.868590 *  0.731350 *  0.872210 *  -3.33043    1.000000    
    110 O2    s    0.631410 *  0.268650 *  0.872210 *  -2.87073    1.000000    
    111 O2    s    0.131410 *  0.731350 *  0.127790 *  -2.87073    1.000000    
    112 O3    s    0.368590 *  0.268650 *  0.127790 *  -3.33043    1.000000    
    113 O2    s    0.653920 *  0.500000 *  0.058200 *  -2.87073    1.000000    
    114 O3    s    0.846080 *  0.500000 *  0.058200 *  -3.33043    1.000000    
    115 O3    s    0.346080 *  0.500000 *  0.941800 *  -3.33043    1.000000    
    116 O2    s    0.153920 *  0.500000 *  0.941800 *  -2.87073    1.000000    
    117 O2    s    0.750000 *  0.231060 *  0.027050 *  -2.87073    1.000000    
    118 O3    s    0.750000 *  0.768940 *  0.027050 *  -3.33043    1.000000    
    119 O3    s    0.250000 *  0.231060 *  0.972950 *  -3.33043    1.000000    
    120 O2    s    0.250000 *  0.768940 *  0.972950 *  -2.87073    1.000000    
--------------------------------------------------------------------------------



********************************************************************************
*  General input information                                                   *
********************************************************************************

  Species output for all configurations : 

--------------------------------------------------------------------------------
  Species    Type    Atomic    Atomic    Charge       Radii (Angs)     Library
                     Number     Mass       (e)     Cova   Ionic  VDW   Symbol
--------------------------------------------------------------------------------
    Ge       Core       32      72.61   4.000000   1.170  0.000  1.750 Ge       
    Si       Core       14      28.09   4.000000   1.200  0.000  2.100 Si       
    O1       Core        8      16.00   1.733957   0.730  0.000  0.000 O1       
    O2       Core        8      16.00   0.870733   0.730  0.000  1.360 O2       
    O3       Core        8      16.00   1.330431   0.730  0.000  1.360 O3       
    O1       Shell       8       0.00  -3.733957   0.730  0.000  0.000 O1       
    O2       Shell       8       0.00  -2.870733   0.730  0.000  0.000 O2       
    O3       Shell       8       0.00  -3.330431   0.730  0.000  0.000 O3       
--------------------------------------------------------------------------------


  Lattice summation method               =    Ewald          (3-D)
                                         =    Parry          (2-D)
                                         =    Saunders et al (1-D)
  Accuracy factor for lattice sums       =   12.000


  Analytic derivatives to be used

  Time limit = Infinity

  Maximum range for interatomic potentials =    100000.000000 Angstroms

  General interatomic potentials :

--------------------------------------------------------------------------------
Atom  Types   Potential      Parameter       Value         Units   Cutoffs(Ang)
  1     2                                                            Min /  Max 
--------------------------------------------------------------------------------
Si   c O1   s Buckingham    Buckingham A     1315.2478    eV        0.000 16.000
                            Buckingham rho  0.31775900    Ang       
                            Buckingham C     10.141118    eV*Ang^6  
--------------------------------------------------------------------------------
Si   c O2   s Buckingham    Buckingham A     1315.2478    eV        0.000 16.000
                            Buckingham rho  0.31775900    Ang       
                            Buckingham C     10.141118    eV*Ang^6  
--------------------------------------------------------------------------------
Si   c O3   s Buckingham    Buckingham A     1315.2478    eV        0.000 16.000
                            Buckingham rho  0.31775900    Ang       
                            Buckingham C     10.141118    eV*Ang^6  
--------------------------------------------------------------------------------
Ge   c O1   s Buckingham    Buckingham A     1497.3996    eV        0.000 16.000
                            Buckingham rho  0.32564600    Ang       
                            Buckingham C     16.808599    eV*Ang^6  
--------------------------------------------------------------------------------
Ge   c O2   s Buckingham    Buckingham A     1497.3996    eV        0.000 16.000
                            Buckingham rho  0.32564600    Ang       
                            Buckingham C     16.808599    eV*Ang^6  
--------------------------------------------------------------------------------
Ge   c O3   s Buckingham    Buckingham A     1497.3996    eV        0.000 16.000
                            Buckingham rho  0.32564600    Ang       
                            Buckingham C     16.808599    eV*Ang^6  
--------------------------------------------------------------------------------
O1   s O1   s Buckingham    Buckingham A     22764.000    eV        0.000 16.000
                            Buckingham rho  0.14900000    Ang       
                            Buckingham C     10.937044    eV*Ang^6  
--------------------------------------------------------------------------------
O1   s O2   s Buckingham    Buckingham A     22764.000    eV        0.000 16.000
                            Buckingham rho  0.14900000    Ang       
                            Buckingham C     10.937044    eV*Ang^6  
--------------------------------------------------------------------------------
O1   s O3   s Buckingham    Buckingham A     22764.000    eV        0.000 16.000
                            Buckingham rho  0.14900000    Ang       
                            Buckingham C     10.937044    eV*Ang^6  
--------------------------------------------------------------------------------
O2   s O2   s Buckingham    Buckingham A     22764.000    eV        0.000 16.000
                            Buckingham rho  0.14900000    Ang       
                            Buckingham C     10.937044    eV*Ang^6  
--------------------------------------------------------------------------------
O2   s O3   s Buckingham    Buckingham A     22764.000    eV        0.000 16.000
                            Buckingham rho  0.14900000    Ang       
                            Buckingham C     10.937044    eV*Ang^6  
--------------------------------------------------------------------------------
O3   s O3   s Buckingham    Buckingham A     22764.000    eV        0.000 16.000
                            Buckingham rho  0.14900000    Ang       
                            Buckingham C     10.937044    eV*Ang^6  
--------------------------------------------------------------------------------
O1   c O1   s Spring (c-s)  Spring k 2       180.31577    eV*Ang^-2 0.000  0.800
                            Spring k 4       0.0000000    eV*Ang^-4 
--------------------------------------------------------------------------------
O2   c O2   s Spring (c-s)  Spring k 2       75.969800    eV*Ang^-2 0.000  0.800
                            Spring k 4       0.0000000    eV*Ang^-4 
--------------------------------------------------------------------------------
O3   c O3   s Spring (c-s)  Spring k 2       128.14270    eV*Ang^-2 0.000  0.800
                            Spring k 4       0.0000000    eV*Ang^-4 
--------------------------------------------------------------------------------

  General Three-body potentials :

--------------------------------------------------------------------------------
  Atoms       Potential      Parameter       Value         Units   Cutoffs(Ang)
  1 / 2 / 3                                                          Min /  Max 
--------------------------------------------------------------------------------
Si    core    Harmonic      Three-body cnst  1.2614000    eV*rad^-2 0.000  1.900
O1    shel                  Three-body angl  109.47000    degrees   0.000  1.900
O1    shel                  Three-body k4    0.0000000    eV*rad^-4 0.000  3.500
                            Three-body k3    0.0000000    eV*rad^-3 
--------------------------------------------------------------------------------
Si    core    Harmonic      Three-body cnst  1.2614000    eV*rad^-2 0.000  1.900
O1    shel                  Three-body angl  109.47000    degrees   0.000  1.900
õ(1   shel                  Three-body k4    0.0000000    eV*rad^-4 0.000  3.500
                            Three-body k3    0.0000000    eV*rad^-3 
--------------------------------------------------------------------------------
Si    core    Harmonic      Three-body cnst  1.2614000    eV*rad^-2 0.000  1.900
õ(1   shel                  Three-body angl  109.47000    degrees   0.000  1.900
õ(1   shel                  Three-body k4    0.0000000    eV*rad^-4 0.000  3.500
                            Three-body k3    0.0000000    eV*rad^-3 
--------------------------------------------------------------------------------
Si    core    Harmonic      Three-body cnst  1.2614000    eV*rad^-2 0.000  1.900
O1    shel                  Three-body angl  109.47000    degrees   0.000  1.900
O2    shel                  Three-body k4    0.0000000    eV*rad^-4 0.000  3.500
                            Three-body k3    0.0000000    eV*rad^-3 
--------------------------------------------------------------------------------
Si    core    Harmonic      Three-body cnst  1.2614000    eV*rad^-2 0.000  1.900
O1    shel                  Three-body angl  109.47000    degrees   0.000  1.900
õ(2   shel                  Three-body k4    0.0000000    eV*rad^-4 0.000  3.500
                            Three-body k3    0.0000000    eV*rad^-3 
--------------------------------------------------------------------------------
Si    core    Harmonic      Three-body cnst  1.2614000    eV*rad^-2 0.000  1.900
O2    shel                  Three-body angl  109.47000    degrees   0.000  1.900
õ(1   shel                  Three-body k4    0.0000000    eV*rad^-4 0.000  3.500
                            Three-body k3    0.0000000    eV*rad^-3 
--------------------------------------------------------------------------------
Si    core    Harmonic      Three-body cnst  1.2614000    eV*rad^-2 0.000  1.900
õ(1   shel                  Three-body angl  109.47000    degrees   0.000  1.900
õ(2   shel                  Three-body k4    0.0000000    eV*rad^-4 0.000  3.500
                            Three-body k3    0.0000000    eV*rad^-3 
--------------------------------------------------------------------------------
Si    core    Harmonic      Three-body cnst  1.2614000    eV*rad^-2 0.000  1.900
O2    shel                  Three-body angl  109.47000    degrees   0.000  1.900
O2    shel                  Three-body k4    0.0000000    eV*rad^-4 0.000  3.500
                            Three-body k3    0.0000000    eV*rad^-3 
--------------------------------------------------------------------------------
Si    core    Harmonic      Three-body cnst  1.2614000    eV*rad^-2 0.000  1.900
O2    shel                  Three-body angl  109.47000    degrees   0.000  1.900
õ(2   shel                  Three-body k4    0.0000000    eV*rad^-4 0.000  3.500
                            Three-body k3    0.0000000    eV*rad^-3 
--------------------------------------------------------------------------------
Si    core    Harmonic      Three-body cnst  1.2614000    eV*rad^-2 0.000  1.900
õ(2   shel                  Three-body angl  109.47000    degrees   0.000  1.900
õ(2   shel                  Three-body k4    0.0000000    eV*rad^-4 0.000  3.500
                            Three-body k3    0.0000000    eV*rad^-3 
--------------------------------------------------------------------------------

********************************************************************************
*  Output for configuration   1 : c00113.vasp                                  *
********************************************************************************


  Components of energy : 

--------------------------------------------------------------------------------
  Interatomic potentials     =         760.33531477 eV    
  Three-body potentials      =           0.01334290 eV    
  Monopole - monopole (real) =       -2676.00317478 eV    
  Monopole - monopole (recip)=       -1115.35404472 eV    
  Monopole - monopole (total)=       -3791.35721950 eV    
--------------------------------------------------------------------------------
  Total lattice energy       =       -3031.00856183 eV    
--------------------------------------------------------------------------------
  Total lattice energy       =         -292445.9930 kJ/(mole unit cells)
--------------------------------------------------------------------------------


  Number of variables =      363

  Maximum number of calculations  =          1000
  Maximum Hessian update interval =            10
  Maximum step size               =   0.100000000
  Maximum parameter tolerance     =   0.000010000
  Maximum function  tolerance     =   0.000010000
  Maximum gradient  tolerance     =   0.001000000
  Maximum gradient  component     =   0.010000000

  Symmetry not applied to optimisation

  Cell parameters to be optimised using strains

  Newton-Raphson optimiser to be used

  BFGS hessian update to be used

  Lower half triangular hessian to be used

  Minimiser to switch to RFO
  When gradient norm is less than     0.050000

  Dumpfile to be written after every cycle

  Start of bulk optimisation :

  Cycle:      0 Energy:     -3031.008562  Gnorm:      4.405311  CPU:    0.115
  ** Hessian calculated **
  Cycle:      1 Energy:     -3043.298118  Gnorm:      3.588092  CPU:    0.309
  ** Hessian calculated **
  Cycle:      2 Energy:     -3056.459817  Gnorm:      2.409676  CPU:    0.588
  ** Hessian calculated **
  Cycle:      3 Energy:     -3065.537337  Gnorm:      0.563492  CPU:    0.787
  Cycle:      4 Energy:     -3066.423225  Gnorm:      0.273261  CPU:    0.882
  Cycle:      5 Energy:     -3066.706745  Gnorm:      0.199868  CPU:    0.987
  Cycle:      6 Energy:     -3066.975205  Gnorm:      0.158927  CPU:    1.090
  Cycle:      7 Energy:     -3067.152376  Gnorm:      0.125048  CPU:    1.176
  Cycle:      8 Energy:     -3067.274061  Gnorm:      0.106183  CPU:    1.264
  Cycle:      9 Energy:     -3067.362100  Gnorm:      0.073794  CPU:    1.368
  Cycle:     10 Energy:     -3067.409462  Gnorm:      0.062056  CPU:    1.472
  Cycle:     11 Energy:     -3067.435708  Gnorm:      0.051823  CPU:    1.560
  Cycle:     12 Energy:     -3067.462662  Gnorm:      0.054939  CPU:    1.665
  ** Hessian calculated **
  Cycle:     13 Energy:     -3067.481526  Gnorm:      0.054036  CPU:    1.849
  Cycle:     14 Energy:     -3067.512330  Gnorm:      0.052514  CPU:    1.969
  Cycle:     15 Energy:     -3067.555298  Gnorm:      0.050276  CPU:    2.089
  Cycle:     16 Energy:     -3067.598539  Gnorm:      0.047842  CPU:    2.194
  ** Hessian has wrong structure
  ** Imaginary eigenvectors =   2
  Cycle:     17 Energy:     -3067.605719  Gnorm:      0.120707  CPU:    2.450
  ** Hessian has wrong structure
  ** Imaginary eigenvectors =   3
  ** Hessian has wrong structure
  ** Imaginary eigenvectors =   2
  Cycle:     18 Energy:     -3067.621942  Gnorm:      0.119699  CPU:    2.953
  ** Hessian has wrong structure
  ** Imaginary eigenvectors =   1
  ** Hessian has required structure
  Cycle:     19 Energy:     -3067.967006  Gnorm:      0.067589  CPU:    3.425
  ** Hessian has required structure
  Cycle:     20 Energy:     -3068.069044  Gnorm:      0.055741  CPU:    3.582
  ** Hessian has required structure
  Cycle:     21 Energy:     -3068.144919  Gnorm:      0.038733  CPU:    3.722
  ** Hessian has required structure
  Cycle:     22 Energy:     -3068.176324  Gnorm:      0.033060  CPU:    3.863
  ** Hessian has required structure
  Cycle:     23 Energy:     -3068.201757  Gnorm:      0.042537  CPU:    4.004
  ** Hessian has required structure
  Cycle:     24 Energy:     -3068.222028  Gnorm:      0.028394  CPU:    4.164
  ** Hessian has required structure
  Cycle:     25 Energy:     -3068.242007  Gnorm:      0.025572  CPU:    4.305
  ** Hessian has required structure
  Cycle:     26 Energy:     -3068.259599  Gnorm:      0.023259  CPU:    4.447
  ** Hessian has required structure
  Cycle:     27 Energy:     -3068.269363  Gnorm:      0.021721  CPU:    4.589
  ** Hessian has required structure
  Cycle:     28 Energy:     -3068.275115  Gnorm:      0.023155  CPU:    4.722
  ** Hessian has required structure
  Cycle:     29 Energy:     -3068.292308  Gnorm:      0.019277  CPU:    4.957
  ** Hessian has required structure
  Cycle:     30 Energy:     -3068.299834  Gnorm:      0.012592  CPU:    5.109
  ** Hessian has required structure
  Cycle:     31 Energy:     -3068.302901  Gnorm:      0.005699  CPU:    5.281
  ** Hessian has required structure
  Cycle:     32 Energy:     -3068.304158  Gnorm:      0.006231  CPU:    5.451
  ** Hessian has required structure
  Cycle:     33 Energy:     -3068.304775  Gnorm:      0.003700  CPU:    5.607
  ** Hessian has required structure
  Cycle:     34 Energy:     -3068.305055  Gnorm:      0.002291  CPU:    5.760
  ** Hessian has required structure
  Cycle:     35 Energy:     -3068.305227  Gnorm:      0.002199  CPU:    5.933
  ** Hessian has required structure
  Cycle:     36 Energy:     -3068.305350  Gnorm:      0.001224  CPU:    6.087
  ** Hessian has required structure
  Cycle:     37 Energy:     -3068.305427  Gnorm:      0.001083  CPU:    6.240
  ** Hessian has required structure
  Cycle:     38 Energy:     -3068.305468  Gnorm:      0.000692  CPU:    6.393
  ** Hessian has required structure
  Cycle:     39 Energy:     -3068.305487  Gnorm:      0.000420  CPU:    6.626
  ** Hessian has required structure
  Cycle:     40 Energy:     -3068.305493  Gnorm:      0.000258  CPU:    6.781
  ** Hessian has required structure
  Cycle:     41 Energy:     -3068.305495  Gnorm:      0.000182  CPU:    6.918
  ** Hessian has required structure
  Cycle:     42 Energy:     -3068.305497  Gnorm:      0.000128  CPU:    7.054
  ** Hessian has required structure


  **** Optimisation achieved ****


  Final energy =   -3068.30549816 eV      
  Final Gnorm  =       0.00008993

  Components of energy : 

--------------------------------------------------------------------------------
  Interatomic potentials     =         816.10443973 eV    
  Three-body potentials      =           0.19888511 eV    
  Monopole - monopole (real) =       -2207.28398242 eV    
  Monopole - monopole (recip)=       -1677.32484058 eV    
  Monopole - monopole (total)=       -3884.60882300 eV    
--------------------------------------------------------------------------------
  Total lattice energy       =       -3068.30549816 eV    
--------------------------------------------------------------------------------
  Total lattice energy       =         -296044.5772 kJ/(mole unit cells)
--------------------------------------------------------------------------------

  Final fractional coordinates of atoms :

--------------------------------------------------------------------------------
   No.  Atomic        x           y          z          Radius
        Label       (Frac)      (Frac)     (Frac)       (Angs) 
--------------------------------------------------------------------------------
     1  Ge    c     0.052090    0.000000    0.372270    0.000000
     2  Ge    c     0.828143    0.700348    0.036666    0.000000
     3  Ge    c     0.328313    0.283237    0.967079    0.000000
     4  Si    c     0.450857    0.987810    0.371645    0.000000
     5  Si    c     0.945466    0.994089    0.628778    0.000000
     6  Si    c     0.549894    0.982563    0.633453    0.000000
     7  Si    c     0.548411    0.990472    0.116356    0.000000
     8  Si    c     0.939388    0.990259    0.118585    0.000000
     9  Si    c     0.436632    0.994325    0.876251    0.000000
    10  Si    c     0.047370    0.993590    0.880749    0.000000
    11  Si    c     0.160246    0.303311    0.293549    0.000000
    12  Si    c     0.345966    0.685825    0.277676    0.000000
    13  Si    c     0.840069    0.295038    0.725343    0.000000
    14  Si    c     0.656438    0.679248    0.712786    0.000000
    15  Si    c     0.833940    0.699358    0.723857    0.000000
    16  Si    c     0.660694    0.279552    0.715531    0.000000
    17  Si    c     0.166211    0.705577    0.291209    0.000000
    18  Si    c     0.338804    0.281817    0.279239    0.000000
    19  Si    c     0.658271    0.281681    0.021373    0.000000
    20  Si    c     0.157317    0.703800    0.987320    0.000000
    21  Si    c     0.338850    0.686687    0.973320    0.000000
    22  Si    c     0.146191    0.303202    0.986957    0.000000
    23  Si    c     0.647025    0.677733    0.021785    0.000000
    24  Si    c     0.839196    0.298033    0.030268    0.000000
    25  O3    c     0.105676    0.190134    0.384887    0.000000
    26  O2    c     0.403097    0.806960    0.362442    0.000000
    27  O2    c     0.896931    0.173560    0.642423    0.000000
    28  O2    c     0.599482    0.803967    0.629565    0.000000
    29  O2    c     0.889835    0.825947    0.642313    0.000000
    30  O2    c     0.608431    0.147375    0.630861    0.000000
    31  O3    c     0.116929    0.827634    0.383939    0.000000
    32  O2    c     0.393477    0.153696    0.364027    0.000000
    33  O3    c     0.980126    0.988736    0.485416    0.000000
    34  O2    c     0.492917    0.992783    0.510816    0.000000
    35  O3    c     0.007793    0.995063    0.221168    0.000000
    36  O2    c     0.516677    0.996555    0.262238    0.000000
    37  O2    c     0.017682    0.989877    0.731088    0.000000
    38  O2    c     0.498218    0.984869    0.762326    0.000000
    39  O2    c     0.614418    0.138767    0.107357    0.000000
    40  O3    c     0.879450    0.833653    0.140710    0.000000
    41  O3    c     0.376182    0.150593    0.859103    0.000000
    42  O2    c     0.111225    0.840733    0.896875    0.000000
    43  O2    c     0.388198    0.814233    0.881691    0.000000
    44  O2    c     0.083331    0.184247    0.911304    0.000000
    45  O2    c     0.583022    0.798443    0.089622    0.000000
    46  O2    c     0.890317    0.170178    0.120462    0.000000
    47  O2    c     0.480086    0.034132    0.013842    0.000000
    48  O2    c     0.975217    0.955332    0.974526    0.000000
    49  O2    c     0.140798    0.506162    0.315797    0.000000
    50  O2    c     0.366746    0.482204    0.299082    0.000000
    51  O2    c     0.861303    0.498556    0.704053    0.000000
    52  O2    c     0.634261    0.477822    0.683996    0.000000
    53  O2    c     0.250297    0.264050    0.328760    0.000000
    54  O2    c     0.257987    0.725148    0.321274    0.000000
    55  O2    c     0.751345    0.257343    0.679984    0.000000
    56  O2    c     0.745110    0.716902    0.670884    0.000000
    57  O2    c     0.145439    0.253905    0.141000    0.000000
    58  O2    c     0.356128    0.734270    0.125079    0.000000
    59  O2    c     0.850863    0.247685    0.878082    0.000000
    60  O2    c     0.648271    0.718876    0.866759    0.000000
    61  O3    c     0.836832    0.755821    0.873913    0.000000
    62  O2    c     0.648924    0.234343    0.868335    0.000000
    63  O2    c     0.149277    0.758546    0.139349    0.000000
    64  O3    c     0.342660    0.225958    0.128868    0.000000
    65  O2    c     0.623664    0.475010    0.046404    0.000000
    66  O3    c     0.864984    0.492807    0.059000    0.000000
    67  O3    c     0.362983    0.491676    0.942276    0.000000
    68  O2    c     0.123986    0.507893    0.966712    0.000000
    69  O2    c     0.748239    0.278025    0.064454    0.000000
    70  O3    c     0.731669    0.713252    0.080567    0.000000
    71  O3    c     0.230585    0.269152    0.929672    0.000000
    72  O2    c     0.246937    0.709720    0.944689    0.000000
    73  O3    s     0.106995    0.186493    0.374417    0.000000
    74  O2    s     0.401822    0.812839    0.353908    0.000000
    75  O2    s     0.895725    0.168065    0.650286    0.000000
    76  O2    s     0.600463    0.809359    0.639200    0.000000
    77  O2    s     0.889636    0.830066    0.649946    0.000000
    78  O2    s     0.608002    0.144461    0.640595    0.000000
    79  O3    s     0.116868    0.828697    0.373316    0.000000
    80  O2    s     0.393652    0.149847    0.355450    0.000000
    81  O3    s     0.982846    0.990315    0.490647    0.000000
    82  O2    s     0.494769    0.990973    0.509068    0.000000
    83  O3    s     0.003899    0.994948    0.222701    0.000000
    84  O2    s     0.512915    0.994853    0.257693    0.000000
    85  O2    s     0.013276    0.990752    0.736578    0.000000
    86  O2    s     0.496807    0.985770    0.761156    0.000000
    87  O2    s     0.612220    0.138818    0.098486    0.000000
    88  O3    s     0.881139    0.838043    0.129842    0.000000
    89  O3    s     0.378352    0.145784    0.869770    0.000000
    90  O2    s     0.109510    0.841918    0.905309    0.000000
    91  O2    s     0.387908    0.819314    0.891329    0.000000
    92  O2    s     0.086384    0.177010    0.916385    0.000000
    93  O2    s     0.586416    0.805697    0.084892    0.000000
    94  O2    s     0.889832    0.165476    0.110247    0.000000
    95  O2    s     0.483035    0.025188    0.010630    0.000000
    96  O2    s     0.979432    0.962988    0.978959    0.000000
    97  O2    s     0.145677    0.505645    0.310695    0.000000
    98  O2    s     0.361582    0.483023    0.294716    0.000000
    99  O2    s     0.856184    0.497829    0.708370    0.000000
   100  O2    s     0.639435    0.478144    0.690407    0.000000
   101  O2    s     0.250139    0.270139    0.319793    0.000000
   102  O2    s     0.257617    0.718781    0.313349    0.000000
   103  O2    s     0.751048    0.263773    0.688588    0.000000
   104  O2    s     0.744934    0.711002    0.680820    0.000000
   105  O2    s     0.147034    0.264110    0.140636    0.000000
   106  O2    s     0.353236    0.724225    0.125430    0.000000
   107  O2    s     0.848465    0.258003    0.877651    0.000000
   108  O2    s     0.649022    0.710216    0.866650    0.000000
   109  O3    s     0.835808    0.745510    0.872047    0.000000
   110  O2    s     0.651182    0.244198    0.868400    0.000000
   111  O2    s     0.151834    0.747497    0.138900    0.000000
   112  O3    s     0.341090    0.236235    0.130729    0.000000
   113  O2    s     0.629683    0.475624    0.041211    0.000000
   114  O3    s     0.859286    0.489300    0.054186    0.000000
   115  O3    s     0.357610    0.495014    0.947555    0.000000
   116  O2    s     0.129717    0.507374    0.970968    0.000000
   117  O2    s     0.748064    0.280645    0.056004    0.000000
   118  O3    s     0.730871    0.708600    0.071021    0.000000
   119  O3    s     0.229978    0.273780    0.938594    0.000000
   120  O2    s     0.246951    0.706555    0.952456    0.000000
--------------------------------------------------------------------------------

  Final Cartesian lattice vectors (Angstroms) :

       17.187062   -0.000595   -0.085451
       -0.000232    7.653502    0.007052
       -0.054765    0.016613   10.198269


  Final cell parameters and derivatives :

--------------------------------------------------------------------------------
       a           17.187274 Angstrom     dE/de1(xx)     0.003098 eV/strain
       b            7.653506 Angstrom     dE/de2(yy)     0.001958 eV/strain
       c           10.198430 Angstrom     dE/de3(zz)    -0.001454 eV/strain
       alpha       89.853868 Degrees      dE/de4(yz)     0.000044 eV/strain
       beta        90.592541 Degrees      dE/de5(xz)    -0.000402 eV/strain
       gamma       90.003980 Degrees      dE/de6(xy)    -0.000085 eV/strain
--------------------------------------------------------------------------------

  Primitive cell volume =          1341.454918 Angs**3

  Density of cell =      1.950558 g/cm**3

  Non-primitive cell volume =          1341.454918 Angs**3


  Final internal derivatives :

--------------------------------------------------------------------------------
   No.  Atomic          a             b             c           Radius
        Label          (eV)          (eV)          (eV)        (eV/Angs)
--------------------------------------------------------------------------------
      1 Ge    c       0.000000      0.000000      0.000000      0.000000
      2 Ge    c      -0.002745     -0.003689     -0.002904      0.000000
      3 Ge    c       0.000304      0.001032      0.003417      0.000000
      4 Si    c      -0.002422     -0.000027      0.000901      0.000000
      5 Si    c       0.001058      0.000158     -0.000581      0.000000
      6 Si    c       0.005255      0.000028      0.001178      0.000000
      7 Si    c       0.000844      0.000078      0.000633      0.000000
      8 Si    c       0.001845      0.000103     -0.002305      0.000000
      9 Si    c       0.000128     -0.000116      0.002745      0.000000
     10 Si    c      -0.001152     -0.000209     -0.000734      0.000000
     11 Si    c       0.000038     -0.000368     -0.000510      0.000000
     12 Si    c       0.001053      0.000027     -0.000624      0.000000
     13 Si    c       0.001411      0.000843      0.001284      0.000000
     14 Si    c      -0.000331      0.000396      0.000396      0.000000
     15 Si    c      -0.000767      0.000295      0.004020      0.000000
     16 Si    c      -0.001256     -0.000097      0.000132      0.000000
     17 Si    c      -0.000049      0.000368     -0.001154      0.000000
     18 Si    c       0.000440     -0.000354     -0.001871      0.000000
     19 Si    c       0.002077     -0.000004      0.000809      0.000000
     20 Si    c      -0.001013      0.000664      0.000806      0.000000
     21 Si    c      -0.000035     -0.000478      0.000961      0.000000
     22 Si    c      -0.000278     -0.000449      0.000178      0.000000
     23 Si    c       0.003931      0.000009     -0.000264      0.000000
     24 Si    c      -0.001008      0.002141     -0.000675      0.000000
     25 O3    c       0.002968      0.001956      0.000682      0.000000
     26 O2    c      -0.001070     -0.001268      0.000168      0.000000
     27 O2    c      -0.000055     -0.000005     -0.000233      0.000000
     28 O2    c       0.000850     -0.000935     -0.000340      0.000000
     29 O2    c      -0.000430     -0.000384     -0.000204      0.000000
     30 O2    c       0.000414      0.000781     -0.000387      0.000000
     31 O3    c       0.002181     -0.001440      0.001299      0.000000
     32 O2    c      -0.001894      0.001545      0.000366      0.000000
     33 O3    c      -0.003483     -0.000081      0.002503      0.000000
     34 O2    c      -0.008977      0.000117     -0.003670      0.000000
     35 O3    c       0.005580      0.000733      0.001062      0.000000
     36 O2    c       0.007640     -0.000105     -0.002915      0.000000
     37 O2    c       0.001549     -0.000003      0.000754      0.000000
     38 O2    c       0.008226     -0.001088     -0.002705      0.000000
     39 O2    c       0.000910      0.000970     -0.000434      0.000000
     40 O3    c      -0.002612     -0.001911      0.003111      0.000000
     41 O3    c      -0.003694      0.003397     -0.004225      0.000000
     42 O2    c       0.001578     -0.000886     -0.000260      0.000000
     43 O2    c      -0.005066     -0.003488     -0.001120      0.000000
     44 O2    c       0.001124      0.001313      0.000503      0.000000
     45 O2    c      -0.000343     -0.000244      0.000234      0.000000
     46 O2    c      -0.002981      0.001697      0.000839      0.000000
     47 O2    c      -0.003599      0.000946      0.000703      0.000000
     48 O2    c      -0.002048     -0.000544      0.000652      0.000000
     49 O2    c      -0.000803     -0.000184      0.000259      0.000000
     50 O2    c       0.000384      0.000573      0.000008      0.000000
     51 O2    c      -0.001831     -0.000821      0.001031      0.000000
     52 O2    c       0.000465     -0.000707      0.000432      0.000000
     53 O2    c       0.001153      0.000000      0.000056      0.000000
     54 O2    c       0.000216      0.000101      0.000288      0.000000
     55 O2    c      -0.000320      0.000142      0.000122      0.000000
     56 O2    c       0.002854     -0.000154      0.001165      0.000000
     57 O2    c       0.000273      0.000068     -0.000076      0.000000
     58 O2    c      -0.000177     -0.000086      0.000180      0.000000
     59 O2    c      -0.001700      0.000428      0.000286      0.000000
     60 O2    c      -0.000048     -0.000567      0.001465      0.000000
     61 O3    c      -0.002375     -0.002129     -0.002290      0.000000
     62 O2    c       0.000542      0.000247     -0.000215      0.000000
     63 O2    c       0.000062     -0.000022     -0.000083      0.000000
     64 O3    c      -0.001045      0.000455      0.000331      0.000000
     65 O2    c       0.001968     -0.000456     -0.000952      0.000000
     66 O3    c      -0.006633      0.002777     -0.003819      0.000000
     67 O3    c       0.001223     -0.000659     -0.000298      0.000000
     68 O2    c      -0.000944     -0.000645     -0.000285      0.000000
     69 O2    c      -0.001752      0.000695     -0.001300      0.000000
     70 O3    c      -0.000738     -0.001153     -0.002702      0.000000
     71 O3    c      -0.002610     -0.000061     -0.000287      0.000000
     72 O2    c       0.001371      0.000082     -0.000280      0.000000
     73 O3    s      -0.000728     -0.000170     -0.000285      0.000000
     74 O2    s      -0.002143     -0.000782      0.000404      0.000000
     75 O2    s      -0.000907      0.000893      0.000815      0.000000
     76 O2    s       0.003672     -0.000785      0.000711      0.000000
     77 O2    s      -0.001449     -0.000583      0.000658      0.000000
     78 O2    s       0.003721      0.001066      0.000430      0.000000
     79 O3    s      -0.000665      0.000034      0.000030      0.000000
     80 O2    s      -0.002336      0.000414     -0.000097      0.000000
     81 O3    s       0.000409      0.000089     -0.000958      0.000000
     82 O2    s       0.001858     -0.000113      0.000517      0.000000
     83 O3    s      -0.001032     -0.000184     -0.000414      0.000000
     84 O2    s       0.000934     -0.000326      0.000437      0.000000
     85 O2    s      -0.000943      0.000190     -0.000550      0.000000
     86 O2    s       0.001774      0.000539      0.000635      0.000000
     87 O2    s       0.003007      0.000874     -0.000208      0.000000
     88 O3    s      -0.001707     -0.001518     -0.000993      0.000000
     89 O3    s      -0.003327      0.000951     -0.000029      0.000000
     90 O2    s       0.000732      0.000127     -0.000248      0.000000
     91 O2    s      -0.002828     -0.001389      0.000922      0.000000
     92 O2    s       0.000337      0.000339      0.000041      0.000000
     93 O2    s       0.002284     -0.001004     -0.000631      0.000000
     94 O2    s      -0.001387      0.002055     -0.001020      0.000000
     95 O2    s       0.005035     -0.000401      0.002195      0.000000
     96 O2    s       0.000823      0.000310     -0.001207      0.000000
     97 O2    s       0.000688     -0.000125     -0.000434      0.000000
     98 O2    s      -0.001192     -0.000178     -0.000655      0.000000
     99 O2    s      -0.003931      0.000510      0.001916      0.000000
    100 O2    s       0.002507     -0.000092      0.001461      0.000000
    101 O2    s      -0.000319      0.000333     -0.000416      0.000000
    102 O2    s       0.000588     -0.000334     -0.000533      0.000000
    103 O2    s       0.000622      0.001608      0.002018      0.000000
    104 O2    s       0.000975     -0.001324      0.002044      0.000000
    105 O2    s       0.000219      0.000333     -0.000263      0.000000
    106 O2    s      -0.000501     -0.000149      0.000178      0.000000
    107 O2    s      -0.003544      0.001470      0.000318      0.000000
    108 O2    s       0.001912     -0.001157      0.000743      0.000000
    109 O3    s      -0.001795     -0.001362      0.000874      0.000000
    110 O2    s       0.003786      0.001161      0.000917      0.000000
    111 O2    s       0.000714     -0.000211      0.000238      0.000000
    112 O3    s      -0.000657      0.000169      0.000817      0.000000
    113 O2    s       0.003953     -0.000101     -0.001805      0.000000
    114 O3    s      -0.001731     -0.001807     -0.001262      0.000000
    115 O3    s      -0.001742      0.000770      0.000773      0.000000
    116 O2    s       0.000605     -0.000210      0.000403      0.000000
    117 O2    s       0.000759      0.001877     -0.002486      0.000000
    118 O3    s       0.000226     -0.000856     -0.002137      0.000000
    119 O3    s       0.000111     -0.000081      0.000569      0.000000
    120 O2    s       0.000130     -0.000217      0.000439      0.000000
--------------------------------------------------------------------------------
  Maximum abs         0.008977      0.003689      0.004225      0.000000
--------------------------------------------------------------------------------


  Born effective charge tensors : 

-------------------------------------------------------------------------------
  Atom             x           y             z
-------------------------------------------------------------------------------
    1 Ge    x       4.2721      0.0656     -0.0326
            y      -0.0598      3.9045     -0.0085
            z      -0.9111     -0.0519      4.4498
-------------------------------------------------------------------------------
    2 Ge    x       4.0082      0.3869      0.1786
            y       0.1656      4.1462      0.2739
            z       0.1918      0.0605      3.3259
-------------------------------------------------------------------------------
    3 Ge    x       4.0119     -0.3841     -0.2251
            y      -0.1642      4.1645      0.2854
            z      -0.1831      0.0707      3.3613
-------------------------------------------------------------------------------
    4 Si    x       3.4135      0.0560      0.2639
            y      -0.0493      3.2551      0.0109
            z       0.3534      0.0333      3.8229
-------------------------------------------------------------------------------
    5 Si    x       3.5748     -0.0467     -0.4851
            y       0.0343      3.3106      0.0156
            z      -0.4413      0.0559      4.2498
-------------------------------------------------------------------------------
    6 Si    x       3.4479     -0.0402      0.0909
            y       0.0550      3.2566     -0.0060
            z       0.5799     -0.0394      3.7302
-------------------------------------------------------------------------------
    7 Si    x       3.4402     -0.1088     -0.3316
            y       0.1791      3.2651      0.0401
            z      -0.3955     -0.0077      3.1473
-------------------------------------------------------------------------------
    8 Si    x       4.0184      0.1089      0.1607
            y       0.2391      3.4585     -0.0727
            z       0.8383      0.0357      3.2145
-------------------------------------------------------------------------------
    9 Si    x       3.7093     -0.0992     -0.0678
            y      -0.2439      3.4409     -0.0719
            z      -0.6181      0.0470      3.0826
-------------------------------------------------------------------------------
   10 Si    x       3.4852      0.0858      0.3984
            y      -0.1657      3.2786      0.0404
            z       0.3765     -0.0041      3.1122
-------------------------------------------------------------------------------
   11 Si    x       3.3888      0.3940     -0.2266
            y       0.3755      3.5426     -0.3515
            z      -0.2502     -0.1798      3.0051
-------------------------------------------------------------------------------
   12 Si    x       3.1904      0.2472      0.0697
            y       0.2626      3.4306      0.1781
            z       0.1074      0.0568      2.8048
-------------------------------------------------------------------------------
   13 Si    x       3.2272     -0.2540     -0.0481
            y      -0.2498      3.4297      0.1816
            z      -0.1033      0.0524      2.7785
-------------------------------------------------------------------------------
   14 Si    x       3.1670     -0.2754      0.0588
            y      -0.2493      3.4502     -0.1739
            z       0.1380     -0.0827      2.8002
-------------------------------------------------------------------------------
   15 Si    x       3.2825      0.3240     -0.0348
            y       0.2356      3.5625     -0.0816
            z      -0.1387      0.0395      3.0783
-------------------------------------------------------------------------------
   16 Si    x       3.1980      0.3114      0.1011
            y       0.2105      3.4533      0.1568
            z       0.1174      0.0693      2.8062
-------------------------------------------------------------------------------
   17 Si    x       3.3823     -0.4339     -0.2641
            y      -0.3251      3.5720      0.3538
            z      -0.2258      0.1857      3.0141
-------------------------------------------------------------------------------
   18 Si    x       3.2488     -0.3231      0.0565
            y      -0.2368      3.5695     -0.0874
            z       0.1222      0.0275      3.1092
-------------------------------------------------------------------------------
   19 Si    x       3.1985      0.3458     -0.1549
            y       0.1080      3.4265     -0.1794
            z      -0.1315     -0.0785      2.7521
-------------------------------------------------------------------------------
   20 Si    x       3.2508     -0.3260      0.1789
            y      -0.1112      3.4438     -0.2206
            z       0.1305     -0.0647      2.7396
-------------------------------------------------------------------------------
   21 Si    x       3.3665      0.2129     -0.1970
            y       0.0931      3.7207     -0.0958
            z      -0.1713      0.0070      2.8150
-------------------------------------------------------------------------------
   22 Si    x       3.6190      0.2287     -0.0202
            y       0.2307      3.5330      0.2269
            z       0.1100      0.0794      2.8123
-------------------------------------------------------------------------------
   23 Si    x       3.5822     -0.2274      0.0371
            y      -0.2348      3.5079      0.1817
            z      -0.1384      0.0922      2.8267
-------------------------------------------------------------------------------
   24 Si    x       3.3515     -0.2135      0.1660
            y      -0.0835      3.6976     -0.0938
            z       0.1692      0.0254      2.7741
-------------------------------------------------------------------------------
   25 O3    x      -2.0276     -0.9569      0.4416
            y      -0.9319     -2.3380      0.4704
            z       0.5527      0.4642     -1.6293
-------------------------------------------------------------------------------
   26 O2    x      -1.6686     -0.7285     -0.3385
            y      -0.6899     -1.9952     -0.3483
            z      -0.3497     -0.3382     -1.3595
-------------------------------------------------------------------------------
   27 O2    x      -1.6872      0.7252      0.3353
            y       0.6896     -2.0001     -0.3422
            z       0.3373     -0.3311     -1.3511
-------------------------------------------------------------------------------
   28 O2    x      -1.6678      0.7297     -0.2704
            y       0.7053     -2.0048      0.2993
            z      -0.3544      0.3033     -1.3279
-------------------------------------------------------------------------------
   29 O2    x      -1.7340     -0.7384      0.3108
            y      -0.7324     -2.0016      0.3110
            z       0.3432      0.3169     -1.3276
-------------------------------------------------------------------------------
   30 O2    x      -1.7088     -0.7390     -0.2798
            y      -0.7421     -1.9885     -0.3155
            z      -0.3641     -0.3216     -1.3397
-------------------------------------------------------------------------------
   31 O3    x      -2.0583      0.9575      0.4394
            y       0.9740     -2.3253     -0.5027
            z       0.5456     -0.4861     -1.6397
-------------------------------------------------------------------------------
   32 O2    x      -1.7285      0.7425     -0.3161
            y       0.7401     -1.9891      0.3192
            z      -0.3507      0.3215     -1.3395
-------------------------------------------------------------------------------
   33 O3    x      -2.0294     -0.0128      1.1066
            y      -0.0115     -1.2065      0.0058
            z       1.4038      0.0102     -3.4017
-------------------------------------------------------------------------------
   34 O2    x      -1.6481      0.0091     -0.8309
            y       0.0067     -1.0889      0.0072
            z      -1.0500      0.0176     -2.7284
-------------------------------------------------------------------------------
   35 O3    x      -2.2168     -0.0064     -1.0093
            y      -0.0018     -1.2354     -0.0022
            z      -1.0224     -0.0164     -2.6113
-------------------------------------------------------------------------------
   36 O2    x      -1.6678      0.0056      0.7100
            y      -0.0266     -1.1109     -0.0046
            z       0.6592     -0.0038     -2.2634
-------------------------------------------------------------------------------
   37 O2    x      -1.7492     -0.0092     -0.6903
            y       0.0241     -1.1154     -0.0076
            z      -0.6278     -0.0079     -2.2056
-------------------------------------------------------------------------------
   38 O2    x      -1.7852      0.0048      0.7251
            y       0.0065     -1.1120      0.0011
            z       0.7515     -0.0044     -2.1555
-------------------------------------------------------------------------------
   39 O2    x      -1.7445     -0.7348      0.3594
            y      -0.6945     -1.9435      0.3598
            z       0.3475      0.3572     -1.2526
-------------------------------------------------------------------------------
   40 O3    x      -2.0998     -0.9512     -0.2389
            y      -0.9434     -2.3474     -0.2994
            z      -0.3271     -0.2637     -1.4111
-------------------------------------------------------------------------------
   41 O3    x      -2.1031      0.9618      0.3112
            y       0.9506     -2.3488     -0.3619
            z       0.3583     -0.3142     -1.4455
-------------------------------------------------------------------------------
   42 O2    x      -1.7713      0.7513     -0.4140
            y       0.7014     -1.9545      0.4057
            z      -0.3581      0.3657     -1.2671
-------------------------------------------------------------------------------
   43 O2    x      -1.6890     -0.6713      0.3268
            y      -0.6349     -1.9253      0.3670
            z       0.3749      0.3261     -1.2857
-------------------------------------------------------------------------------
   44 O2    x      -1.7001     -0.7194     -0.3949
            y      -0.6172     -2.0594     -0.4229
            z      -0.3620     -0.3726     -1.2465
-------------------------------------------------------------------------------
   45 O2    x      -1.6753      0.7072      0.3494
            y       0.6158     -2.0586     -0.3769
            z       0.3642     -0.3611     -1.2237
-------------------------------------------------------------------------------
   46 O2    x      -1.6911      0.6596     -0.2737
            y       0.6178     -1.9194      0.3077
            z      -0.3446      0.2754     -1.2571
-------------------------------------------------------------------------------
   47 O2    x      -1.7863      0.0332     -0.5508
            y       0.0193     -1.2038     -0.0084
            z      -0.3011     -0.0354     -1.7229
-------------------------------------------------------------------------------
   48 O2    x      -1.8301     -0.0383      0.5290
            y      -0.0214     -1.2054     -0.0107
            z       0.2800     -0.0355     -1.6809
-------------------------------------------------------------------------------
   49 O2    x      -1.1875     -0.0347      0.0645
            y      -0.0450     -2.4573      0.0109
            z       0.0839      0.0063     -1.0882
-------------------------------------------------------------------------------
   50 O2    x      -1.1818     -0.0295     -0.0393
            y      -0.0565     -2.5840      0.0312
            z      -0.0647      0.0383     -1.0524
-------------------------------------------------------------------------------
   51 O2    x      -1.1933      0.0271      0.0340
            y       0.0476     -2.5909      0.0284
            z       0.0650      0.0402     -1.0466
-------------------------------------------------------------------------------
   52 O2    x      -1.1600      0.0253     -0.0577
            y       0.0355     -2.5464      0.0127
            z      -0.0842      0.0047     -1.0706
-------------------------------------------------------------------------------
   53 O2    x      -2.3678      0.0806      0.0197
            y       0.0582     -1.2573      0.0706
            z       0.0199      0.0421     -1.0925
-------------------------------------------------------------------------------
   54 O2    x      -2.3860      0.0464      0.0454
            y       0.0003     -1.2382     -0.0716
            z       0.0322     -0.0441     -1.0823
-------------------------------------------------------------------------------
   55 O2    x      -2.4114     -0.0531     -0.0378
            y      -0.0147     -1.2360     -0.0675
            z      -0.0218     -0.0419     -1.0732
-------------------------------------------------------------------------------
   56 O2    x      -2.3746     -0.0593     -0.0125
            y      -0.0332     -1.2483      0.0668
            z      -0.0100      0.0422     -1.0889
-------------------------------------------------------------------------------
   57 O2    x      -1.2126     -0.1262     -0.1343
            y      -0.1081     -1.3096     -0.0178
            z      -0.1353     -0.0039     -2.0644
-------------------------------------------------------------------------------
   58 O2    x      -1.2182     -0.1335     -0.0084
            y      -0.1134     -1.2669      0.0380
            z      -0.0133      0.0327     -2.0662
-------------------------------------------------------------------------------
   59 O2    x      -1.2161      0.1339     -0.0197
            y       0.1069     -1.2643      0.0279
            z      -0.0143      0.0216     -2.0463
-------------------------------------------------------------------------------
   60 O2    x      -1.1796      0.1089      0.1021
            y       0.0976     -1.2855     -0.0049
            z       0.1039      0.0136     -2.0977
-------------------------------------------------------------------------------
   61 O3    x      -1.3238     -0.1520     -0.0207
            y      -0.0986     -1.4614     -0.0866
            z       0.0184     -0.0865     -2.5952
-------------------------------------------------------------------------------
   62 O2    x      -1.1750     -0.1338      0.0534
            y      -0.0894     -1.2774     -0.0181
            z       0.0372     -0.0085     -2.0719
-------------------------------------------------------------------------------
   63 O2    x      -1.2084      0.1455     -0.0889
            y       0.0979     -1.3040     -0.0026
            z      -0.0781      0.0037     -2.0447
-------------------------------------------------------------------------------
   64 O3    x      -1.3220      0.1557     -0.0039
            y       0.1090     -1.4669     -0.0890
            z      -0.0317     -0.0793     -2.6182
-------------------------------------------------------------------------------
   65 O2    x      -1.2315      0.0736      0.0760
            y       0.1250     -2.5113      0.0105
            z       0.1089     -0.0117     -1.0352
-------------------------------------------------------------------------------
   66 O3    x      -1.4043     -0.0628     -0.1087
            y       0.0167     -3.1206     -0.0951
            z      -0.1273     -0.0847     -1.1388
-------------------------------------------------------------------------------
   67 O3    x      -1.3892      0.0551      0.1195
            y      -0.0177     -3.1450     -0.0986
            z       0.1268     -0.0886     -1.1550
-------------------------------------------------------------------------------
   68 O2    x      -1.2423     -0.0764     -0.0735
            y      -0.1279     -2.5642      0.0107
            z      -0.0950     -0.0076     -1.0187
-------------------------------------------------------------------------------
   69 O2    x      -2.4512     -0.0253     -0.0262
            y      -0.0115     -1.2236      0.0529
            z      -0.0200      0.0200     -1.0638
-------------------------------------------------------------------------------
   70 O3    x      -2.9947     -0.1087     -0.1576
            y      -0.0978     -1.3784     -0.1071
            z      -0.1350     -0.0651     -1.2433
-------------------------------------------------------------------------------
   71 O3    x      -3.0441      0.1009      0.2014
            y       0.0896     -1.3812     -0.1129
            z       0.1557     -0.0608     -1.2264
-------------------------------------------------------------------------------
   72 O2    x      -2.4916      0.0264      0.0638
            y       0.0102     -1.2244      0.0582
            z       0.0466      0.0218     -1.0582
-------------------------------------------------------------------------------




  Elastic Constant Matrix: (Units=GPa)

-------------------------------------------------------------------------------
  Indices      1         2         3         4         5         6    
-------------------------------------------------------------------------------
       1     58.6264   35.4335   27.8047   -1.8081   -0.0035    3.7786
       2     35.4335   86.4204   27.3450   -2.6845   -0.0916    3.9886
       3     27.8047   27.3450   26.5599   -0.5709   -0.4208    0.7226
       4     -1.8081   -2.6845   -0.5709   11.3683    0.2660    1.1727
       5     -0.0035   -0.0916   -0.4208    0.2660   25.5679   -0.0305
       6      3.7786    3.9886    0.7226    1.1727   -0.0305   19.8631
-------------------------------------------------------------------------------


  Elastic Compliance Matrix: (Units=1/GPa)

-------------------------------------------------------------------------------
  Indices      1         2         3         4         5         6    
-------------------------------------------------------------------------------
       1    0.035405 -0.003724 -0.033026  0.003623 -0.000596 -0.005001
       2   -0.003724  0.017854 -0.014350  0.003170 -0.000209 -0.002542
       3   -0.033026 -0.014350  0.086743 -0.004969  0.001431  0.006304
       4    0.003623  0.003170 -0.004969  0.089728 -0.001011 -0.006444
       5   -0.000596 -0.000209  0.001431 -0.001011  0.039145  0.000223
       6   -0.005001 -0.002542  0.006304 -0.006444  0.000223  0.051958
-------------------------------------------------------------------------------

  Mechanical properties :

-------------------------------------------------------------------------------
  Convention :                    Reuss         Voigt         Hill
-------------------------------------------------------------------------------
  Bulk  Modulus (GPa)     =      26.45285      39.19704      32.82494
  Shear Modulus (GPa)     =      11.47754      16.76143      14.11948
-------------------------------------------------------------------------------
  Velocity S-wave (km/s)  =       2.42574       2.93141       2.69048
  Velocity P-wave (km/s)  =       4.62681       5.61719       5.14588
-------------------------------------------------------------------------------
  Compressibility (1/GPa) =    0.03780311
-------------------------------------------------------------------------------
  Stress axis :                     x             y             z
-------------------------------------------------------------------------------
  Youngs Moduli (GPa)     =      28.24447      56.00914      11.52829
-------------------------------------------------------------------------------
  Poissons Ratio (x)      =                     0.20857       0.38074
  Poissons Ratio (y)      =       0.10518                     0.16543
  Poissons Ratio (z)      =       0.93281       0.80371
-------------------------------------------------------------------------------


  Piezoelectric Strain Matrix: (Units=C/m**2)

-------------------------------------------------------------------------------
  Indices      1         2         3         4         5         6    
-------------------------------------------------------------------------------
       x     0.46304   1.25162   0.48706  -0.21160   0.21785  -0.09886
       y    -0.25881  -0.42197  -0.09701   0.06777  -0.19945   0.09418
       z     0.03405  -0.18105   0.26342  -0.01967  -0.33469   0.04546
-------------------------------------------------------------------------------


  Piezoelectric Stress Matrix: (Units=10**-11 C/N)

-------------------------------------------------------------------------------
  Indices      1         2         3         4         5         6    
-------------------------------------------------------------------------------
       x    -0.47546   1.31683   0.97362  -1.53438   0.88794  -0.61517
       y    -0.44948  -0.51610   0.61595   0.38826  -0.77517   0.61675
       z    -0.69191  -0.72474   2.42287  -0.34790  -1.26770   0.43646
-------------------------------------------------------------------------------


  Static dielectric constant tensor : 

-------------------------------------------------------------------------------
              x         y         z
-------------------------------------------------------------------------------
       x     4.01502   0.00102  -0.07224
       y     0.00102   4.15977   0.00768
       z    -0.07224   0.00768   3.24384
--------------------------------------------------------------------------------

  High frequency dielectric constant tensor : 

-------------------------------------------------------------------------------
              x         y         z
-------------------------------------------------------------------------------
       x     1.67814   0.00022   0.00015
       y     0.00022   1.68546   0.00036
       z     0.00015   0.00036   1.61693
-------------------------------------------------------------------------------

  Static refractive indices : 

-------------------------------------------------------------------------------
    1 =    1.79918      2 =    2.00542      3 =    2.03957
-------------------------------------------------------------------------------

  High frequency refractive indices : 

-------------------------------------------------------------------------------
    1 =    1.27158      2 =    1.29543      3 =    1.29826
-------------------------------------------------------------------------------


  Time to end of optimisation =       7.3604 seconds


  Peak dynamic memory used =       5.01 MB 


  Timing analysis for GULP :

--------------------------------------------------------------------------------
  Task / Subroutine                                          Time (Seconds)
--------------------------------------------------------------------------------
  Calculation of reciprocal space energy and derivatives          0.4621
  Calculation of real space energy and derivatives                4.7637
  Calculation of three-body energy and derivatives                0.4433
  Calculation and manipulation of Hessian matrix                  1.9775
  Calculation of matrix inversion                                 0.0289
  Global summation overhead                                       0.0001
--------------------------------------------------------------------------------
  Total CPU time                                                  7.3604
--------------------------------------------------------------------------------


  Dump file written as c00113.vasp.grs
  CIF file written as c00113.vasp.cif


  Job Finished at 11:46.15  7th October    2025                               

