********************************************************************************
*                       GENERAL UTILITY LATTICE PROGRAM                        *
*                                 Julian Gale                                  *
*                       Curtin Institute for Computation                       *
*                    School of Molecular and Life Sciences                     *
*                    Curtin University, Western Australia                      *
********************************************************************************
* Version = 6.1.2 * Last modified =   3rd November 2022                        *
********************************************************************************
*  optimise     - perform optimisation run                                     *
*  conp         - constant pressure calculation                                *
*  property     - calculate properties for final geometry                      *
********************************************************************************

  Job Started  at 11:51.24  7th October    2025                               

  Number of CPUs =     1


  Total number of configurations input =      1

********************************************************************************
*  Input for Configuration =   1 : c00144.vasp                                 *
********************************************************************************

  Formula = Ge3Si21O48                                                  

  Number of irreducible atoms/shells =     120


  Total number atoms/shells =     120

  Dimensionality = 3               :  Bulk   



  Cartesian lattice vectors (Angstroms) :

       17.182800    0.000000    0.000000
        0.000000    7.513760    0.000000
        0.000000    0.000000   10.447700

  Cell parameters (Angstroms/Degrees):

  a =      17.1828    alpha =  90.0000
  b =       7.5138    beta  =  90.0000
  c =      10.4477    gamma =  90.0000

  Initial cell volume =        1348.875752 Angs**3

  Temperature of configuration =   0.00     K 

  Pressure of configuration =         0.000 GPa 

  Fractional coordinates of asymmetric unit :

--------------------------------------------------------------------------------
   No.  Atomic       x           y          z         Charge      Occupancy
        Label      (Frac)      (Frac)     (Frac)        (e)         (Frac)  
--------------------------------------------------------------------------------
      1 Ge    c    0.556730    0.000000    0.122130     4.00000    1.000000    
      2 Ge    c    0.160190 *  0.293910 *  0.273440 *   4.00000    1.000000    
      3 Ge    c    0.339340 *  0.294090 *  0.982560 *   4.00000    1.000000    
      4 Si    c    0.052090 *  0.000000 *  0.372270 *   4.00000    1.000000    
      5 Si    c    0.447910 *  0.000000 *  0.372270 *   4.00000    1.000000    
      6 Si    c    0.947910 *  0.000000 *  0.627730 *   4.00000    1.000000    
      7 Si    c    0.552090 *  0.000000 *  0.627730 *   4.00000    1.000000    
      8 Si    c    0.943270 *  0.000000 *  0.122130 *   4.00000    1.000000    
      9 Si    c    0.443270 *  0.000000 *  0.877870 *   4.00000    1.000000    
     10 Si    c    0.056730 *  0.000000 *  0.877870 *   4.00000    1.000000    
     11 Si    c    0.339810 *  0.706090 *  0.273440 *   4.00000    1.000000    
     12 Si    c    0.839810 *  0.293910 *  0.726560 *   4.00000    1.000000    
     13 Si    c    0.660190 *  0.706090 *  0.726560 *   4.00000    1.000000    
     14 Si    c    0.839810 *  0.706090 *  0.726560 *   4.00000    1.000000    
     15 Si    c    0.660190 *  0.293910 *  0.726560 *   4.00000    1.000000    
     16 Si    c    0.160190 *  0.706090 *  0.273440 *   4.00000    1.000000    
     17 Si    c    0.339810 *  0.293910 *  0.273440 *   4.00000    1.000000    
     18 Si    c    0.660660 *  0.294090 *  0.017440 *   4.00000    1.000000    
     19 Si    c    0.839340 *  0.705910 *  0.017440 *   4.00000    1.000000    
     20 Si    c    0.160660 *  0.705910 *  0.982560 *   4.00000    1.000000    
     21 Si    c    0.339340 *  0.705910 *  0.982560 *   4.00000    1.000000    
     22 Si    c    0.160660 *  0.294090 *  0.982560 *   4.00000    1.000000    
     23 Si    c    0.660660 *  0.705910 *  0.017440 *   4.00000    1.000000    
     24 Si    c    0.839340 *  0.294090 *  0.017440 *   4.00000    1.000000    
     25 O3    c    0.106570 *  0.174340 *  0.366200 *   1.33043    1.000000    
     26 O2    c    0.393430 *  0.825660 *  0.366200 *   0.87073    1.000000    
     27 O2    c    0.893430 *  0.174340 *  0.633800 *   0.87073    1.000000    
     28 O2    c    0.606570 *  0.825660 *  0.633800 *   0.87073    1.000000    
     29 O2    c    0.893430 *  0.825660 *  0.633800 *   0.87073    1.000000    
     30 O2    c    0.606570 *  0.174340 *  0.633800 *   0.87073    1.000000    
     31 O2    c    0.106570 *  0.825660 *  0.366200 *   0.87073    1.000000    
     32 O2    c    0.393430 *  0.174340 *  0.366200 *   0.87073    1.000000    
     33 O2    c    0.000000 *  0.000000 *  0.500000 *   0.87073    1.000000    
     34 O2    c    0.500000 *  0.000000 *  0.500000 *   0.87073    1.000000    
     35 O2    c    0.994520 *  0.000000 *  0.250840 *   0.87073    1.000000    
     36 O3    c    0.505480 *  0.000000 *  0.250840 *   1.33043    1.000000    
     37 O2    c    0.005480 *  0.000000 *  0.749160 *   0.87073    1.000000    
     38 O2    c    0.494520 *  0.000000 *  0.749160 *   0.87073    1.000000    
     39 O3    c    0.610230 *  0.175520 *  0.115390 *   1.33043    1.000000    
     40 O2    c    0.889770 *  0.824480 *  0.115390 *   0.87073    1.000000    
     41 O3    c    0.389770 *  0.175520 *  0.884610 *   1.33043    1.000000    
     42 O2    c    0.110230 *  0.824480 *  0.884610 *   0.87073    1.000000    
     43 O2    c    0.389770 *  0.824480 *  0.884610 *   0.87073    1.000000    
     44 O2    c    0.110230 *  0.175520 *  0.884610 *   0.87073    1.000000    
     45 O3    c    0.610230 *  0.824480 *  0.115390 *   1.33043    1.000000    
     46 O2    c    0.889770 *  0.175520 *  0.115390 *   0.87073    1.000000    
     47 O3    c    0.500000 *  0.000000 *  0.000000 *   1.33043    1.000000    
     48 O2    c    0.000000 *  0.000000 *  0.000000 *   0.87073    1.000000    
     49 O3    c    0.151750 *  0.500000 *  0.313330 *   1.33043    1.000000    
     50 O2    c    0.348250 *  0.500000 *  0.313330 *   0.87073    1.000000    
     51 O2    c    0.848250 *  0.500000 *  0.686670 *   0.87073    1.000000    
     52 O2    c    0.651750 *  0.500000 *  0.686670 *   0.87073    1.000000    
     53 O3    c    0.250000 *  0.234950 *  0.285720 *   1.33043    1.000000    
     54 O2    c    0.250000 *  0.765050 *  0.285720 *   0.87073    1.000000    
     55 O2    c    0.750000 *  0.234950 *  0.714280 *   0.87073    1.000000    
     56 O2    c    0.750000 *  0.765050 *  0.714280 *   0.87073    1.000000    
     57 O3    c    0.131410 *  0.268650 *  0.127790 *   1.33043    1.000000    
     58 O2    c    0.368590 *  0.731350 *  0.127790 *   0.87073    1.000000    
     59 O2    c    0.868590 *  0.268650 *  0.872210 *   0.87073    1.000000    
     60 O2    c    0.631410 *  0.731350 *  0.872210 *   0.87073    1.000000    
     61 O2    c    0.868590 *  0.731350 *  0.872210 *   0.87073    1.000000    
     62 O2    c    0.631410 *  0.268650 *  0.872210 *   0.87073    1.000000    
     63 O2    c    0.131410 *  0.731350 *  0.127790 *   0.87073    1.000000    
     64 O3    c    0.368590 *  0.268650 *  0.127790 *   1.33043    1.000000    
     65 O2    c    0.653920 *  0.500000 *  0.058200 *   0.87073    1.000000    
     66 O2    c    0.846080 *  0.500000 *  0.058200 *   0.87073    1.000000    
     67 O3    c    0.346080 *  0.500000 *  0.941800 *   1.33043    1.000000    
     68 O2    c    0.153920 *  0.500000 *  0.941800 *   0.87073    1.000000    
     69 O2    c    0.750000 *  0.231060 *  0.027050 *   0.87073    1.000000    
     70 O2    c    0.750000 *  0.768940 *  0.027050 *   0.87073    1.000000    
     71 O3    c    0.250000 *  0.231060 *  0.972950 *   1.33043    1.000000    
     72 O2    c    0.250000 *  0.768940 *  0.972950 *   0.87073    1.000000    
     73 O3    s    0.106570 *  0.174340 *  0.366200 *  -3.33043    1.000000    
     74 O2    s    0.393430 *  0.825660 *  0.366200 *  -2.87073    1.000000    
     75 O2    s    0.893430 *  0.174340 *  0.633800 *  -2.87073    1.000000    
     76 O2    s    0.606570 *  0.825660 *  0.633800 *  -2.87073    1.000000    
     77 O2    s    0.893430 *  0.825660 *  0.633800 *  -2.87073    1.000000    
     78 O2    s    0.606570 *  0.174340 *  0.633800 *  -2.87073    1.000000    
     79 O2    s    0.106570 *  0.825660 *  0.366200 *  -2.87073    1.000000    
     80 O2    s    0.393430 *  0.174340 *  0.366200 *  -2.87073    1.000000    
     81 O2    s    0.000000 *  0.000000 *  0.500000 *  -2.87073    1.000000    
     82 O2    s    0.500000 *  0.000000 *  0.500000 *  -2.87073    1.000000    
     83 O2    s    0.994520 *  0.000000 *  0.250840 *  -2.87073    1.000000    
     84 O3    s    0.505480 *  0.000000 *  0.250840 *  -3.33043    1.000000    
     85 O2    s    0.005480 *  0.000000 *  0.749160 *  -2.87073    1.000000    
     86 O2    s    0.494520 *  0.000000 *  0.749160 *  -2.87073    1.000000    
     87 O3    s    0.610230 *  0.175520 *  0.115390 *  -3.33043    1.000000    
     88 O2    s    0.889770 *  0.824480 *  0.115390 *  -2.87073    1.000000    
     89 O3    s    0.389770 *  0.175520 *  0.884610 *  -3.33043    1.000000    
     90 O2    s    0.110230 *  0.824480 *  0.884610 *  -2.87073    1.000000    
     91 O2    s    0.389770 *  0.824480 *  0.884610 *  -2.87073    1.000000    
     92 O2    s    0.110230 *  0.175520 *  0.884610 *  -2.87073    1.000000    
     93 O3    s    0.610230 *  0.824480 *  0.115390 *  -3.33043    1.000000    
     94 O2    s    0.889770 *  0.175520 *  0.115390 *  -2.87073    1.000000    
     95 O3    s    0.500000 *  0.000000 *  0.000000 *  -3.33043    1.000000    
     96 O2    s    0.000000 *  0.000000 *  0.000000 *  -2.87073    1.000000    
     97 O3    s    0.151750 *  0.500000 *  0.313330 *  -3.33043    1.000000    
     98 O2    s    0.348250 *  0.500000 *  0.313330 *  -2.87073    1.000000    
     99 O2    s    0.848250 *  0.500000 *  0.686670 *  -2.87073    1.000000    
    100 O2    s    0.651750 *  0.500000 *  0.686670 *  -2.87073    1.000000    
    101 O3    s    0.250000 *  0.234950 *  0.285720 *  -3.33043    1.000000    
    102 O2    s    0.250000 *  0.765050 *  0.285720 *  -2.87073    1.000000    
    103 O2    s    0.750000 *  0.234950 *  0.714280 *  -2.87073    1.000000    
    104 O2    s    0.750000 *  0.765050 *  0.714280 *  -2.87073    1.000000    
    105 O3    s    0.131410 *  0.268650 *  0.127790 *  -3.33043    1.000000    
    106 O2    s    0.368590 *  0.731350 *  0.127790 *  -2.87073    1.000000    
    107 O2    s    0.868590 *  0.268650 *  0.872210 *  -2.87073    1.000000    
    108 O2    s    0.631410 *  0.731350 *  0.872210 *  -2.87073    1.000000    
    109 O2    s    0.868590 *  0.731350 *  0.872210 *  -2.87073    1.000000    
    110 O2    s    0.631410 *  0.268650 *  0.872210 *  -2.87073    1.000000    
    111 O2    s    0.131410 *  0.731350 *  0.127790 *  -2.87073    1.000000    
    112 O3    s    0.368590 *  0.268650 *  0.127790 *  -3.33043    1.000000    
    113 O2    s    0.653920 *  0.500000 *  0.058200 *  -2.87073    1.000000    
    114 O2    s    0.846080 *  0.500000 *  0.058200 *  -2.87073    1.000000    
    115 O3    s    0.346080 *  0.500000 *  0.941800 *  -3.33043    1.000000    
    116 O2    s    0.153920 *  0.500000 *  0.941800 *  -2.87073    1.000000    
    117 O2    s    0.750000 *  0.231060 *  0.027050 *  -2.87073    1.000000    
    118 O2    s    0.750000 *  0.768940 *  0.027050 *  -2.87073    1.000000    
    119 O3    s    0.250000 *  0.231060 *  0.972950 *  -3.33043    1.000000    
    120 O2    s    0.250000 *  0.768940 *  0.972950 *  -2.87073    1.000000    
--------------------------------------------------------------------------------



********************************************************************************
*  General input information                                                   *
********************************************************************************

  Species output for all configurations : 

--------------------------------------------------------------------------------
  Species    Type    Atomic    Atomic    Charge       Radii (Angs)     Library
                     Number     Mass       (e)     Cova   Ionic  VDW   Symbol
--------------------------------------------------------------------------------
    Ge       Core       32      72.61   4.000000   1.170  0.000  1.750 Ge       
    Si       Core       14      28.09   4.000000   1.200  0.000  2.100 Si       
    O1       Core        8      16.00   1.733957   0.730  0.000  0.000 O1       
    O2       Core        8      16.00   0.870733   0.730  0.000  1.360 O2       
    O3       Core        8      16.00   1.330431   0.730  0.000  1.360 O3       
    O1       Shell       8       0.00  -3.733957   0.730  0.000  0.000 O1       
    O2       Shell       8       0.00  -2.870733   0.730  0.000  0.000 O2       
    O3       Shell       8       0.00  -3.330431   0.730  0.000  0.000 O3       
--------------------------------------------------------------------------------


  Lattice summation method               =    Ewald          (3-D)
                                         =    Parry          (2-D)
                                         =    Saunders et al (1-D)
  Accuracy factor for lattice sums       =   12.000


  Analytic derivatives to be used

  Time limit = Infinity

  Maximum range for interatomic potentials =    100000.000000 Angstroms

  General interatomic potentials :

--------------------------------------------------------------------------------
Atom  Types   Potential      Parameter       Value         Units   Cutoffs(Ang)
  1     2                                                            Min /  Max 
--------------------------------------------------------------------------------
Si   c O1   s Buckingham    Buckingham A     1315.2478    eV        0.000 16.000
                            Buckingham rho  0.31775900    Ang       
                            Buckingham C     10.141118    eV*Ang^6  
--------------------------------------------------------------------------------
Si   c O2   s Buckingham    Buckingham A     1315.2478    eV        0.000 16.000
                            Buckingham rho  0.31775900    Ang       
                            Buckingham C     10.141118    eV*Ang^6  
--------------------------------------------------------------------------------
Si   c O3   s Buckingham    Buckingham A     1315.2478    eV        0.000 16.000
                            Buckingham rho  0.31775900    Ang       
                            Buckingham C     10.141118    eV*Ang^6  
--------------------------------------------------------------------------------
Ge   c O1   s Buckingham    Buckingham A     1497.3996    eV        0.000 16.000
                            Buckingham rho  0.32564600    Ang       
                            Buckingham C     16.808599    eV*Ang^6  
--------------------------------------------------------------------------------
Ge   c O2   s Buckingham    Buckingham A     1497.3996    eV        0.000 16.000
                            Buckingham rho  0.32564600    Ang       
                            Buckingham C     16.808599    eV*Ang^6  
--------------------------------------------------------------------------------
Ge   c O3   s Buckingham    Buckingham A     1497.3996    eV        0.000 16.000
                            Buckingham rho  0.32564600    Ang       
                            Buckingham C     16.808599    eV*Ang^6  
--------------------------------------------------------------------------------
O1   s O1   s Buckingham    Buckingham A     22764.000    eV        0.000 16.000
                            Buckingham rho  0.14900000    Ang       
                            Buckingham C     10.937044    eV*Ang^6  
--------------------------------------------------------------------------------
O1   s O2   s Buckingham    Buckingham A     22764.000    eV        0.000 16.000
                            Buckingham rho  0.14900000    Ang       
                            Buckingham C     10.937044    eV*Ang^6  
--------------------------------------------------------------------------------
O1   s O3   s Buckingham    Buckingham A     22764.000    eV        0.000 16.000
                            Buckingham rho  0.14900000    Ang       
                            Buckingham C     10.937044    eV*Ang^6  
--------------------------------------------------------------------------------
O2   s O2   s Buckingham    Buckingham A     22764.000    eV        0.000 16.000
                            Buckingham rho  0.14900000    Ang       
                            Buckingham C     10.937044    eV*Ang^6  
--------------------------------------------------------------------------------
O2   s O3   s Buckingham    Buckingham A     22764.000    eV        0.000 16.000
                            Buckingham rho  0.14900000    Ang       
                            Buckingham C     10.937044    eV*Ang^6  
--------------------------------------------------------------------------------
O3   s O3   s Buckingham    Buckingham A     22764.000    eV        0.000 16.000
                            Buckingham rho  0.14900000    Ang       
                            Buckingham C     10.937044    eV*Ang^6  
--------------------------------------------------------------------------------
O1   c O1   s Spring (c-s)  Spring k 2       180.31577    eV*Ang^-2 0.000  0.800
                            Spring k 4       0.0000000    eV*Ang^-4 
--------------------------------------------------------------------------------
O2   c O2   s Spring (c-s)  Spring k 2       75.969800    eV*Ang^-2 0.000  0.800
                            Spring k 4       0.0000000    eV*Ang^-4 
--------------------------------------------------------------------------------
O3   c O3   s Spring (c-s)  Spring k 2       128.14270    eV*Ang^-2 0.000  0.800
                            Spring k 4       0.0000000    eV*Ang^-4 
--------------------------------------------------------------------------------

  General Three-body potentials :

--------------------------------------------------------------------------------
  Atoms       Potential      Parameter       Value         Units   Cutoffs(Ang)
  1 / 2 / 3                                                          Min /  Max 
--------------------------------------------------------------------------------
Si    core    Harmonic      Three-body cnst  1.2614000    eV*rad^-2 0.000  1.900
O1    shel                  Three-body angl  109.47000    degrees   0.000  1.900
O1    shel                  Three-body k4    0.0000000    eV*rad^-4 0.000  3.500
                            Three-body k3    0.0000000    eV*rad^-3 
--------------------------------------------------------------------------------
Si    core    Harmonic      Three-body cnst  1.2614000    eV*rad^-2 0.000  1.900
O1    shel                  Three-body angl  109.47000    degrees   0.000  1.900
õ(1   shel                  Three-body k4    0.0000000    eV*rad^-4 0.000  3.500
                            Three-body k3    0.0000000    eV*rad^-3 
--------------------------------------------------------------------------------
Si    core    Harmonic      Three-body cnst  1.2614000    eV*rad^-2 0.000  1.900
õ(1   shel                  Three-body angl  109.47000    degrees   0.000  1.900
õ(1   shel                  Three-body k4    0.0000000    eV*rad^-4 0.000  3.500
                            Three-body k3    0.0000000    eV*rad^-3 
--------------------------------------------------------------------------------
Si    core    Harmonic      Three-body cnst  1.2614000    eV*rad^-2 0.000  1.900
O1    shel                  Three-body angl  109.47000    degrees   0.000  1.900
O2    shel                  Three-body k4    0.0000000    eV*rad^-4 0.000  3.500
                            Three-body k3    0.0000000    eV*rad^-3 
--------------------------------------------------------------------------------
Si    core    Harmonic      Three-body cnst  1.2614000    eV*rad^-2 0.000  1.900
O1    shel                  Three-body angl  109.47000    degrees   0.000  1.900
õ(2   shel                  Three-body k4    0.0000000    eV*rad^-4 0.000  3.500
                            Three-body k3    0.0000000    eV*rad^-3 
--------------------------------------------------------------------------------
Si    core    Harmonic      Three-body cnst  1.2614000    eV*rad^-2 0.000  1.900
O2    shel                  Three-body angl  109.47000    degrees   0.000  1.900
õ(1   shel                  Three-body k4    0.0000000    eV*rad^-4 0.000  3.500
                            Three-body k3    0.0000000    eV*rad^-3 
--------------------------------------------------------------------------------
Si    core    Harmonic      Three-body cnst  1.2614000    eV*rad^-2 0.000  1.900
õ(1   shel                  Three-body angl  109.47000    degrees   0.000  1.900
õ(2   shel                  Three-body k4    0.0000000    eV*rad^-4 0.000  3.500
                            Three-body k3    0.0000000    eV*rad^-3 
--------------------------------------------------------------------------------
Si    core    Harmonic      Three-body cnst  1.2614000    eV*rad^-2 0.000  1.900
O2    shel                  Three-body angl  109.47000    degrees   0.000  1.900
O2    shel                  Three-body k4    0.0000000    eV*rad^-4 0.000  3.500
                            Three-body k3    0.0000000    eV*rad^-3 
--------------------------------------------------------------------------------
Si    core    Harmonic      Three-body cnst  1.2614000    eV*rad^-2 0.000  1.900
O2    shel                  Three-body angl  109.47000    degrees   0.000  1.900
õ(2   shel                  Three-body k4    0.0000000    eV*rad^-4 0.000  3.500
                            Three-body k3    0.0000000    eV*rad^-3 
--------------------------------------------------------------------------------
Si    core    Harmonic      Three-body cnst  1.2614000    eV*rad^-2 0.000  1.900
õ(2   shel                  Three-body angl  109.47000    degrees   0.000  1.900
õ(2   shel                  Three-body k4    0.0000000    eV*rad^-4 0.000  3.500
                            Three-body k3    0.0000000    eV*rad^-3 
--------------------------------------------------------------------------------

********************************************************************************
*  Output for configuration   1 : c00144.vasp                                  *
********************************************************************************


  Components of energy : 

--------------------------------------------------------------------------------
  Interatomic potentials     =         760.34908818 eV    
  Three-body potentials      =           0.01290686 eV    
  Monopole - monopole (real) =       -2676.00317478 eV    
  Monopole - monopole (recip)=       -1115.35404472 eV    
  Monopole - monopole (total)=       -3791.35721950 eV    
--------------------------------------------------------------------------------
  Total lattice energy       =       -3030.99522446 eV    
--------------------------------------------------------------------------------
  Total lattice energy       =         -292444.7062 kJ/(mole unit cells)
--------------------------------------------------------------------------------


  Number of variables =      363

  Maximum number of calculations  =          1000
  Maximum Hessian update interval =            10
  Maximum step size               =   0.100000000
  Maximum parameter tolerance     =   0.000010000
  Maximum function  tolerance     =   0.000010000
  Maximum gradient  tolerance     =   0.001000000
  Maximum gradient  component     =   0.010000000

  Symmetry not applied to optimisation

  Cell parameters to be optimised using strains

  Newton-Raphson optimiser to be used

  BFGS hessian update to be used

  Lower half triangular hessian to be used

  Minimiser to switch to RFO
  When gradient norm is less than     0.050000

  Dumpfile to be written after every cycle

  Start of bulk optimisation :

  Cycle:      0 Energy:     -3030.995224  Gnorm:      4.413763  CPU:    0.133
  ** Hessian calculated **
  Cycle:      1 Energy:     -3043.182177  Gnorm:      3.617899  CPU:    0.357
  ** Hessian calculated **
  Cycle:      2 Energy:     -3053.975925  Gnorm:      2.602886  CPU:    0.681
  ** Hessian calculated **
  Cycle:      3 Energy:     -3064.688263  Gnorm:      0.597869  CPU:    0.912
  ** Hessian calculated **
  Cycle:      4 Energy:     -3065.523462  Gnorm:      0.508508  CPU:    1.169
  ** Hessian calculated **
  Cycle:      5 Energy:     -3066.238080  Gnorm:      0.294520  CPU:    1.401
  Cycle:      6 Energy:     -3066.502697  Gnorm:      0.189125  CPU:    1.525
  Cycle:      7 Energy:     -3066.722012  Gnorm:      0.143632  CPU:    1.674
  Cycle:      8 Energy:     -3066.923588  Gnorm:      0.113479  CPU:    1.823
  Cycle:      9 Energy:     -3067.052077  Gnorm:      0.096550  CPU:    1.950
  Cycle:     10 Energy:     -3067.137458  Gnorm:      0.080432  CPU:    2.078
  Cycle:     11 Energy:     -3067.190934  Gnorm:      0.070339  CPU:    2.205
  Cycle:     12 Energy:     -3067.227756  Gnorm:      0.062905  CPU:    2.355
  Cycle:     13 Energy:     -3067.259052  Gnorm:      0.064096  CPU:    2.506
  Cycle:     14 Energy:     -3067.294294  Gnorm:      0.069250  CPU:    2.659
  ** Hessian calculated **
  Cycle:     15 Energy:     -3067.319510  Gnorm:      0.067669  CPU:    2.922
  Cycle:     16 Energy:     -3067.357507  Gnorm:      0.065210  CPU:    3.093
  Cycle:     17 Energy:     -3067.400005  Gnorm:      0.062342  CPU:    3.264
  Cycle:     18 Energy:     -3067.429043  Gnorm:      0.060310  CPU:    3.411
  Cycle:     19 Energy:     -3067.442016  Gnorm:      0.059821  CPU:    3.581
  ** Hessian calculated **
  Cycle:     20 Energy:     -3067.623594  Gnorm:      0.046907  CPU:    3.836
  ** Hessian has wrong structure
  ** Imaginary eigenvectors =   2
  Cycle:     21 Energy:     -3067.640835  Gnorm:      0.065273  CPU:    4.162
  ** Hessian has wrong structure
  ** Imaginary eigenvectors =   2
  ** Hessian has wrong structure
  ** Imaginary eigenvectors =   1
  Cycle:     22 Energy:     -3067.676857  Gnorm:      0.071520  CPU:    4.757
  ** Hessian has required structure
  Cycle:     23 Energy:     -3067.892683  Gnorm:      0.057136  CPU:    5.032
  ** Hessian has required structure
  Cycle:     24 Energy:     -3067.999859  Gnorm:      0.036036  CPU:    5.213
  ** Hessian has required structure
  Cycle:     25 Energy:     -3068.040934  Gnorm:      0.029241  CPU:    5.414
  ** Hessian has required structure
  Cycle:     26 Energy:     -3068.077838  Gnorm:      0.036696  CPU:    5.616
  ** Hessian has required structure
  Cycle:     27 Energy:     -3068.086291  Gnorm:      0.037744  CPU:    5.775
  ** Hessian has required structure
  Cycle:     28 Energy:     -3068.100407  Gnorm:      0.021187  CPU:    5.957
  ** Hessian has required structure
  Cycle:     29 Energy:     -3068.109197  Gnorm:      0.021560  CPU:    6.137
  ** Hessian has required structure
  Cycle:     30 Energy:     -3068.116026  Gnorm:      0.016066  CPU:    6.296
  ** Hessian has required structure
  Cycle:     31 Energy:     -3068.123111  Gnorm:      0.019238  CPU:    6.517
  ** Hessian has required structure
  Cycle:     32 Energy:     -3068.129589  Gnorm:      0.018650  CPU:    6.697
  ** Hessian has required structure
  Cycle:     33 Energy:     -3068.142497  Gnorm:      0.024366  CPU:    6.996
  ** Hessian has required structure
  Cycle:     34 Energy:     -3068.156753  Gnorm:      0.032366  CPU:    7.176
  ** Hessian has required structure
  Cycle:     35 Energy:     -3068.161556  Gnorm:      0.026989  CPU:    7.336
  ** Hessian has required structure
  Cycle:     36 Energy:     -3068.177739  Gnorm:      0.025856  CPU:    7.538
  ** Hessian has required structure
  Cycle:     37 Energy:     -3068.191606  Gnorm:      0.025826  CPU:    7.742
  ** Hessian has required structure
  Cycle:     38 Energy:     -3068.205879  Gnorm:      0.016367  CPU:    7.926
  ** Hessian has required structure
  Cycle:     39 Energy:     -3068.216259  Gnorm:      0.017759  CPU:    8.128
  ** Hessian has required structure
  Cycle:     40 Energy:     -3068.221491  Gnorm:      0.012733  CPU:    8.310
  ** Hessian has required structure
  Cycle:     41 Energy:     -3068.225697  Gnorm:      0.012618  CPU:    8.490
  ** Hessian has required structure
  Cycle:     42 Energy:     -3068.228640  Gnorm:      0.010159  CPU:    8.671
  ** Hessian has required structure
  Cycle:     43 Energy:     -3068.231728  Gnorm:      0.005818  CPU:    8.945
  ** Hessian has required structure
  Cycle:     44 Energy:     -3068.232706  Gnorm:      0.003300  CPU:    9.122
  ** Hessian has required structure
  Cycle:     45 Energy:     -3068.233072  Gnorm:      0.001590  CPU:    9.322
  ** Hessian has required structure
  Cycle:     46 Energy:     -3068.233144  Gnorm:      0.000942  CPU:    9.503
  ** Hessian has required structure
  Cycle:     47 Energy:     -3068.233170  Gnorm:      0.000562  CPU:    9.690
  ** Hessian has required structure
  Cycle:     48 Energy:     -3068.233180  Gnorm:      0.000279  CPU:    9.897
  ** Hessian has required structure
  Cycle:     49 Energy:     -3068.233182  Gnorm:      0.000220  CPU:   10.058
  ** Hessian has required structure
  Cycle:     50 Energy:     -3068.233183  Gnorm:      0.000169  CPU:   10.216
  ** Hessian has required structure
  Cycle:     51 Energy:     -3068.233183  Gnorm:      0.000127  CPU:   10.375
  ** Hessian has required structure
  Cycle:     52 Energy:     -3068.233184  Gnorm:      0.000093  CPU:   10.534
  ** Hessian has required structure
  Cycle:     53 Energy:     -3068.233184  Gnorm:      0.000093  CPU:   10.894
  ** Hessian calculated **


  **** Optimisation achieved ****


  Final energy =   -3068.23318381 eV      
  Final Gnorm  =       0.00009296

  Components of energy : 

--------------------------------------------------------------------------------
  Interatomic potentials     =         816.81233571 eV    
  Three-body potentials      =           0.23148712 eV    
  Monopole - monopole (real) =       -2205.50129561 eV    
  Monopole - monopole (recip)=       -1679.77571103 eV    
  Monopole - monopole (total)=       -3885.27700664 eV    
--------------------------------------------------------------------------------
  Total lattice energy       =       -3068.23318381 eV    
--------------------------------------------------------------------------------
  Total lattice energy       =         -296037.6000 kJ/(mole unit cells)
--------------------------------------------------------------------------------

  Final fractional coordinates of atoms :

--------------------------------------------------------------------------------
   No.  Atomic        x           y          z          Radius
        Label       (Frac)      (Frac)     (Frac)       (Angs) 
--------------------------------------------------------------------------------
     1  Ge    c     0.556730    0.000000    0.122130    0.000000
     2  Ge    c     0.151967    0.330729    0.283213    0.000000
     3  Ge    c     0.331819    0.284705    0.970936    0.000000
     4  Si    c     0.048192    0.020871    0.364909    0.000000
     5  Si    c     0.452898    0.001138    0.375749    0.000000
     6  Si    c     0.952552    0.002355    0.623908    0.000000
     7  Si    c     0.552352    0.991673    0.632544    0.000000
     8  Si    c     0.945487    0.004024    0.109984    0.000000
     9  Si    c     0.444366    0.001499    0.879337    0.000000
    10  Si    c     0.058140    0.010070    0.875077    0.000000
    11  Si    c     0.349306    0.697473    0.274266    0.000000
    12  Si    c     0.849672    0.311080    0.711124    0.000000
    13  Si    c     0.656255    0.685034    0.710436    0.000000
    14  Si    c     0.836576    0.714405    0.712784    0.000000
    15  Si    c     0.668231    0.279864    0.712221    0.000000
    16  Si    c     0.168342    0.740284    0.274522    0.000000
    17  Si    c     0.334611    0.289637    0.280689    0.000000
    18  Si    c     0.671746    0.280826    0.013010    0.000000
    19  Si    c     0.833615    0.718150    0.015938    0.000000
    20  Si    c     0.169829    0.725928    0.972268    0.000000
    21  Si    c     0.352448    0.686599    0.974672    0.000000
    22  Si    c     0.149067    0.328924    0.972145    0.000000
    23  Si    c     0.652743    0.681240    0.012073    0.000000
    24  Si    c     0.853128    0.320658    0.012446    0.000000
    25  O3    c     0.082772    0.215492    0.368069    0.000000
    26  O2    c     0.408494    0.814777    0.359194    0.000000
    27  O2    c     0.907602    0.190093    0.626652    0.000000
    28  O2    c     0.597588    0.804196    0.624546    0.000000
    29  O2    c     0.888682    0.847450    0.631210    0.000000
    30  O2    c     0.616282    0.148002    0.625215    0.000000
    31  O2    c     0.123457    0.890803    0.354652    0.000000
    32  O2    c     0.392133    0.162940    0.361937    0.000000
    33  O2    c     0.999022    0.980791    0.491758    0.000000
    34  O2    c     0.489465    0.008024    0.518776    0.000000
    35  O2    c     0.990476    0.986947    0.244313    0.000000
    36  O3    c     0.523928    0.016598    0.277450    0.000000
    37  O2    c     0.015803    0.986909    0.738370    0.000000
    38  O2    c     0.506257    0.008392    0.766031    0.000000
    39  O3    c     0.633400    0.145322    0.107506    0.000000
    40  O2    c     0.875886    0.861521    0.106108    0.000000
    41  O3    c     0.374311    0.139906    0.864173    0.000000
    42  O2    c     0.130844    0.872427    0.880479    0.000000
    43  O2    c     0.408417    0.805494    0.887529    0.000000
    44  O2    c     0.087675    0.210581    0.889970    0.000000
    45  O3    c     0.591090    0.788872    0.094612    0.000000
    46  O2    c     0.911039    0.201897    0.098981    0.000000
    47  O3    c     0.484735    0.059882    0.014313    0.000000
    48  O2    c     0.001438    0.957319    0.991076    0.000000
    49  O3    c     0.132996    0.551749    0.305342    0.000000
    50  O2    c     0.366076    0.490593    0.293117    0.000000
    51  O2    c     0.865396    0.515758    0.682133    0.000000
    52  O2    c     0.639716    0.479251    0.684355    0.000000
    53  O3    c     0.246802    0.283465    0.333869    0.000000
    54  O2    c     0.260262    0.742121    0.314964    0.000000
    55  O2    c     0.759868    0.261697    0.676150    0.000000
    56  O2    c     0.745340    0.732198    0.671921    0.000000
    57  O3    c     0.142940    0.275621    0.121595    0.000000
    58  O2    c     0.363982    0.747323    0.124505    0.000000
    59  O2    c     0.867933    0.273610    0.861979    0.000000
    60  O2    c     0.641668    0.731021    0.860915    0.000000
    61  O2    c     0.844948    0.761538    0.864591    0.000000
    62  O2    c     0.657455    0.228348    0.862397    0.000000
    63  O2    c     0.161745    0.783596    0.121910    0.000000
    64  O3    c     0.334805    0.226371    0.132102    0.000000
    65  O2    c     0.636207    0.475729    0.034781    0.000000
    66  O2    c     0.870465    0.525059    0.043227    0.000000
    67  O3    c     0.376645    0.486977    0.955227    0.000000
    68  O2    c     0.128527    0.536227    0.952818    0.000000
    69  O2    c     0.763889    0.279194    0.046250    0.000000
    70  O2    c     0.742264    0.724841    0.053007    0.000000
    71  O3    c     0.235603    0.295045    0.920836    0.000000
    72  O2    c     0.261152    0.711749    0.934898    0.000000
    73  O3    s     0.084989    0.205393    0.360825    0.000000
    74  O2    s     0.406592    0.821426    0.351473    0.000000
    75  O2    s     0.905983    0.183531    0.635648    0.000000
    76  O2    s     0.599193    0.810963    0.634647    0.000000
    77  O2    s     0.889718    0.849261    0.639681    0.000000
    78  O2    s     0.615262    0.146007    0.635527    0.000000
    79  O2    s     0.120532    0.887831    0.346817    0.000000
    80  O2    s     0.392362    0.159293    0.354495    0.000000
    81  O2    s     0.999304    0.987982    0.492486    0.000000
    82  O2    s     0.492671    0.005318    0.515880    0.000000
    83  O2    s     0.991669    0.992771    0.241948    0.000000
    84  O3    s     0.519429    0.013532    0.274075    0.000000
    85  O2    s     0.013535    0.991389    0.741343    0.000000
    86  O2    s     0.504166    0.005698    0.764299    0.000000
    87  O3    s     0.631230    0.148117    0.098363    0.000000
    88  O2    s     0.878677    0.860893    0.096382    0.000000
    89  O3    s     0.377882    0.137999    0.874571    0.000000
    90  O2    s     0.127489    0.870865    0.890048    0.000000
    91  O2    s     0.406068    0.812997    0.896249    0.000000
    92  O2    s     0.091025    0.201870    0.897114    0.000000
    93  O3    s     0.594840    0.794583    0.088059    0.000000
    94  O2    s     0.908328    0.194106    0.090582    0.000000
    95  O3    s     0.486839    0.049479    0.010472    0.000000
    96  O2    s     0.001492    0.968356    0.991475    0.000000
    97  O3    s     0.138137    0.552862    0.300434    0.000000
    98  O2    s     0.361038    0.492308    0.289787    0.000000
    99  O2    s     0.860622    0.514742    0.688508    0.000000
   100  O2    s     0.644539    0.480253    0.690113    0.000000
   101  O3    s     0.247962    0.287818    0.324586    0.000000
   102  O2    s     0.260134    0.737101    0.306332    0.000000
   103  O2    s     0.759613    0.268959    0.683739    0.000000
   104  O2    s     0.745664    0.725226    0.680398    0.000000
   105  O3    s     0.144269    0.285325    0.120010    0.000000
   106  O2    s     0.361309    0.736053    0.124787    0.000000
   107  O2    s     0.864441    0.282459    0.861880    0.000000
   108  O2    s     0.644375    0.721040    0.860682    0.000000
   109  O2    s     0.842832    0.751896    0.864469    0.000000
   110  O2    s     0.660058    0.239133    0.862166    0.000000
   111  O2    s     0.163331    0.772898    0.122002    0.000000
   112  O3    s     0.334549    0.237229    0.133531    0.000000
   113  O2    s     0.641750    0.477171    0.030017    0.000000
   114  O2    s     0.864766    0.523418    0.037077    0.000000
   115  O3    s     0.370548    0.491658    0.958506    0.000000
   116  O2    s     0.134899    0.534830    0.956825    0.000000
   117  O2    s     0.763834    0.284146    0.038719    0.000000
   118  O2    s     0.742703    0.719465    0.044608    0.000000
   119  O3    s     0.234740    0.297690    0.930316    0.000000
   120  O2    s     0.260937    0.710531    0.943200    0.000000
--------------------------------------------------------------------------------

  Final Cartesian lattice vectors (Angstroms) :

       17.029507    0.046939   -0.072276
        0.019909    7.601133   -0.024452
       -0.044511   -0.030472   10.317661


  Final cell parameters and derivatives :

--------------------------------------------------------------------------------
       a           17.029725 Angstrom     dE/de1(xx)     0.000847 eV/strain
       b            7.601198 Angstrom     dE/de2(yy)     0.002161 eV/strain
       c           10.317802 Angstrom     dE/de3(zz)     0.003315 eV/strain
       alpha       90.354172 Degrees      dE/de4(yz)     0.000080 eV/strain
       beta        90.490808 Degrees      dE/de5(xz)    -0.000011 eV/strain
       gamma       89.691225 Degrees      dE/de6(xy)    -0.001115 eV/strain
--------------------------------------------------------------------------------

  Primitive cell volume =          1335.507870 Angs**3

  Density of cell =      1.959244 g/cm**3

  Non-primitive cell volume =          1335.507870 Angs**3


  Final internal derivatives :

--------------------------------------------------------------------------------
   No.  Atomic          a             b             c           Radius
        Label          (eV)          (eV)          (eV)        (eV/Angs)
--------------------------------------------------------------------------------
      1 Ge    c       0.000000      0.000000      0.000000      0.000000
      2 Ge    c      -0.002997     -0.001494      0.002827      0.000000
      3 Ge    c       0.003709      0.000732     -0.002302      0.000000
      4 Si    c      -0.005024     -0.000939      0.000667      0.000000
      5 Si    c       0.000287     -0.000533     -0.000563      0.000000
      6 Si    c      -0.000085     -0.000127      0.000122      0.000000
      7 Si    c      -0.001676     -0.000064      0.000008      0.000000
      8 Si    c       0.004787     -0.000575      0.003512      0.000000
      9 Si    c       0.001551      0.000435     -0.001538      0.000000
     10 Si    c       0.000095      0.000074      0.003670      0.000000
     11 Si    c       0.000974      0.000788      0.000258      0.000000
     12 Si    c      -0.000099     -0.000081     -0.000412      0.000000
     13 Si    c       0.000503     -0.000032     -0.000153      0.000000
     14 Si    c      -0.000463     -0.000021     -0.000427      0.000000
     15 Si    c       0.000871      0.000010     -0.000469      0.000000
     16 Si    c       0.001970      0.000709      0.000992      0.000000
     17 Si    c       0.000481      0.001187      0.001923      0.000000
     18 Si    c      -0.000309     -0.000170      0.000721      0.000000
     19 Si    c      -0.001579      0.000074      0.000308      0.000000
     20 Si    c       0.002723      0.000010     -0.001385      0.000000
     21 Si    c      -0.000374      0.001081      0.001397      0.000000
     22 Si    c      -0.007323     -0.000992     -0.002754      0.000000
     23 Si    c       0.000235     -0.000012     -0.000129      0.000000
     24 Si    c      -0.000752     -0.000245      0.000082      0.000000
     25 O3    c       0.001570     -0.000659     -0.001210      0.000000
     26 O2    c      -0.000792     -0.000334     -0.000395      0.000000
     27 O2    c       0.000157     -0.000342      0.000185      0.000000
     28 O2    c      -0.001024      0.000626      0.000222      0.000000
     29 O2    c       0.000553      0.000613     -0.000236      0.000000
     30 O2    c      -0.000587     -0.000626      0.000220      0.000000
     31 O2    c      -0.002450      0.000796     -0.000059      0.000000
     32 O2    c      -0.000674      0.000119      0.000340      0.000000
     33 O2    c       0.006699      0.000693     -0.004536      0.000000
     34 O2    c       0.004277      0.000098      0.002049      0.000000
     35 O2    c      -0.002669      0.000692     -0.002899      0.000000
     36 O3    c      -0.001986      0.000072      0.000664      0.000000
     37 O2    c      -0.002808     -0.000067     -0.002279      0.000000
     38 O2    c      -0.004610      0.000145      0.000778      0.000000
     39 O3    c      -0.001465     -0.001293     -0.000668      0.000000
     40 O2    c       0.000942      0.001116     -0.000420      0.000000
     41 O3    c       0.001278     -0.001110      0.001538      0.000000
     42 O2    c      -0.002731      0.000496      0.000320      0.000000
     43 O2    c       0.000265      0.000284     -0.000255      0.000000
     44 O2    c       0.000938     -0.000057      0.000073      0.000000
     45 O3    c      -0.000869      0.000482      0.000180      0.000000
     46 O2    c       0.000922     -0.001127     -0.000558      0.000000
     47 O3    c       0.004234     -0.000124      0.002328      0.000000
     48 O2    c       0.002737      0.001321     -0.001890      0.000000
     49 O3    c      -0.002695      0.001288      0.002092      0.000000
     50 O2    c       0.000454     -0.002715      0.000249      0.000000
     51 O2    c      -0.000218      0.000195      0.000089      0.000000
     52 O2    c       0.000167     -0.000015      0.000111      0.000000
     53 O3    c       0.005614     -0.001246      0.001622      0.000000
     54 O2    c      -0.003496      0.000399      0.000698      0.000000
     55 O2    c      -0.000441      0.000123      0.000215      0.000000
     56 O2    c      -0.000542     -0.000201      0.000254      0.000000
     57 O3    c      -0.006506     -0.001975      0.004097      0.000000
     58 O2    c       0.000057      0.000119     -0.001641      0.000000
     59 O2    c       0.000175     -0.000068     -0.000106      0.000000
     60 O2    c       0.000434     -0.000106      0.000153      0.000000
     61 O2    c      -0.000107      0.000104      0.000149      0.000000
     62 O2    c       0.000230     -0.000119     -0.000074      0.000000
     63 O2    c      -0.001413      0.000868     -0.001188      0.000000
     64 O3    c       0.004191     -0.001881     -0.000690      0.000000
     65 O2    c       0.000285     -0.000434     -0.000005      0.000000
     66 O2    c       0.000048      0.000422     -0.000116      0.000000
     67 O3    c       0.002208     -0.003455     -0.000356      0.000000
     68 O2    c      -0.001964      0.004823     -0.000974      0.000000
     69 O2    c      -0.000780      0.000275     -0.000259      0.000000
     70 O2    c       0.001035     -0.000257     -0.000215      0.000000
     71 O3    c       0.013593     -0.002848     -0.003861      0.000000
     72 O2    c      -0.005534     -0.000281     -0.000378      0.000000
     73 O3    s      -0.004935     -0.001316      0.001706      0.000000
     74 O2    s       0.002052      0.000496      0.000715      0.000000
     75 O2    s       0.000790     -0.000037     -0.000216      0.000000
     76 O2    s      -0.000942      0.000194     -0.000084      0.000000
     77 O2    s       0.000026      0.000024      0.000036      0.000000
     78 O2    s      -0.000953     -0.000127      0.000040      0.000000
     79 O2    s      -0.002369      0.000994      0.000633      0.000000
     80 O2    s       0.000860      0.000161      0.000769      0.000000
     81 O2    s      -0.000606      0.000366     -0.000106      0.000000
     82 O2    s      -0.000112     -0.000100      0.000661      0.000000
     83 O2    s       0.001246      0.000326      0.000506      0.000000
     84 O3    s       0.002185      0.000226     -0.000765      0.000000
     85 O2    s       0.000954     -0.000480      0.000729      0.000000
     86 O2    s       0.001173      0.000132     -0.000357      0.000000
     87 O3    s       0.001269      0.000167      0.000196      0.000000
     88 O2    s       0.002127      0.000189      0.000265      0.000000
     89 O3    s       0.001290      0.000258     -0.001690      0.000000
     90 O2    s       0.000387      0.000092     -0.000283      0.000000
     91 O2    s       0.002886      0.000820     -0.000508      0.000000
     92 O2    s      -0.004794     -0.001753     -0.000879      0.000000
     93 O3    s       0.000271      0.000261     -0.000108      0.000000
     94 O2    s       0.002526     -0.000519      0.000676      0.000000
     95 O3    s      -0.000801     -0.000386     -0.002332      0.000000
     96 O2    s      -0.002031     -0.000242      0.002229      0.000000
     97 O3    s      -0.001969     -0.000177      0.002149      0.000000
     98 O2    s       0.002367      0.000039      0.001793      0.000000
     99 O2    s       0.000163     -0.000030     -0.000022      0.000000
    100 O2    s       0.000095      0.000005      0.000217      0.000000
    101 O3    s      -0.002167     -0.000519      0.000439      0.000000
    102 O2    s      -0.000252      0.001197      0.002390      0.000000
    103 O2    s      -0.000281      0.000007     -0.000193      0.000000
    104 O2    s      -0.000230      0.000004     -0.000295      0.000000
    105 O3    s      -0.002372     -0.001296      0.001332      0.000000
    106 O2    s       0.003970      0.001791     -0.000132      0.000000
    107 O2    s      -0.000153      0.000006      0.000193      0.000000
    108 O2    s      -0.000040      0.000028     -0.000188      0.000000
    109 O2    s       0.000700     -0.000128      0.000188      0.000000
    110 O2    s      -0.000547      0.000256     -0.000063      0.000000
    111 O2    s      -0.000139      0.001207     -0.000611      0.000000
    112 O3    s      -0.001738      0.000145      0.000891      0.000000
    113 O2    s      -0.000595     -0.000279      0.000062      0.000000
    114 O2    s       0.000540      0.000052      0.000206      0.000000
    115 O3    s       0.001912      0.000836     -0.001896      0.000000
    116 O2    s      -0.003823      0.001519     -0.003324      0.000000
    117 O2    s      -0.000274      0.000008      0.000556      0.000000
    118 O2    s      -0.000124      0.000037      0.000219      0.000000
    119 O3    s      -0.000325     -0.000533     -0.002248      0.000000
    120 O2    s      -0.000579      0.000775     -0.001658      0.000000
--------------------------------------------------------------------------------
  Maximum abs         0.013593      0.004823      0.004536      0.000000
--------------------------------------------------------------------------------


  Born effective charge tensors : 

-------------------------------------------------------------------------------
  Atom             x           y             z
-------------------------------------------------------------------------------
    1 Ge    x       4.2497     -0.2185     -0.4291
            y       0.2480      3.9148      0.0275
            z      -0.5099      0.0308      3.9234
-------------------------------------------------------------------------------
    2 Ge    x       3.9482      0.2964     -0.0314
            y       0.3761      4.2118     -0.2483
            z      -0.1750     -0.0678      3.4436
-------------------------------------------------------------------------------
    3 Ge    x       3.9690     -0.4479     -0.1699
            y      -0.0635      4.1646      0.3018
            z      -0.1976      0.0772      3.3587
-------------------------------------------------------------------------------
    4 Si    x       3.5486      0.3747     -0.1856
            y      -0.0371      3.4761      0.0336
            z      -0.5005     -0.1301      3.8879
-------------------------------------------------------------------------------
    5 Si    x       3.7017      0.1169      0.1929
            y      -0.0648      3.2793     -0.0071
            z       0.1187      0.0175      4.0319
-------------------------------------------------------------------------------
    6 Si    x       3.4419     -0.1061     -0.1959
            y       0.1222      3.2407     -0.0116
            z      -0.4419      0.0694      3.7909
-------------------------------------------------------------------------------
    7 Si    x       3.4630     -0.1083      0.0550
            y       0.0989      3.2372     -0.0233
            z       0.6547     -0.0569      3.6421
-------------------------------------------------------------------------------
    8 Si    x       3.4163     -0.1718      0.1881
            y       0.1834      3.2520     -0.0242
            z       0.5027     -0.0424      3.1208
-------------------------------------------------------------------------------
    9 Si    x       3.8449      0.0510      0.0115
            y      -0.2958      3.4285     -0.0246
            z      -0.5486      0.0355      3.2871
-------------------------------------------------------------------------------
   10 Si    x       3.4386      0.1649      0.2412
            y      -0.2246      3.2260      0.0082
            z       0.4746      0.0147      3.1085
-------------------------------------------------------------------------------
   11 Si    x       3.2137      0.2246      0.0604
            y       0.2466      3.3951      0.2025
            z       0.1315      0.0504      2.8318
-------------------------------------------------------------------------------
   12 Si    x       3.1946     -0.2229     -0.0655
            y      -0.2831      3.4392      0.1776
            z      -0.0809      0.0886      2.8085
-------------------------------------------------------------------------------
   13 Si    x       3.1945     -0.2383      0.0841
            y      -0.2771      3.4473     -0.2006
            z       0.1043     -0.0679      2.7712
-------------------------------------------------------------------------------
   14 Si    x       3.1910      0.3034     -0.1080
            y       0.1956      3.4746     -0.1495
            z      -0.1244     -0.0740      2.8048
-------------------------------------------------------------------------------
   15 Si    x       3.2198      0.3144      0.1487
            y       0.1929      3.4641      0.1662
            z       0.1105      0.0437      2.7614
-------------------------------------------------------------------------------
   16 Si    x       3.3160     -0.2671     -0.1264
            y       0.0117      3.7393      0.0578
            z      -0.1420      0.0028      2.8876
-------------------------------------------------------------------------------
   17 Si    x       3.5866     -0.3156     -0.0464
            y      -0.1764      3.6377     -0.1332
            z       0.0817      0.0075      3.1924
-------------------------------------------------------------------------------
   18 Si    x       3.3284      0.4577     -0.3188
            y       0.1919      3.6238     -0.3953
            z      -0.2007     -0.2423      2.9469
-------------------------------------------------------------------------------
   19 Si    x       3.1948      0.3275      0.1671
            y       0.1000      3.4541      0.1773
            z       0.1173      0.0857      2.7322
-------------------------------------------------------------------------------
   20 Si    x       3.2560     -0.3961      0.1722
            y      -0.0610      3.4052     -0.1856
            z       0.1290     -0.0505      2.7256
-------------------------------------------------------------------------------
   21 Si    x       3.3916      0.1921     -0.1500
            y       0.1004      3.7081     -0.1451
            z      -0.2082      0.0153      2.7949
-------------------------------------------------------------------------------
   22 Si    x       3.6485      0.2808     -0.0635
            y       0.2609      3.6024      0.1496
            z       0.0808     -0.0043      3.0676
-------------------------------------------------------------------------------
   23 Si    x       3.5459     -0.3746     -0.3020
            y      -0.4273      3.5039      0.3006
            z      -0.3499      0.1466      2.8939
-------------------------------------------------------------------------------
   24 Si    x       3.2087     -0.2472      0.1472
            y      -0.2766      3.4030     -0.1662
            z       0.1491     -0.0649      2.7110
-------------------------------------------------------------------------------
   25 O3    x      -1.9169     -0.8944      0.3453
            y      -0.8595     -2.5597      0.3464
            z       0.4354      0.3492     -1.5270
-------------------------------------------------------------------------------
   26 O2    x      -1.6589     -0.7000     -0.3774
            y      -0.6358     -1.9807     -0.3874
            z      -0.3795     -0.3774     -1.3977
-------------------------------------------------------------------------------
   27 O2    x      -1.6387      0.6974      0.3158
            y       0.6691     -2.0069     -0.3280
            z       0.3509     -0.3264     -1.3594
-------------------------------------------------------------------------------
   28 O2    x      -1.6545      0.7139     -0.2820
            y       0.6707     -2.0029      0.3019
            z      -0.3611      0.2962     -1.3354
-------------------------------------------------------------------------------
   29 O2    x      -1.7490     -0.7225      0.3301
            y      -0.7709     -1.9616      0.3536
            z       0.3741      0.3333     -1.3433
-------------------------------------------------------------------------------
   30 O2    x      -1.7621     -0.7288     -0.2782
            y      -0.7567     -1.9444     -0.3061
            z      -0.3564     -0.2869     -1.3309
-------------------------------------------------------------------------------
   31 O2    x      -1.8401      0.6507      0.3266
            y       0.7136     -1.8365     -0.3393
            z       0.3679     -0.2997     -1.3683
-------------------------------------------------------------------------------
   32 O2    x      -1.7391      0.7133     -0.3621
            y       0.7162     -1.9729      0.3586
            z      -0.3743      0.3457     -1.3683
-------------------------------------------------------------------------------
   33 O2    x      -1.5967     -0.0357      0.8024
            y      -0.0163     -1.0958      0.0344
            z       1.0238      0.0531     -2.7623
-------------------------------------------------------------------------------
   34 O2    x      -1.6846      0.0245     -0.8162
            y       0.0163     -1.0919      0.0237
            z      -1.0410      0.0389     -2.6554
-------------------------------------------------------------------------------
   35 O2    x      -1.6609      0.0001     -0.7133
            y      -0.0062     -1.1215     -0.0111
            z      -0.7121     -0.0011     -2.2888
-------------------------------------------------------------------------------
   36 O3    x      -2.1188     -0.0152      0.9694
            y      -0.0502     -1.2340      0.0071
            z       0.9451     -0.0079     -2.7507
-------------------------------------------------------------------------------
   37 O2    x      -1.7044     -0.0291     -0.7309
            y       0.0093     -1.1135     -0.0225
            z      -0.7119     -0.0460     -2.2280
-------------------------------------------------------------------------------
   38 O2    x      -1.7711     -0.0188      0.7181
            y      -0.0037     -1.1309      0.0134
            z       0.6908      0.0223     -2.1354
-------------------------------------------------------------------------------
   39 O3    x      -2.0830     -0.9270      0.5864
            y      -0.8996     -2.2935      0.6336
            z       0.5237      0.5746     -1.5872
-------------------------------------------------------------------------------
   40 O2    x      -1.7486     -0.7036     -0.3207
            y      -0.6892     -1.9188     -0.3550
            z      -0.3353     -0.3330     -1.2531
-------------------------------------------------------------------------------
   41 O3    x      -2.1650      0.9319      0.3254
            y       0.9052     -2.2461     -0.3814
            z       0.3583     -0.3190     -1.4233
-------------------------------------------------------------------------------
   42 O2    x      -1.7744      0.7092     -0.3366
            y       0.6609     -1.8870      0.3677
            z      -0.3334      0.3452     -1.2657
-------------------------------------------------------------------------------
   43 O2    x      -1.6699     -0.6297      0.3453
            y      -0.5582     -1.9343      0.3797
            z       0.3946      0.3382     -1.2821
-------------------------------------------------------------------------------
   44 O2    x      -1.6324     -0.6762     -0.3127
            y      -0.5343     -2.0617     -0.3479
            z      -0.3342     -0.3329     -1.2201
-------------------------------------------------------------------------------
   45 O3    x      -2.0696      0.9307      0.5960
            y       0.8187     -2.3797     -0.5830
            z       0.5834     -0.5514     -1.5266
-------------------------------------------------------------------------------
   46 O2    x      -1.6194      0.6707     -0.3399
            y       0.5704     -2.0276      0.3706
            z      -0.3607      0.3592     -1.2503
-------------------------------------------------------------------------------
   47 O3    x      -2.0757      0.0026     -0.7541
            y      -0.0029     -1.3825     -0.0810
            z      -0.4352     -0.0843     -2.1260
-------------------------------------------------------------------------------
   48 O2    x      -1.7881     -0.0088      0.6049
            y      -0.0028     -1.2017      0.0214
            z       0.3365      0.0199     -1.6857
-------------------------------------------------------------------------------
   49 O3    x      -1.3689     -0.1923      0.0873
            y      -0.2535     -3.1567      0.1124
            z       0.1193      0.1056     -1.2056
-------------------------------------------------------------------------------
   50 O2    x      -1.1865     -0.0365     -0.0356
            y      -0.0926     -2.5995      0.0523
            z      -0.0617      0.0705     -1.0728
-------------------------------------------------------------------------------
   51 O2    x      -1.1597      0.0559      0.0593
            y       0.1022     -2.5546     -0.0098
            z       0.0731      0.0127     -1.0686
-------------------------------------------------------------------------------
   52 O2    x      -1.1659      0.0490     -0.0662
            y       0.0939     -2.5638      0.0172
            z      -0.0749     -0.0015     -1.0514
-------------------------------------------------------------------------------
   53 O3    x      -2.9864      0.1331      0.0977
            y       0.0494     -1.3937      0.0945
            z       0.0900      0.0498     -1.2503
-------------------------------------------------------------------------------
   54 O2    x      -2.4243      0.1650     -0.0011
            y       0.0945     -1.2396     -0.0609
            z      -0.0173     -0.0275     -1.0948
-------------------------------------------------------------------------------
   55 O2    x      -2.4070     -0.1046      0.0035
            y      -0.0459     -1.2504     -0.0668
            z       0.0115     -0.0421     -1.0570
-------------------------------------------------------------------------------
   56 O2    x      -2.3825     -0.0982     -0.0060
            y      -0.0469     -1.2495      0.0713
            z      -0.0196      0.0445     -1.0687
-------------------------------------------------------------------------------
   57 O3    x      -1.3202     -0.1452     -0.0525
            y      -0.1310     -1.4665      0.0754
            z      -0.0512      0.0600     -2.6316
-------------------------------------------------------------------------------
   58 O2    x      -1.2318     -0.1322      0.0385
            y      -0.1130     -1.2731      0.0085
            z       0.0508      0.0052     -2.0842
-------------------------------------------------------------------------------
   59 O2    x      -1.2023      0.1302     -0.0419
            y       0.1310     -1.2698     -0.0068
            z      -0.0514     -0.0245     -2.0561
-------------------------------------------------------------------------------
   60 O2    x      -1.2113      0.1291      0.0187
            y       0.1263     -1.2875      0.0224
            z       0.0337      0.0356     -2.0388
-------------------------------------------------------------------------------
   61 O2    x      -1.1656     -0.1252     -0.0199
            y      -0.0842     -1.2877      0.0143
            z       0.0060     -0.0138     -2.0710
-------------------------------------------------------------------------------
   62 O2    x      -1.1924     -0.1396     -0.0104
            y      -0.0960     -1.3090     -0.0309
            z      -0.0161     -0.0101     -2.0269
-------------------------------------------------------------------------------
   63 O2    x      -1.1989      0.1347     -0.0272
            y       0.0660     -1.2724     -0.0577
            z      -0.0169     -0.0498     -2.0801
-------------------------------------------------------------------------------
   64 O3    x      -1.2978      0.1246     -0.0261
            y       0.0597     -1.5009     -0.0744
            z      -0.0120     -0.0862     -2.6320
-------------------------------------------------------------------------------
   65 O2    x      -1.2590      0.0730      0.0928
            y       0.1349     -2.4262      0.0155
            z       0.1097     -0.0002     -1.0415
-------------------------------------------------------------------------------
   66 O2    x      -1.2207      0.0702     -0.0881
            y       0.1562     -2.4932     -0.0177
            z      -0.0999      0.0048     -1.0213
-------------------------------------------------------------------------------
   67 O3    x      -1.4362      0.0181      0.0923
            y      -0.0950     -3.1177     -0.0545
            z       0.1299     -0.0612     -1.1242
-------------------------------------------------------------------------------
   68 O2    x      -1.2780     -0.1100     -0.0668
            y      -0.1994     -2.4976     -0.0105
            z      -0.0998     -0.0323     -1.0153
-------------------------------------------------------------------------------
   69 O2    x      -2.3760     -0.0981     -0.0176
            y      -0.0587     -1.2474      0.0659
            z       0.0037      0.0409     -1.0431
-------------------------------------------------------------------------------
   70 O2    x      -2.3937     -0.1265     -0.0168
            y      -0.0842     -1.2528     -0.0724
            z      -0.0021     -0.0415     -1.0600
-------------------------------------------------------------------------------
   71 O3    x      -3.0333      0.1825      0.0779
            y       0.1286     -1.4055     -0.0958
            z       0.0625     -0.0433     -1.1955
-------------------------------------------------------------------------------
   72 O2    x      -2.4916      0.0980     -0.0091
            y       0.0526     -1.2279      0.0515
            z       0.0081      0.0100     -1.0631
-------------------------------------------------------------------------------




  Elastic Constant Matrix: (Units=GPa)

-------------------------------------------------------------------------------
  Indices      1         2         3         4         5         6    
-------------------------------------------------------------------------------
       1     51.3629   25.3508   28.8168   -1.4495    3.8122    0.3625
       2     25.3508   72.7343   22.6418   -2.1408    3.9578    0.8599
       3     28.8168   22.6418   48.5825   -1.3636    1.1294    0.5626
       4     -1.4495   -2.1408   -1.3636   12.1275    0.8605    1.0500
       5      3.8122    3.9578    1.1294    0.8605   24.3924   -1.0474
       6      0.3625    0.8599    0.5626    1.0500   -1.0474   26.6725
-------------------------------------------------------------------------------


  Elastic Compliance Matrix: (Units=1/GPa)

-------------------------------------------------------------------------------
  Indices      1         2         3         4         5         6    
-------------------------------------------------------------------------------
       1    0.031533 -0.005834 -0.015874  0.001195 -0.003292 -0.000082
       2   -0.005834  0.017353 -0.004522  0.002031 -0.001789 -0.000535
       3   -0.015874 -0.004522  0.032094  0.000818  0.001688 -0.000281
       4    0.001195  0.002031  0.000818  0.083616 -0.003656 -0.003534
       5   -0.003292 -0.001789  0.001688 -0.003656  0.041932  0.001857
       6   -0.000082 -0.000535 -0.000281 -0.003534  0.001857  0.037728
-------------------------------------------------------------------------------

  Mechanical properties :

-------------------------------------------------------------------------------
  Convention :                    Reuss         Voigt         Hill
-------------------------------------------------------------------------------
  Bulk  Modulus (GPa)     =      35.06325      36.25537      35.65931
  Shear Modulus (GPa)     =      16.32792      19.02984      17.67888
-------------------------------------------------------------------------------
  Velocity S-wave (km/s)  =       2.88683       3.11654       3.00388
  Velocity P-wave (km/s)  =       5.38591       5.60850       5.49833
-------------------------------------------------------------------------------
  Compressibility (1/GPa) =    0.02851989
-------------------------------------------------------------------------------
  Stress axis :                     x             y             z
-------------------------------------------------------------------------------
  Youngs Moduli (GPa)     =      31.71236      57.62632      31.15851
-------------------------------------------------------------------------------
  Poissons Ratio (x)      =                     0.33618       0.49462
  Poissons Ratio (y)      =       0.18500                     0.14091
  Poissons Ratio (z)      =       0.50341       0.26060
-------------------------------------------------------------------------------


  Piezoelectric Strain Matrix: (Units=C/m**2)

-------------------------------------------------------------------------------
  Indices      1         2         3         4         5         6    
-------------------------------------------------------------------------------
       x     0.34408   0.98415   0.10766  -0.16902  -0.25879  -0.05906
       y    -0.11016   0.56464  -0.56353  -0.00211  -0.45501   0.33356
       z    -0.42643  -0.46177   0.14559  -0.19936  -0.02013  -0.16512
-------------------------------------------------------------------------------


  Piezoelectric Stress Matrix: (Units=10**-11 C/N)

-------------------------------------------------------------------------------
  Indices      1         2         3         4         5         6    
-------------------------------------------------------------------------------
       x     0.40547   1.47353  -0.70159  -1.04803  -1.30551  -0.26967
       y     0.36462   1.36208  -1.97542   0.08627  -2.00510   1.16124
       z    -1.32223  -0.64644   1.33794  -1.73407   0.20539  -0.53214
-------------------------------------------------------------------------------


  Static dielectric constant tensor : 

-------------------------------------------------------------------------------
              x         y         z
-------------------------------------------------------------------------------
       x     3.99819   0.01222  -0.09386
       y     0.01222   4.12993  -0.04510
       z    -0.09386  -0.04510   3.19671
--------------------------------------------------------------------------------

  High frequency dielectric constant tensor : 

-------------------------------------------------------------------------------
              x         y         z
-------------------------------------------------------------------------------
       x     1.67969   0.00018   0.00063
       y     0.00018   1.68724  -0.00099
       z     0.00063  -0.00099   1.62124
-------------------------------------------------------------------------------

  Static refractive indices : 

-------------------------------------------------------------------------------
    1 =    1.78434      2 =    2.00166      3 =    2.03330
-------------------------------------------------------------------------------

  High frequency refractive indices : 

-------------------------------------------------------------------------------
    1 =    1.27327      2 =    1.29603      3 =    1.29895
-------------------------------------------------------------------------------


  Time to end of optimisation =      11.3709 seconds


  Peak dynamic memory used =       5.01 MB 


  Timing analysis for GULP :

--------------------------------------------------------------------------------
  Task / Subroutine                                          Time (Seconds)
--------------------------------------------------------------------------------
  Calculation of reciprocal space energy and derivatives          0.7357
  Calculation of real space energy and derivatives                7.5276
  Calculation of three-body energy and derivatives                0.6829
  Calculation and manipulation of Hessian matrix                  2.5863
  Calculation of matrix inversion                                 0.0673
  Global summation overhead                                       0.0002
--------------------------------------------------------------------------------
  Total CPU time                                                 11.3709
--------------------------------------------------------------------------------


  Dump file written as c00144.vasp.grs
  CIF file written as c00144.vasp.cif


  Job Finished at 11:51.35  7th October    2025                               

