********************************************************************************
*                       GENERAL UTILITY LATTICE PROGRAM                        *
*                                 Julian Gale                                  *
*                       Curtin Institute for Computation                       *
*                    School of Molecular and Life Sciences                     *
*                    Curtin University, Western Australia                      *
********************************************************************************
* Version = 6.1.2 * Last modified =   3rd November 2022                        *
********************************************************************************
*  optimise     - perform optimisation run                                     *
*  conp         - constant pressure calculation                                *
*  property     - calculate properties for final geometry                      *
********************************************************************************

  Job Started  at 11:59.33  7th October    2025                               

  Number of CPUs =     1


  Total number of configurations input =      1

********************************************************************************
*  Input for Configuration =   1 : c00187.vasp                                 *
********************************************************************************

  Formula = Ge3Si21O48                                                  

  Number of irreducible atoms/shells =     120


  Total number atoms/shells =     120

  Dimensionality = 3               :  Bulk   



  Cartesian lattice vectors (Angstroms) :

       17.182800    0.000000    0.000000
        0.000000    7.513760    0.000000
        0.000000    0.000000   10.447700

  Cell parameters (Angstroms/Degrees):

  a =      17.1828    alpha =  90.0000
  b =       7.5138    beta  =  90.0000
  c =      10.4477    gamma =  90.0000

  Initial cell volume =        1348.875752 Angs**3

  Temperature of configuration =   0.00     K 

  Pressure of configuration =         0.000 GPa 

  Fractional coordinates of asymmetric unit :

--------------------------------------------------------------------------------
   No.  Atomic       x           y          z         Charge      Occupancy
        Label      (Frac)      (Frac)     (Frac)        (e)         (Frac)  
--------------------------------------------------------------------------------
      1 Ge    c    0.556730    0.000000    0.122130     4.00000    1.000000    
      2 Ge    c    0.660660 *  0.294090 *  0.017440 *   4.00000    1.000000    
      3 Ge    c    0.160660 *  0.294090 *  0.982560 *   4.00000    1.000000    
      4 Si    c    0.052090 *  0.000000 *  0.372270 *   4.00000    1.000000    
      5 Si    c    0.447910 *  0.000000 *  0.372270 *   4.00000    1.000000    
      6 Si    c    0.947910 *  0.000000 *  0.627730 *   4.00000    1.000000    
      7 Si    c    0.552090 *  0.000000 *  0.627730 *   4.00000    1.000000    
      8 Si    c    0.943270 *  0.000000 *  0.122130 *   4.00000    1.000000    
      9 Si    c    0.443270 *  0.000000 *  0.877870 *   4.00000    1.000000    
     10 Si    c    0.056730 *  0.000000 *  0.877870 *   4.00000    1.000000    
     11 Si    c    0.160190 *  0.293910 *  0.273440 *   4.00000    1.000000    
     12 Si    c    0.339810 *  0.706090 *  0.273440 *   4.00000    1.000000    
     13 Si    c    0.839810 *  0.293910 *  0.726560 *   4.00000    1.000000    
     14 Si    c    0.660190 *  0.706090 *  0.726560 *   4.00000    1.000000    
     15 Si    c    0.839810 *  0.706090 *  0.726560 *   4.00000    1.000000    
     16 Si    c    0.660190 *  0.293910 *  0.726560 *   4.00000    1.000000    
     17 Si    c    0.160190 *  0.706090 *  0.273440 *   4.00000    1.000000    
     18 Si    c    0.339810 *  0.293910 *  0.273440 *   4.00000    1.000000    
     19 Si    c    0.839340 *  0.705910 *  0.017440 *   4.00000    1.000000    
     20 Si    c    0.339340 *  0.294090 *  0.982560 *   4.00000    1.000000    
     21 Si    c    0.160660 *  0.705910 *  0.982560 *   4.00000    1.000000    
     22 Si    c    0.339340 *  0.705910 *  0.982560 *   4.00000    1.000000    
     23 Si    c    0.660660 *  0.705910 *  0.017440 *   4.00000    1.000000    
     24 Si    c    0.839340 *  0.294090 *  0.017440 *   4.00000    1.000000    
     25 O2    c    0.106570 *  0.174340 *  0.366200 *   0.87073    1.000000    
     26 O2    c    0.393430 *  0.825660 *  0.366200 *   0.87073    1.000000    
     27 O2    c    0.893430 *  0.174340 *  0.633800 *   0.87073    1.000000    
     28 O2    c    0.606570 *  0.825660 *  0.633800 *   0.87073    1.000000    
     29 O2    c    0.893430 *  0.825660 *  0.633800 *   0.87073    1.000000    
     30 O2    c    0.606570 *  0.174340 *  0.633800 *   0.87073    1.000000    
     31 O2    c    0.106570 *  0.825660 *  0.366200 *   0.87073    1.000000    
     32 O2    c    0.393430 *  0.174340 *  0.366200 *   0.87073    1.000000    
     33 O2    c    0.000000 *  0.000000 *  0.500000 *   0.87073    1.000000    
     34 O2    c    0.500000 *  0.000000 *  0.500000 *   0.87073    1.000000    
     35 O2    c    0.994520 *  0.000000 *  0.250840 *   0.87073    1.000000    
     36 O3    c    0.505480 *  0.000000 *  0.250840 *   1.33043    1.000000    
     37 O2    c    0.005480 *  0.000000 *  0.749160 *   0.87073    1.000000    
     38 O2    c    0.494520 *  0.000000 *  0.749160 *   0.87073    1.000000    
     39 O1    c    0.610230 *  0.175520 *  0.115390 *   1.73396    1.000000    
     40 O2    c    0.889770 *  0.824480 *  0.115390 *   0.87073    1.000000    
     41 O2    c    0.389770 *  0.175520 *  0.884610 *   0.87073    1.000000    
     42 O2    c    0.110230 *  0.824480 *  0.884610 *   0.87073    1.000000    
     43 O2    c    0.389770 *  0.824480 *  0.884610 *   0.87073    1.000000    
     44 O3    c    0.110230 *  0.175520 *  0.884610 *   1.33043    1.000000    
     45 O3    c    0.610230 *  0.824480 *  0.115390 *   1.33043    1.000000    
     46 O2    c    0.889770 *  0.175520 *  0.115390 *   0.87073    1.000000    
     47 O3    c    0.500000 *  0.000000 *  0.000000 *   1.33043    1.000000    
     48 O2    c    0.000000 *  0.000000 *  0.000000 *   0.87073    1.000000    
     49 O2    c    0.151750 *  0.500000 *  0.313330 *   0.87073    1.000000    
     50 O2    c    0.348250 *  0.500000 *  0.313330 *   0.87073    1.000000    
     51 O2    c    0.848250 *  0.500000 *  0.686670 *   0.87073    1.000000    
     52 O2    c    0.651750 *  0.500000 *  0.686670 *   0.87073    1.000000    
     53 O2    c    0.250000 *  0.234950 *  0.285720 *   0.87073    1.000000    
     54 O2    c    0.250000 *  0.765050 *  0.285720 *   0.87073    1.000000    
     55 O2    c    0.750000 *  0.234950 *  0.714280 *   0.87073    1.000000    
     56 O2    c    0.750000 *  0.765050 *  0.714280 *   0.87073    1.000000    
     57 O3    c    0.131410 *  0.268650 *  0.127790 *   1.33043    1.000000    
     58 O2    c    0.368590 *  0.731350 *  0.127790 *   0.87073    1.000000    
     59 O2    c    0.868590 *  0.268650 *  0.872210 *   0.87073    1.000000    
     60 O2    c    0.631410 *  0.731350 *  0.872210 *   0.87073    1.000000    
     61 O2    c    0.868590 *  0.731350 *  0.872210 *   0.87073    1.000000    
     62 O3    c    0.631410 *  0.268650 *  0.872210 *   1.33043    1.000000    
     63 O2    c    0.131410 *  0.731350 *  0.127790 *   0.87073    1.000000    
     64 O2    c    0.368590 *  0.268650 *  0.127790 *   0.87073    1.000000    
     65 O3    c    0.653920 *  0.500000 *  0.058200 *   1.33043    1.000000    
     66 O2    c    0.846080 *  0.500000 *  0.058200 *   0.87073    1.000000    
     67 O2    c    0.346080 *  0.500000 *  0.941800 *   0.87073    1.000000    
     68 O3    c    0.153920 *  0.500000 *  0.941800 *   1.33043    1.000000    
     69 O3    c    0.750000 *  0.231060 *  0.027050 *   1.33043    1.000000    
     70 O2    c    0.750000 *  0.768940 *  0.027050 *   0.87073    1.000000    
     71 O3    c    0.250000 *  0.231060 *  0.972950 *   1.33043    1.000000    
     72 O2    c    0.250000 *  0.768940 *  0.972950 *   0.87073    1.000000    
     73 O2    s    0.106570 *  0.174340 *  0.366200 *  -2.87073    1.000000    
     74 O2    s    0.393430 *  0.825660 *  0.366200 *  -2.87073    1.000000    
     75 O2    s    0.893430 *  0.174340 *  0.633800 *  -2.87073    1.000000    
     76 O2    s    0.606570 *  0.825660 *  0.633800 *  -2.87073    1.000000    
     77 O2    s    0.893430 *  0.825660 *  0.633800 *  -2.87073    1.000000    
     78 O2    s    0.606570 *  0.174340 *  0.633800 *  -2.87073    1.000000    
     79 O2    s    0.106570 *  0.825660 *  0.366200 *  -2.87073    1.000000    
     80 O2    s    0.393430 *  0.174340 *  0.366200 *  -2.87073    1.000000    
     81 O2    s    0.000000 *  0.000000 *  0.500000 *  -2.87073    1.000000    
     82 O2    s    0.500000 *  0.000000 *  0.500000 *  -2.87073    1.000000    
     83 O2    s    0.994520 *  0.000000 *  0.250840 *  -2.87073    1.000000    
     84 O3    s    0.505480 *  0.000000 *  0.250840 *  -3.33043    1.000000    
     85 O2    s    0.005480 *  0.000000 *  0.749160 *  -2.87073    1.000000    
     86 O2    s    0.494520 *  0.000000 *  0.749160 *  -2.87073    1.000000    
     87 O1    s    0.610230 *  0.175520 *  0.115390 *  -3.73396    1.000000    
     88 O2    s    0.889770 *  0.824480 *  0.115390 *  -2.87073    1.000000    
     89 O2    s    0.389770 *  0.175520 *  0.884610 *  -2.87073    1.000000    
     90 O2    s    0.110230 *  0.824480 *  0.884610 *  -2.87073    1.000000    
     91 O2    s    0.389770 *  0.824480 *  0.884610 *  -2.87073    1.000000    
     92 O3    s    0.110230 *  0.175520 *  0.884610 *  -3.33043    1.000000    
     93 O3    s    0.610230 *  0.824480 *  0.115390 *  -3.33043    1.000000    
     94 O2    s    0.889770 *  0.175520 *  0.115390 *  -2.87073    1.000000    
     95 O3    s    0.500000 *  0.000000 *  0.000000 *  -3.33043    1.000000    
     96 O2    s    0.000000 *  0.000000 *  0.000000 *  -2.87073    1.000000    
     97 O2    s    0.151750 *  0.500000 *  0.313330 *  -2.87073    1.000000    
     98 O2    s    0.348250 *  0.500000 *  0.313330 *  -2.87073    1.000000    
     99 O2    s    0.848250 *  0.500000 *  0.686670 *  -2.87073    1.000000    
    100 O2    s    0.651750 *  0.500000 *  0.686670 *  -2.87073    1.000000    
    101 O2    s    0.250000 *  0.234950 *  0.285720 *  -2.87073    1.000000    
    102 O2    s    0.250000 *  0.765050 *  0.285720 *  -2.87073    1.000000    
    103 O2    s    0.750000 *  0.234950 *  0.714280 *  -2.87073    1.000000    
    104 O2    s    0.750000 *  0.765050 *  0.714280 *  -2.87073    1.000000    
    105 O3    s    0.131410 *  0.268650 *  0.127790 *  -3.33043    1.000000    
    106 O2    s    0.368590 *  0.731350 *  0.127790 *  -2.87073    1.000000    
    107 O2    s    0.868590 *  0.268650 *  0.872210 *  -2.87073    1.000000    
    108 O2    s    0.631410 *  0.731350 *  0.872210 *  -2.87073    1.000000    
    109 O2    s    0.868590 *  0.731350 *  0.872210 *  -2.87073    1.000000    
    110 O3    s    0.631410 *  0.268650 *  0.872210 *  -3.33043    1.000000    
    111 O2    s    0.131410 *  0.731350 *  0.127790 *  -2.87073    1.000000    
    112 O2    s    0.368590 *  0.268650 *  0.127790 *  -2.87073    1.000000    
    113 O3    s    0.653920 *  0.500000 *  0.058200 *  -3.33043    1.000000    
    114 O2    s    0.846080 *  0.500000 *  0.058200 *  -2.87073    1.000000    
    115 O2    s    0.346080 *  0.500000 *  0.941800 *  -2.87073    1.000000    
    116 O3    s    0.153920 *  0.500000 *  0.941800 *  -3.33043    1.000000    
    117 O3    s    0.750000 *  0.231060 *  0.027050 *  -3.33043    1.000000    
    118 O2    s    0.750000 *  0.768940 *  0.027050 *  -2.87073    1.000000    
    119 O3    s    0.250000 *  0.231060 *  0.972950 *  -3.33043    1.000000    
    120 O2    s    0.250000 *  0.768940 *  0.972950 *  -2.87073    1.000000    
--------------------------------------------------------------------------------



********************************************************************************
*  General input information                                                   *
********************************************************************************

  Species output for all configurations : 

--------------------------------------------------------------------------------
  Species    Type    Atomic    Atomic    Charge       Radii (Angs)     Library
                     Number     Mass       (e)     Cova   Ionic  VDW   Symbol
--------------------------------------------------------------------------------
    Ge       Core       32      72.61   4.000000   1.170  0.000  1.750 Ge       
    Si       Core       14      28.09   4.000000   1.200  0.000  2.100 Si       
    O1       Core        8      16.00   1.733957   0.730  0.000  1.360 O1       
    O2       Core        8      16.00   0.870733   0.730  0.000  1.360 O2       
    O3       Core        8      16.00   1.330431   0.730  0.000  1.360 O3       
    O1       Shell       8       0.00  -3.733957   0.730  0.000  0.000 O1       
    O2       Shell       8       0.00  -2.870733   0.730  0.000  0.000 O2       
    O3       Shell       8       0.00  -3.330431   0.730  0.000  0.000 O3       
--------------------------------------------------------------------------------


  Lattice summation method               =    Ewald          (3-D)
                                         =    Parry          (2-D)
                                         =    Saunders et al (1-D)
  Accuracy factor for lattice sums       =   12.000


  Analytic derivatives to be used

  Time limit = Infinity

  Maximum range for interatomic potentials =    100000.000000 Angstroms

  General interatomic potentials :

--------------------------------------------------------------------------------
Atom  Types   Potential      Parameter       Value         Units   Cutoffs(Ang)
  1     2                                                            Min /  Max 
--------------------------------------------------------------------------------
Si   c O1   s Buckingham    Buckingham A     1315.2478    eV        0.000 16.000
                            Buckingham rho  0.31775900    Ang       
                            Buckingham C     10.141118    eV*Ang^6  
--------------------------------------------------------------------------------
Si   c O2   s Buckingham    Buckingham A     1315.2478    eV        0.000 16.000
                            Buckingham rho  0.31775900    Ang       
                            Buckingham C     10.141118    eV*Ang^6  
--------------------------------------------------------------------------------
Si   c O3   s Buckingham    Buckingham A     1315.2478    eV        0.000 16.000
                            Buckingham rho  0.31775900    Ang       
                            Buckingham C     10.141118    eV*Ang^6  
--------------------------------------------------------------------------------
Ge   c O1   s Buckingham    Buckingham A     1497.3996    eV        0.000 16.000
                            Buckingham rho  0.32564600    Ang       
                            Buckingham C     16.808599    eV*Ang^6  
--------------------------------------------------------------------------------
Ge   c O2   s Buckingham    Buckingham A     1497.3996    eV        0.000 16.000
                            Buckingham rho  0.32564600    Ang       
                            Buckingham C     16.808599    eV*Ang^6  
--------------------------------------------------------------------------------
Ge   c O3   s Buckingham    Buckingham A     1497.3996    eV        0.000 16.000
                            Buckingham rho  0.32564600    Ang       
                            Buckingham C     16.808599    eV*Ang^6  
--------------------------------------------------------------------------------
O1   s O1   s Buckingham    Buckingham A     22764.000    eV        0.000 16.000
                            Buckingham rho  0.14900000    Ang       
                            Buckingham C     10.937044    eV*Ang^6  
--------------------------------------------------------------------------------
O1   s O2   s Buckingham    Buckingham A     22764.000    eV        0.000 16.000
                            Buckingham rho  0.14900000    Ang       
                            Buckingham C     10.937044    eV*Ang^6  
--------------------------------------------------------------------------------
O1   s O3   s Buckingham    Buckingham A     22764.000    eV        0.000 16.000
                            Buckingham rho  0.14900000    Ang       
                            Buckingham C     10.937044    eV*Ang^6  
--------------------------------------------------------------------------------
O2   s O2   s Buckingham    Buckingham A     22764.000    eV        0.000 16.000
                            Buckingham rho  0.14900000    Ang       
                            Buckingham C     10.937044    eV*Ang^6  
--------------------------------------------------------------------------------
O2   s O3   s Buckingham    Buckingham A     22764.000    eV        0.000 16.000
                            Buckingham rho  0.14900000    Ang       
                            Buckingham C     10.937044    eV*Ang^6  
--------------------------------------------------------------------------------
O3   s O3   s Buckingham    Buckingham A     22764.000    eV        0.000 16.000
                            Buckingham rho  0.14900000    Ang       
                            Buckingham C     10.937044    eV*Ang^6  
--------------------------------------------------------------------------------
O1   c O1   s Spring (c-s)  Spring k 2       180.31577    eV*Ang^-2 0.000  0.800
                            Spring k 4       0.0000000    eV*Ang^-4 
--------------------------------------------------------------------------------
O2   c O2   s Spring (c-s)  Spring k 2       75.969800    eV*Ang^-2 0.000  0.800
                            Spring k 4       0.0000000    eV*Ang^-4 
--------------------------------------------------------------------------------
O3   c O3   s Spring (c-s)  Spring k 2       128.14270    eV*Ang^-2 0.000  0.800
                            Spring k 4       0.0000000    eV*Ang^-4 
--------------------------------------------------------------------------------

  General Three-body potentials :

--------------------------------------------------------------------------------
  Atoms       Potential      Parameter       Value         Units   Cutoffs(Ang)
  1 / 2 / 3                                                          Min /  Max 
--------------------------------------------------------------------------------
Si    core    Harmonic      Three-body cnst  1.2614000    eV*rad^-2 0.000  1.900
O1    shel                  Three-body angl  109.47000    degrees   0.000  1.900
O1    shel                  Three-body k4    0.0000000    eV*rad^-4 0.000  3.500
                            Three-body k3    0.0000000    eV*rad^-3 
--------------------------------------------------------------------------------
Si    core    Harmonic      Three-body cnst  1.2614000    eV*rad^-2 0.000  1.900
O1    shel                  Three-body angl  109.47000    degrees   0.000  1.900
õ(1   shel                  Three-body k4    0.0000000    eV*rad^-4 0.000  3.500
                            Three-body k3    0.0000000    eV*rad^-3 
--------------------------------------------------------------------------------
Si    core    Harmonic      Three-body cnst  1.2614000    eV*rad^-2 0.000  1.900
õ(1   shel                  Three-body angl  109.47000    degrees   0.000  1.900
õ(1   shel                  Three-body k4    0.0000000    eV*rad^-4 0.000  3.500
                            Three-body k3    0.0000000    eV*rad^-3 
--------------------------------------------------------------------------------
Si    core    Harmonic      Three-body cnst  1.2614000    eV*rad^-2 0.000  1.900
O1    shel                  Three-body angl  109.47000    degrees   0.000  1.900
O2    shel                  Three-body k4    0.0000000    eV*rad^-4 0.000  3.500
                            Three-body k3    0.0000000    eV*rad^-3 
--------------------------------------------------------------------------------
Si    core    Harmonic      Three-body cnst  1.2614000    eV*rad^-2 0.000  1.900
O1    shel                  Three-body angl  109.47000    degrees   0.000  1.900
õ(2   shel                  Three-body k4    0.0000000    eV*rad^-4 0.000  3.500
                            Three-body k3    0.0000000    eV*rad^-3 
--------------------------------------------------------------------------------
Si    core    Harmonic      Three-body cnst  1.2614000    eV*rad^-2 0.000  1.900
O2    shel                  Three-body angl  109.47000    degrees   0.000  1.900
õ(1   shel                  Three-body k4    0.0000000    eV*rad^-4 0.000  3.500
                            Three-body k3    0.0000000    eV*rad^-3 
--------------------------------------------------------------------------------
Si    core    Harmonic      Three-body cnst  1.2614000    eV*rad^-2 0.000  1.900
õ(1   shel                  Three-body angl  109.47000    degrees   0.000  1.900
õ(2   shel                  Three-body k4    0.0000000    eV*rad^-4 0.000  3.500
                            Three-body k3    0.0000000    eV*rad^-3 
--------------------------------------------------------------------------------
Si    core    Harmonic      Three-body cnst  1.2614000    eV*rad^-2 0.000  1.900
O2    shel                  Three-body angl  109.47000    degrees   0.000  1.900
O2    shel                  Three-body k4    0.0000000    eV*rad^-4 0.000  3.500
                            Three-body k3    0.0000000    eV*rad^-3 
--------------------------------------------------------------------------------
Si    core    Harmonic      Three-body cnst  1.2614000    eV*rad^-2 0.000  1.900
O2    shel                  Three-body angl  109.47000    degrees   0.000  1.900
õ(2   shel                  Three-body k4    0.0000000    eV*rad^-4 0.000  3.500
                            Three-body k3    0.0000000    eV*rad^-3 
--------------------------------------------------------------------------------
Si    core    Harmonic      Three-body cnst  1.2614000    eV*rad^-2 0.000  1.900
õ(2   shel                  Three-body angl  109.47000    degrees   0.000  1.900
õ(2   shel                  Three-body k4    0.0000000    eV*rad^-4 0.000  3.500
                            Three-body k3    0.0000000    eV*rad^-3 
--------------------------------------------------------------------------------

********************************************************************************
*  Output for configuration   1 : c00187.vasp                                  *
********************************************************************************


  Components of energy : 

--------------------------------------------------------------------------------
  Interatomic potentials     =         760.37579294 eV    
  Three-body potentials      =           0.01354156 eV    
  Monopole - monopole (real) =       -2676.00317478 eV    
  Monopole - monopole (recip)=       -1115.35404472 eV    
  Monopole - monopole (total)=       -3791.35721950 eV    
--------------------------------------------------------------------------------
  Total lattice energy       =       -3030.96788500 eV    
--------------------------------------------------------------------------------
  Total lattice energy       =         -292442.0683 kJ/(mole unit cells)
--------------------------------------------------------------------------------


  Number of variables =      363

  Maximum number of calculations  =          1000
  Maximum Hessian update interval =            10
  Maximum step size               =   0.100000000
  Maximum parameter tolerance     =   0.000010000
  Maximum function  tolerance     =   0.000010000
  Maximum gradient  tolerance     =   0.001000000
  Maximum gradient  component     =   0.010000000

  Symmetry not applied to optimisation

  Cell parameters to be optimised using strains

  Newton-Raphson optimiser to be used

  BFGS hessian update to be used

  Lower half triangular hessian to be used

  Minimiser to switch to RFO
  When gradient norm is less than     0.050000

  Dumpfile to be written after every cycle

  Start of bulk optimisation :

  Cycle:      0 Energy:     -3030.967885  Gnorm:      4.409755  CPU:    0.137
  ** Hessian calculated **
  Cycle:      1 Energy:     -3061.726223  Gnorm:      0.963271  CPU:    0.295
  ** Hessian calculated **
  Cycle:      2 Energy:     -3064.247112  Gnorm:      0.541658  CPU:    0.532
  Cycle:      3 Energy:     -3065.047288  Gnorm:      0.345052  CPU:    0.659
  Cycle:      4 Energy:     -3065.660489  Gnorm:      0.264184  CPU:    0.801
  Cycle:      5 Energy:     -3066.210521  Gnorm:      0.205007  CPU:    0.945
  Cycle:      6 Energy:     -3066.630395  Gnorm:      0.168149  CPU:    1.090
  Cycle:      7 Energy:     -3066.814720  Gnorm:      0.117122  CPU:    1.211
  Cycle:      8 Energy:     -3066.913545  Gnorm:      0.086113  CPU:    1.333
  Cycle:      9 Energy:     -3066.957088  Gnorm:      0.061020  CPU:    1.449
  Cycle:     10 Energy:     -3066.990642  Gnorm:      0.052384  CPU:    1.589
  Cycle:     11 Energy:     -3067.019838  Gnorm:      0.051421  CPU:    1.729
  ** Hessian calculated **
  Cycle:     12 Energy:     -3067.030671  Gnorm:      0.050842  CPU:    1.983
  Cycle:     13 Energy:     -3067.047660  Gnorm:      0.049890  CPU:    2.147
  ** Hessian has wrong structure
  ** Imaginary eigenvectors =   3
  Cycle:     14 Energy:     -3067.055039  Gnorm:      0.086177  CPU:    2.513
  ** Hessian has wrong structure
  ** Imaginary eigenvectors =   4
  ** Hessian has wrong structure
  ** Imaginary eigenvectors =   4
  Cycle:     15 Energy:     -3067.100578  Gnorm:      0.085896  CPU:    3.090
  ** Hessian has wrong structure
  ** Imaginary eigenvectors =   4
  Cycle:     16 Energy:     -3067.156805  Gnorm:      0.089216  CPU:    3.456
  ** Hessian has wrong structure
  ** Imaginary eigenvectors =   2
  ** Hessian has wrong structure
  ** Imaginary eigenvectors =   1
  Cycle:     17 Energy:     -3067.176194  Gnorm:      0.091208  CPU:    4.125
  ** Hessian has wrong structure
  ** Imaginary eigenvectors =   1
  ** Hessian has wrong structure
  ** Imaginary eigenvectors =   1
  Cycle:     18 Energy:     -3067.364170  Gnorm:      0.082977  CPU:    4.764
  ** Hessian has wrong structure
  ** Imaginary eigenvectors =   1
  ** Hessian has wrong structure
  ** Imaginary eigenvectors =   1
  Cycle:     19 Energy:     -3067.498273  Gnorm:      0.075210  CPU:    5.268
  ** Hessian has wrong structure
  ** Imaginary eigenvectors =   1
  Cycle:     20 Energy:     -3067.743349  Gnorm:      0.048053  CPU:    5.558
  ** Hessian has wrong structure
  ** Imaginary eigenvectors =   1
  ** Hessian has required structure
  Cycle:     21 Energy:     -3067.874453  Gnorm:      0.048326  CPU:    6.171
  ** Hessian has required structure
  Cycle:     22 Energy:     -3067.945447  Gnorm:      0.040731  CPU:    6.369
  ** Hessian has required structure
  Cycle:     23 Energy:     -3067.977909  Gnorm:      0.039147  CPU:    6.529
  ** Hessian has required structure
  Cycle:     24 Energy:     -3068.012605  Gnorm:      0.019487  CPU:    6.706
  ** Hessian has required structure
  Cycle:     25 Energy:     -3068.029670  Gnorm:      0.029086  CPU:    6.883
  ** Hessian has required structure
  Cycle:     26 Energy:     -3068.037612  Gnorm:      0.019466  CPU:    7.061
  ** Hessian has required structure
  Cycle:     27 Energy:     -3068.045250  Gnorm:      0.013884  CPU:    7.262
  ** Hessian has required structure
  Cycle:     28 Energy:     -3068.048974  Gnorm:      0.010396  CPU:    7.453
  ** Hessian has required structure
  Cycle:     29 Energy:     -3068.051743  Gnorm:      0.008619  CPU:    7.646
  ** Hessian has required structure
  Cycle:     30 Energy:     -3068.052987  Gnorm:      0.006690  CPU:    7.840
  ** Hessian has required structure
  Cycle:     31 Energy:     -3068.054789  Gnorm:      0.005369  CPU:    8.157
  ** Hessian has required structure
  Cycle:     32 Energy:     -3068.056618  Gnorm:      0.004738  CPU:    8.360
  ** Hessian has required structure
  Cycle:     33 Energy:     -3068.058216  Gnorm:      0.005135  CPU:    8.565
  ** Hessian has required structure
  Cycle:     34 Energy:     -3068.059136  Gnorm:      0.004069  CPU:    8.766
  ** Hessian has required structure
  Cycle:     35 Energy:     -3068.059781  Gnorm:      0.006002  CPU:    8.986
  ** Hessian has required structure
  Cycle:     36 Energy:     -3068.060616  Gnorm:      0.004359  CPU:    9.183
  ** Hessian has required structure
  Cycle:     37 Energy:     -3068.061146  Gnorm:      0.003510  CPU:    9.403
  ** Hessian has required structure
  Cycle:     38 Energy:     -3068.061576  Gnorm:      0.001656  CPU:    9.626
  ** Hessian has required structure
  Cycle:     39 Energy:     -3068.061730  Gnorm:      0.001834  CPU:    9.824
  ** Hessian has required structure
  Cycle:     40 Energy:     -3068.061806  Gnorm:      0.000859  CPU:   10.025
  ** Hessian has required structure
  Cycle:     41 Energy:     -3068.061828  Gnorm:      0.000523  CPU:   10.320
  ** Hessian has required structure
  Cycle:     42 Energy:     -3068.061838  Gnorm:      0.000322  CPU:   10.514
  ** Hessian has required structure
  Cycle:     43 Energy:     -3068.061840  Gnorm:      0.000228  CPU:   10.684
  ** Hessian has required structure
  Cycle:     44 Energy:     -3068.061841  Gnorm:      0.000160  CPU:   10.858
  ** Hessian has required structure
  Cycle:     45 Energy:     -3068.061842  Gnorm:      0.000128  CPU:   11.029
  ** Hessian has required structure
  Cycle:     46 Energy:     -3068.061842  Gnorm:      0.000128  CPU:   11.307
  ** Hessian has required structure
  Cycle:     47 Energy:     -3068.061842  Gnorm:      0.000127  CPU:   11.478
  ** Hessian has required structure
  Cycle:     48 Energy:     -3068.061842  Gnorm:      0.000126  CPU:   11.648
  ** Hessian has required structure
  Cycle:     49 Energy:     -3068.061842  Gnorm:      0.000126  CPU:   11.820
  ** Hessian has required structure
  Cycle:     50 Energy:     -3068.061842  Gnorm:      0.000125  CPU:   11.992
  ** Hessian has required structure
  Cycle:     51 Energy:     -3068.061842  Gnorm:      0.000124  CPU:   12.283
  ** Hessian has required structure
  Cycle:     52 Energy:     -3068.061842  Gnorm:      0.000124  CPU:   12.455
  ** Hessian has required structure
  Cycle:     53 Energy:     -3068.061842  Gnorm:      0.000124  CPU:   12.626
  ** Hessian has required structure
  Cycle:     54 Energy:     -3068.061842  Gnorm:      0.000123  CPU:   12.790
  ** Hessian has required structure
  Cycle:     55 Energy:     -3068.061842  Gnorm:      0.000123  CPU:   12.956
  ** Hessian has required structure
  Cycle:     56 Energy:     -3068.061842  Gnorm:      0.000123  CPU:   13.122
  ** Hessian has required structure


  **** Too many failed attempts to optimise ****

  Final energy =   -3068.06184242 eV      
  Final Gnorm  =       0.00012269

  Components of energy : 

--------------------------------------------------------------------------------
  Interatomic potentials     =         817.13807304 eV    
  Three-body potentials      =           0.25313296 eV    
  Monopole - monopole (real) =       -2203.44006720 eV    
  Monopole - monopole (recip)=       -1682.01298121 eV    
  Monopole - monopole (total)=       -3885.45304841 eV    
--------------------------------------------------------------------------------
  Total lattice energy       =       -3068.06184242 eV    
--------------------------------------------------------------------------------
  Total lattice energy       =         -296021.0682 kJ/(mole unit cells)
--------------------------------------------------------------------------------

  Final fractional coordinates of atoms :

--------------------------------------------------------------------------------
   No.  Atomic        x           y          z          Radius
        Label       (Frac)      (Frac)     (Frac)       (Angs) 
--------------------------------------------------------------------------------
     1  Ge    c     0.556730    0.000000    0.122130    0.000000
     2  Ge    c     0.648145    0.326689    0.019676    0.000000
     3  Ge    c     0.167677    0.249672    0.962812    0.000000
     4  Si    c     0.046131    0.974653    0.354905    0.000000
     5  Si    c     0.447461    0.983697    0.368747    0.000000
     6  Si    c     0.946234    0.963757    0.611822    0.000000
     7  Si    c     0.544648    0.983786    0.627612    0.000000
     8  Si    c     0.948782    0.987217    0.096057    0.000000
     9  Si    c     0.444768    0.973853    0.882180    0.000000
    10  Si    c     0.057729    0.968606    0.857620    0.000000
    11  Si    c     0.164017    0.256445    0.268883    0.000000
    12  Si    c     0.330507    0.697703    0.272227    0.000000
    13  Si    c     0.829166    0.256122    0.706769    0.000000
    14  Si    c     0.663792    0.699771    0.706366    0.000000
    15  Si    c     0.845162    0.659008    0.695201    0.000000
    16  Si    c     0.648216    0.292021    0.714819    0.000000
    17  Si    c     0.148909    0.665183    0.266435    0.000000
    18  Si    c     0.344770    0.293464    0.272735    0.000000
    19  Si    c     0.855427    0.668386    0.994020    0.000000
    20  Si    c     0.351934    0.297511    0.970404    0.000000
    21  Si    c     0.147353    0.654396    0.968027    0.000000
    22  Si    c     0.330988    0.694034    0.971912    0.000000
    23  Si    c     0.673305    0.729507    0.005741    0.000000
    24  Si    c     0.833262    0.274182    0.009044    0.000000
    25  O2    c     0.111616    0.128960    0.356835    0.000000
    26  O2    c     0.380425    0.833955    0.357597    0.000000
    27  O2    c     0.880076    0.116025    0.625569    0.000000
    28  O2    c     0.610741    0.828735    0.619120    0.000000
    29  O2    c     0.902819    0.774209    0.606527    0.000000
    30  O2    c     0.587450    0.173653    0.631663    0.000000
    31  O2    c     0.089276    0.783583    0.351443    0.000000
    32  O2    c     0.407415    0.175876    0.350142    0.000000
    33  O2    c     0.994323    0.991047    0.482264    0.000000
    34  O2    c     0.486639    0.975381    0.507598    0.000000
    35  O2    c     0.988587    0.999153    0.234410    0.000000
    36  O3    c     0.516697    0.949748    0.267689    0.000000
    37  O2    c     0.006753    0.974309    0.729750    0.000000
    38  O2    c     0.490110    0.950608    0.749908    0.000000
    39  O1    c     0.581878    0.217270    0.112757    0.000000
    40  O2    c     0.915194    0.790421    0.074093    0.000000
    41  O2    c     0.417370    0.178409    0.898080    0.000000
    42  O2    c     0.091812    0.771880    0.877498    0.000000
    43  O2    c     0.369591    0.842216    0.883387    0.000000
    44  O3    c     0.129082    0.104314    0.852458    0.000000
    45  O3    c     0.644990    0.887220    0.094897    0.000000
    46  O2    c     0.879043    0.131224    0.093864    0.000000
    47  O3    c     0.497805    0.917861    0.000989    0.000000
    48  O2    c     0.009666    0.036560    0.983574    0.000000
    49  O2    c     0.132978    0.457729    0.285713    0.000000
    50  O2    c     0.361582    0.499690    0.300071    0.000000
    51  O2    c     0.861059    0.451199    0.673330    0.000000
    52  O2    c     0.631842    0.500028    0.692821    0.000000
    53  O2    c     0.255582    0.246244    0.313665    0.000000
    54  O2    c     0.238254    0.711696    0.308724    0.000000
    55  O2    c     0.737071    0.243198    0.668494    0.000000
    56  O2    c     0.754615    0.705477    0.659828    0.000000
    57  O3    c     0.158853    0.190846    0.122193    0.000000
    58  O2    c     0.340518    0.746439    0.122350    0.000000
    59  O2    c     0.835561    0.216839    0.858487    0.000000
    60  O2    c     0.659944    0.767545    0.853724    0.000000
    61  O2    c     0.864636    0.711578    0.842898    0.000000
    62  O3    c     0.635582    0.248841    0.863312    0.000000
    63  O2    c     0.134915    0.713385    0.117044    0.000000
    64  O2    c     0.357079    0.250535    0.121920    0.000000
    65  O3    c     0.628859    0.548304    0.037115    0.000000
    66  O2    c     0.876210    0.464671    0.022682    0.000000
    67  O2    c     0.372352    0.503383    0.947873    0.000000
    68  O3    c     0.124286    0.454548    0.945224    0.000000
    69  O3    c     0.745340    0.284770    0.060940    0.000000
    70  O2    c     0.765838    0.703017    0.035447    0.000000
    71  O3    c     0.265731    0.257255    0.919592    0.000000
    72  O2    c     0.239329    0.681923    0.933590    0.000000
    73  O2    s     0.110395    0.126489    0.347029    0.000000
    74  O2    s     0.381993    0.834746    0.349144    0.000000
    75  O2    s     0.881532    0.115222    0.633266    0.000000
    76  O2    s     0.609597    0.830960    0.629464    0.000000
    77  O2    s     0.901151    0.781681    0.616657    0.000000
    78  O2    s     0.589435    0.166203    0.640102    0.000000
    79  O2    s     0.091270    0.790692    0.342519    0.000000
    80  O2    s     0.404697    0.168567    0.343469    0.000000
    81  O2    s     0.994726    0.985922    0.482630    0.000000
    82  O2    s     0.488875    0.977378    0.505396    0.000000
    83  O2    s     0.990513    0.994952    0.231910    0.000000
    84  O3    s     0.513079    0.957617    0.265344    0.000000
    85  O2    s     0.005924    0.972461    0.731555    0.000000
    86  O2    s     0.490990    0.957182    0.751692    0.000000
    87  O1    s     0.585055    0.208923    0.106285    0.000000
    88  O2    s     0.912160    0.797876    0.067465    0.000000
    89  O2    s     0.413145    0.170263    0.904326    0.000000
    90  O2    s     0.094263    0.780028    0.885394    0.000000
    91  O2    s     0.373096    0.839574    0.893091    0.000000
    92  O3    s     0.125036    0.102744    0.862249    0.000000
    93  O3    s     0.641126    0.879350    0.087549    0.000000
    94  O2    s     0.881607    0.131289    0.084573    0.000000
    95  O3    s     0.497162    0.930436    0.998642    0.000000
    96  O2    s     0.008150    0.024417    0.982696    0.000000
    97  O2    s     0.137986    0.458917    0.281857    0.000000
    98  O2    s     0.356481    0.498532    0.294196    0.000000
    99  O2    s     0.855973    0.453125    0.679212    0.000000
   100  O2    s     0.636987    0.499297    0.696560    0.000000
   101  O2    s     0.255535    0.252416    0.304670    0.000000
   102  O2    s     0.238691    0.705180    0.300299    0.000000
   103  O2    s     0.737674    0.249721    0.677389    0.000000
   104  O2    s     0.754568    0.699846    0.668541    0.000000
   105  O3    s     0.160074    0.202066    0.123808    0.000000
   106  O2    s     0.338447    0.735798    0.122459    0.000000
   107  O2    s     0.834634    0.227027    0.857894    0.000000
   108  O2    s     0.661734    0.756537    0.853598    0.000000
   109  O2    s     0.861631    0.701602    0.843279    0.000000
   110  O3    s     0.637802    0.259191    0.860665    0.000000
   111  O2    s     0.137670    0.702336    0.117362    0.000000
   112  O2    s     0.355272    0.259942    0.122307    0.000000
   113  O3    s     0.634713    0.547616    0.032703    0.000000
   114  O2    s     0.869626    0.466900    0.018215    0.000000
   115  O2    s     0.365952    0.501768    0.952735    0.000000
   116  O3    s     0.130225    0.458892    0.949031    0.000000
   117  O3    s     0.746629    0.287054    0.052235    0.000000
   118  O2    s     0.765892    0.701888    0.027513    0.000000
   119  O3    s     0.266783    0.260914    0.928548    0.000000
   120  O2    s     0.239585    0.680234    0.941528    0.000000
--------------------------------------------------------------------------------

  Final Cartesian lattice vectors (Angstroms) :

       16.931813    0.047668   -0.014550
        0.020376    7.577614   -0.039076
       -0.008611   -0.052549   10.375711


  Final cell parameters and derivatives :

--------------------------------------------------------------------------------
       a           16.931887 Angstrom     dE/de1(xx)     0.005728 eV/strain
       b            7.577742 Angstrom     dE/de2(yy)     0.002941 eV/strain
       c           10.375848 Angstrom     dE/de3(zz)     0.007874 eV/strain
       alpha       90.585762 Degrees      dE/de4(yz)     0.000618 eV/strain
       beta        90.097604 Degrees      dE/de5(xz)    -0.000317 eV/strain
       gamma       89.684384 Degrees      dE/de6(xy)    -0.000127 eV/strain
--------------------------------------------------------------------------------

  Primitive cell volume =          1331.186432 Angs**3

  Density of cell =      1.965605 g/cm**3

  Non-primitive cell volume =          1331.186432 Angs**3


  Final internal derivatives :

--------------------------------------------------------------------------------
   No.  Atomic          a             b             c           Radius
        Label          (eV)          (eV)          (eV)        (eV/Angs)
--------------------------------------------------------------------------------
      1 Ge    c       0.000000      0.000000      0.000000      0.000000
      2 Ge    c      -0.001917     -0.000495     -0.000240      0.000000
      3 Ge    c       0.002309      0.000058     -0.000163      0.000000
      4 Si    c      -0.000756      0.000042     -0.000649      0.000000
      5 Si    c      -0.002655      0.000968      0.002297      0.000000
      6 Si    c       0.000542      0.000143     -0.000830      0.000000
      7 Si    c       0.015982      0.001327     -0.002048      0.000000
      8 Si    c       0.001021      0.000081     -0.000398      0.000000
      9 Si    c      -0.010332      0.002071      0.005009      0.000000
     10 Si    c      -0.001166     -0.000102     -0.000203      0.000000
     11 Si    c      -0.000806     -0.000142     -0.000438      0.000000
     12 Si    c      -0.000253     -0.000669     -0.000554      0.000000
     13 Si    c       0.000430      0.000017      0.000464      0.000000
     14 Si    c      -0.001032      0.000192     -0.000842      0.000000
     15 Si    c       0.000273      0.000030      0.000134      0.000000
     16 Si    c      -0.001931      0.000235     -0.000169      0.000000
     17 Si    c      -0.000449     -0.000065     -0.000451      0.000000
     18 Si    c       0.000717      0.000112     -0.000192      0.000000
     19 Si    c       0.000285      0.000188     -0.000149      0.000000
     20 Si    c       0.000388      0.000276     -0.000065      0.000000
     21 Si    c       0.000063     -0.000172      0.000212      0.000000
     22 Si    c       0.001179     -0.000121      0.000073      0.000000
     23 Si    c      -0.001922      0.000223      0.000872      0.000000
     24 Si    c       0.002007     -0.000285     -0.000387      0.000000
     25 O2    c       0.000207      0.000152     -0.000010      0.000000
     26 O2    c      -0.000948     -0.000384      0.000718      0.000000
     27 O2    c      -0.000436      0.000209     -0.000009      0.000000
     28 O2    c       0.001416     -0.001367     -0.000137      0.000000
     29 O2    c      -0.000643     -0.000377      0.000108      0.000000
     30 O2    c      -0.000346      0.000474     -0.000005      0.000000
     31 O2    c       0.000173     -0.000123      0.000120      0.000000
     32 O2    c       0.000358      0.000115     -0.000294      0.000000
     33 O2    c      -0.001615     -0.000091      0.001176      0.000000
     34 O2    c      -0.013315     -0.000645     -0.004473      0.000000
     35 O2    c       0.000912     -0.000057      0.000679      0.000000
     36 O3    c       0.022578     -0.001140     -0.009070      0.000000
     37 O2    c       0.001841     -0.000080      0.001154      0.000000
     38 O2    c      -0.007886     -0.002256     -0.005474      0.000000
     39 O1    c      -0.000763     -0.000526     -0.000924      0.000000
     40 O2    c      -0.001027     -0.000635     -0.000262      0.000000
     41 O2    c       0.000119      0.002919      0.000763      0.000000
     42 O2    c      -0.000091      0.000166      0.000090      0.000000
     43 O2    c      -0.001349     -0.001079      0.000233      0.000000
     44 O3    c       0.000948      0.000540      0.000226      0.000000
     45 O3    c       0.004356     -0.001590     -0.000246      0.000000
     46 O2    c      -0.000752      0.000364     -0.000153      0.000000
     47 O3    c       0.002166     -0.006951     -0.003617      0.000000
     48 O2    c      -0.000313     -0.000121      0.000776      0.000000
     49 O2    c      -0.000093      0.000216     -0.000099      0.000000
     50 O2    c       0.000085      0.000128     -0.000095      0.000000
     51 O2    c       0.000298      0.000145     -0.000153      0.000000
     52 O2    c      -0.000736     -0.001324     -0.000404      0.000000
     53 O2    c       0.001059      0.000014      0.000132      0.000000
     54 O2    c       0.000636     -0.000051      0.000210      0.000000
     55 O2    c      -0.000234     -0.000096     -0.000287      0.000000
     56 O2    c       0.000970      0.000258     -0.000085      0.000000
     57 O3    c      -0.000017      0.000298     -0.000178      0.000000
     58 O2    c      -0.000432     -0.000349     -0.000200      0.000000
     59 O2    c       0.000232      0.000135     -0.000730      0.000000
     60 O2    c       0.001159     -0.000845     -0.000041      0.000000
     61 O2    c       0.000516     -0.000273      0.000406      0.000000
     62 O3    c      -0.000952      0.000443      0.000398      0.000000
     63 O2    c       0.000101     -0.000152     -0.000115      0.000000
     64 O2    c      -0.000018      0.000326     -0.000199      0.000000
     65 O3    c      -0.001500      0.000237      0.000262      0.000000
     66 O2    c       0.001056      0.000693      0.000084      0.000000
     67 O2    c      -0.000401      0.000238      0.000306      0.000000
     68 O3    c       0.000990      0.000133      0.000716      0.000000
     69 O3    c      -0.003857     -0.000388      0.000981      0.000000
     70 O2    c       0.002342      0.000075     -0.000070      0.000000
     71 O3    c      -0.003499      0.000448      0.000571      0.000000
     72 O2    c       0.001559     -0.000049      0.000029      0.000000
     73 O2    s      -0.000051      0.000022     -0.000046      0.000000
     74 O2    s      -0.003061     -0.000188     -0.001062      0.000000
     75 O2    s       0.000297     -0.000025      0.000174      0.000000
     76 O2    s       0.006178     -0.000451      0.001181      0.000000
     77 O2    s       0.000223      0.000009     -0.000173      0.000000
     78 O2    s       0.005116      0.001406     -0.000167      0.000000
     79 O2    s       0.000153     -0.000014     -0.000185      0.000000
     80 O2    s      -0.002111      0.000798      0.000259      0.000000
     81 O2    s       0.000849      0.000043     -0.000396      0.000000
     82 O2    s       0.001035      0.000966     -0.000520      0.000000
     83 O2    s      -0.000198      0.000170     -0.000226      0.000000
     84 O3    s      -0.008145      0.000605      0.004801      0.000000
     85 O2    s      -0.000177     -0.000214     -0.000321      0.000000
     86 O2    s      -0.000349     -0.000588     -0.002044      0.000000
     87 O1    s       0.001186      0.000926      0.001086      0.000000
     88 O2    s      -0.000148      0.000110     -0.000116      0.000000
     89 O2    s      -0.006499      0.001682      0.000616      0.000000
     90 O2    s      -0.000246     -0.000321     -0.000363      0.000000
     91 O2    s      -0.006699     -0.000836     -0.000071      0.000000
     92 O3    s      -0.000158     -0.000055      0.000396      0.000000
     93 O3    s       0.001012      0.000745     -0.000357      0.000000
     94 O2    s       0.000746     -0.000314      0.000090      0.000000
     95 O3    s       0.004698      0.000220      0.005419      0.000000
     96 O2    s       0.000044      0.000111     -0.000591      0.000000
     97 O2    s       0.000239      0.000005     -0.000023      0.000000
     98 O2    s      -0.000783      0.000014     -0.000461      0.000000
     99 O2    s       0.000572     -0.000034     -0.000299      0.000000
    100 O2    s       0.000183      0.000381     -0.000065      0.000000
    101 O2    s      -0.000065     -0.000006     -0.000211      0.000000
    102 O2    s       0.000183     -0.000134     -0.000479      0.000000
    103 O2    s       0.000156     -0.000285      0.000100      0.000000
    104 O2    s      -0.000197      0.000623     -0.000089      0.000000
    105 O3    s       0.000485      0.000102     -0.000393      0.000000
    106 O2    s      -0.000476      0.000232      0.000695      0.000000
    107 O2    s       0.000632     -0.000675     -0.000318      0.000000
    108 O2    s      -0.004744      0.001872      0.000383      0.000000
    109 O2    s       0.001003      0.000258      0.000270      0.000000
    110 O3    s       0.000831     -0.000856     -0.000068      0.000000
    111 O2    s       0.000574     -0.000170     -0.000033      0.000000
    112 O2    s      -0.000147     -0.000386      0.000360      0.000000
    113 O3    s       0.000576      0.000081     -0.000073      0.000000
    114 O2    s       0.000350      0.000369      0.000655      0.000000
    115 O2    s      -0.001343     -0.000129      0.000392      0.000000
    116 O3    s       0.000027     -0.000306      0.000011      0.000000
    117 O3    s       0.001181     -0.000106      0.000121      0.000000
    118 O2    s      -0.000444      0.000004     -0.000073      0.000000
    119 O3    s       0.000904      0.000083      0.000318      0.000000
    120 O2    s      -0.000665     -0.000199      0.000572      0.000000
--------------------------------------------------------------------------------
  Maximum abs         0.022578      0.006951      0.009070      0.000000
--------------------------------------------------------------------------------


  Born effective charge tensors : 

-------------------------------------------------------------------------------
  Atom             x           y             z
-------------------------------------------------------------------------------
    1 Ge    x       4.2072      0.4333     -0.3794
            y      -0.2272      3.9211      0.0573
            z      -0.5955     -0.1113      3.8862
-------------------------------------------------------------------------------
    2 Ge    x       4.1434      0.3453     -0.2484
            y       0.3492      4.1718     -0.2849
            z      -0.3375     -0.0588      3.3824
-------------------------------------------------------------------------------
    3 Ge    x       3.9659      0.4486      0.2231
            y       0.0795      4.1772      0.3080
            z       0.1758      0.0873      3.3671
-------------------------------------------------------------------------------
    4 Si    x       3.4302     -0.1365     -0.1978
            y       0.1096      3.2253     -0.0071
            z      -0.5106      0.0349      3.8362
-------------------------------------------------------------------------------
    5 Si    x       3.6686     -0.1600      0.1996
            y       0.1219      3.2863     -0.0143
            z       0.2097      0.0279      4.0057
-------------------------------------------------------------------------------
    6 Si    x       3.4508      0.1362     -0.2192
            y      -0.1282      3.2244      0.0098
            z      -0.4939     -0.1382      3.8245
-------------------------------------------------------------------------------
    7 Si    x       3.5008      0.1254      0.1366
            y      -0.1111      3.2154      0.0094
            z       0.5607     -0.0485      3.6958
-------------------------------------------------------------------------------
    8 Si    x       3.4165      0.1467      0.2696
            y      -0.2117      3.2388      0.0485
            z       0.4810      0.0306      3.1363
-------------------------------------------------------------------------------
    9 Si    x       3.5891     -0.2499     -0.1032
            y       0.1916      3.2999     -0.0518
            z      -0.4315     -0.0306      3.3098
-------------------------------------------------------------------------------
   10 Si    x       3.6600      0.0161      0.2123
            y       0.3618      3.3753     -0.0604
            z       0.5744      0.0061      3.1782
-------------------------------------------------------------------------------
   11 Si    x       3.2814      0.3410     -0.0766
            y       0.1929      3.5768     -0.0984
            z      -0.1155      0.0494      3.0837
-------------------------------------------------------------------------------
   12 Si    x       3.1834      0.2958      0.1248
            y       0.1497      3.4576      0.1565
            z       0.1414      0.0784      2.8284
-------------------------------------------------------------------------------
   13 Si    x       3.1876     -0.3249     -0.0965
            y      -0.1587      3.4886      0.1528
            z      -0.1404      0.0845      2.8005
-------------------------------------------------------------------------------
   14 Si    x       3.2571     -0.3275      0.1292
            y      -0.1738      3.4453     -0.1834
            z       0.1274     -0.0216      2.7347
-------------------------------------------------------------------------------
   15 Si    x       3.1969      0.2395     -0.0549
            y       0.2799      3.4386     -0.2047
            z      -0.0827     -0.0688      2.8069
-------------------------------------------------------------------------------
   16 Si    x       3.3082      0.2702     -0.0082
            y       0.3160      3.5508      0.1418
            z       0.0704      0.0019      3.0773
-------------------------------------------------------------------------------
   17 Si    x       3.2029     -0.2338     -0.0444
            y      -0.2869      3.4423      0.1979
            z      -0.0980      0.0487      2.8035
-------------------------------------------------------------------------------
   18 Si    x       3.1823     -0.2260      0.0219
            y      -0.2866      3.4346     -0.1663
            z       0.1399     -0.0916      2.8111
-------------------------------------------------------------------------------
   19 Si    x       3.2445      0.2817      0.1457
            y       0.2570      3.3642      0.1620
            z       0.1984      0.0496      2.7291
-------------------------------------------------------------------------------
   20 Si    x       3.5895     -0.1997      0.0394
            y      -0.2153      3.4821      0.1806
            z      -0.1191      0.0706      2.7941
-------------------------------------------------------------------------------
   21 Si    x       3.3708     -0.1804      0.1927
            y      -0.1148      3.7233     -0.1487
            z       0.2201      0.0013      2.8031
-------------------------------------------------------------------------------
   22 Si    x       3.2081      0.3693     -0.1699
            y       0.0435      3.4065     -0.1792
            z      -0.1205     -0.0714      2.7478
-------------------------------------------------------------------------------
   23 Si    x       3.4298     -0.4358     -0.2821
            y       0.0293      3.9120      0.2885
            z      -0.1849      0.1957      2.9748
-------------------------------------------------------------------------------
   24 Si    x       3.5533     -0.3749      0.0126
            y      -0.0941      3.5233     -0.2091
            z       0.0569     -0.0784      2.8233
-------------------------------------------------------------------------------
   25 O2    x      -1.7691     -0.7141      0.2981
            y      -0.7472     -1.9265      0.3101
            z       0.3538      0.2954     -1.3490
-------------------------------------------------------------------------------
   26 O2    x      -1.7330     -0.7013     -0.3809
            y      -0.7318     -1.9433     -0.3791
            z      -0.3969     -0.3698     -1.3756
-------------------------------------------------------------------------------
   27 O2    x      -1.7548      0.7233      0.3400
            y       0.7656     -1.9744     -0.3760
            z       0.3836     -0.3389     -1.3449
-------------------------------------------------------------------------------
   28 O2    x      -1.7947      0.7241     -0.2981
            y       0.7447     -1.9032      0.3041
            z      -0.3480      0.2871     -1.3408
-------------------------------------------------------------------------------
   29 O2    x      -1.6240     -0.6882      0.3117
            y      -0.6405     -1.9865      0.3088
            z       0.3611      0.3227     -1.3795
-------------------------------------------------------------------------------
   30 O2    x      -1.6851     -0.7207     -0.2879
            y      -0.6705     -2.0235     -0.3068
            z      -0.3576     -0.2993     -1.3211
-------------------------------------------------------------------------------
   31 O2    x      -1.6387      0.7041      0.3175
            y       0.6560     -2.0003     -0.3299
            z       0.3602     -0.3155     -1.3635
-------------------------------------------------------------------------------
   32 O2    x      -1.6342      0.6725     -0.3475
            y       0.6332     -2.0183      0.3872
            z      -0.3868      0.3891     -1.3788
-------------------------------------------------------------------------------
   33 O2    x      -1.6469     -0.0265      0.8559
            y      -0.0165     -1.0911      0.0292
            z       1.0898      0.0662     -2.7704
-------------------------------------------------------------------------------
   34 O2    x      -1.6639      0.0021     -0.8363
            y      -0.0054     -1.0876      0.0029
            z      -1.0528      0.0125     -2.7024
-------------------------------------------------------------------------------
   35 O2    x      -1.6374      0.0171     -0.7392
            y       0.0350     -1.1235      0.0219
            z      -0.6811      0.0267     -2.3148
-------------------------------------------------------------------------------
   36 O3    x      -2.0932     -0.0090      0.9119
            y       0.0361     -1.2496      0.0210
            z       0.9450      0.0701     -2.6506
-------------------------------------------------------------------------------
   37 O2    x      -1.7301      0.0085     -0.7365
            y      -0.0012     -1.1105      0.0279
            z      -0.7276      0.0363     -2.2155
-------------------------------------------------------------------------------
   38 O2    x      -1.6993      0.0065      0.7344
            y      -0.0195     -1.1329      0.0193
            z       0.7012      0.0228     -2.2130
-------------------------------------------------------------------------------
   39 O1    x      -2.0754     -0.8832      0.5290
            y      -0.7261     -2.6275      0.5004
            z       0.5524      0.4890     -1.5869
-------------------------------------------------------------------------------
   40 O2    x      -1.6550     -0.6841     -0.3583
            y      -0.5744     -2.0247     -0.3897
            z      -0.3737     -0.3711     -1.2391
-------------------------------------------------------------------------------
   41 O2    x      -1.6313      0.6456      0.3187
            y       0.5087     -2.0462     -0.3589
            z       0.3572     -0.3469     -1.2306
-------------------------------------------------------------------------------
   42 O2    x      -1.6392      0.6181     -0.3753
            y       0.5529     -1.9339      0.4192
            z      -0.3920      0.3608     -1.3046
-------------------------------------------------------------------------------
   43 O2    x      -1.7618     -0.6887      0.3431
            y      -0.6446     -1.8905      0.3680
            z       0.3434      0.3419     -1.2634
-------------------------------------------------------------------------------
   44 O3    x      -2.1716     -0.9315     -0.3749
            y      -0.8979     -2.2264     -0.4311
            z      -0.3597     -0.3637     -1.4685
-------------------------------------------------------------------------------
   45 O3    x      -2.0993      0.8089      0.5404
            y       0.7767     -2.2109     -0.6380
            z       0.4687     -0.5429     -1.5684
-------------------------------------------------------------------------------
   46 O2    x      -1.7456      0.6943     -0.3244
            y       0.6744     -1.9166      0.3431
            z      -0.3340      0.3278     -1.2512
-------------------------------------------------------------------------------
   47 O3    x      -2.0974      0.0169     -0.8105
            y       0.0368     -1.3684      0.0348
            z      -0.4870     -0.0043     -2.0814
-------------------------------------------------------------------------------
   48 O2    x      -1.7382     -0.0009      0.5521
            y      -0.0118     -1.2531     -0.0433
            z       0.2802     -0.0622     -1.7106
-------------------------------------------------------------------------------
   49 O2    x      -1.1832      0.0544      0.0365
            y       0.1196     -2.5909      0.0424
            z       0.0583      0.0511     -1.0492
-------------------------------------------------------------------------------
   50 O2    x      -1.1690      0.0655     -0.0551
            y       0.1157     -2.5517      0.0124
            z      -0.0809      0.0013     -1.0713
-------------------------------------------------------------------------------
   51 O2    x      -1.1664     -0.0588      0.0574
            y      -0.1299     -2.5488      0.0659
            z       0.0773      0.0186     -1.0675
-------------------------------------------------------------------------------
   52 O2    x      -1.2051     -0.0756     -0.0414
            y      -0.1290     -2.5831      0.0130
            z      -0.0628      0.0179     -1.0368
-------------------------------------------------------------------------------
   53 O2    x      -2.3846     -0.1114      0.0143
            y      -0.0677     -1.2609      0.0699
            z      -0.0040      0.0423     -1.0778
-------------------------------------------------------------------------------
   54 O2    x      -2.3967     -0.1043     -0.0266
            y      -0.0412     -1.2457     -0.0697
            z      -0.0076     -0.0400     -1.0733
-------------------------------------------------------------------------------
   55 O2    x      -2.4034      0.1119      0.0056
            y       0.0440     -1.2683     -0.0686
            z      -0.0215     -0.0409     -1.0666
-------------------------------------------------------------------------------
   56 O2    x      -2.4073      0.1271      0.0404
            y       0.0703     -1.2411      0.0678
            z       0.0401      0.0292     -1.0724
-------------------------------------------------------------------------------
   57 O3    x      -1.3175     -0.1569     -0.0438
            y      -0.0935     -1.4902     -0.0925
            z      -0.0059     -0.0935     -2.5939
-------------------------------------------------------------------------------
   58 O2    x      -1.1668     -0.1271      0.0408
            y      -0.0698     -1.2887     -0.0140
            z       0.0187     -0.0003     -2.0871
-------------------------------------------------------------------------------
   59 O2    x      -1.1666      0.1111     -0.1018
            y       0.0554     -1.3121     -0.0462
            z      -0.0620     -0.0339     -2.0820
-------------------------------------------------------------------------------
   60 O2    x      -1.2196      0.1364     -0.0427
            y       0.0733     -1.3006     -0.0542
            z      -0.0678     -0.0748     -2.0297
-------------------------------------------------------------------------------
   61 O2    x      -1.2052     -0.1354     -0.0770
            y      -0.1271     -1.2741     -0.0192
            z      -0.0934     -0.0057     -2.0654
-------------------------------------------------------------------------------
   62 O3    x      -1.3581     -0.1585      0.0662
            y      -0.1434     -1.4650      0.0031
            z       0.0694     -0.0451     -2.5797
-------------------------------------------------------------------------------
   63 O2    x      -1.2178      0.1321     -0.0391
            y       0.1196     -1.2771      0.0150
            z      -0.0424      0.0049     -2.0670
-------------------------------------------------------------------------------
   64 O2    x      -1.2020      0.1154      0.0874
            y       0.1155     -1.2907      0.0056
            z       0.0983      0.0247     -2.0974
-------------------------------------------------------------------------------
   65 O3    x      -1.5019     -0.2243      0.1383
            y      -0.3086     -2.9646      0.1230
            z       0.1660      0.1352     -1.1692
-------------------------------------------------------------------------------
   66 O2    x      -1.2490     -0.0652     -0.0757
            y      -0.1495     -2.4742      0.0745
            z      -0.1027      0.0429     -1.0231
-------------------------------------------------------------------------------
   67 O2    x      -1.2601      0.1077      0.0806
            y       0.1940     -2.4691      0.0157
            z       0.1102     -0.0085     -1.0287
-------------------------------------------------------------------------------
   68 O3    x      -1.4146     -0.0143     -0.1078
            y       0.0917     -3.1370     -0.0662
            z      -0.1306     -0.0546     -1.1260
-------------------------------------------------------------------------------
   69 O3    x      -3.0374      0.2082      0.1566
            y       0.1419     -1.3883      0.0702
            z       0.1311      0.0190     -1.2231
-------------------------------------------------------------------------------
   70 O2    x      -2.3888      0.1845      0.0166
            y       0.1179     -1.2578     -0.0508
            z       0.0292     -0.0311     -1.0616
-------------------------------------------------------------------------------
   71 O3    x      -3.0243     -0.2142     -0.1216
            y      -0.1653     -1.4003     -0.1015
            z      -0.1186     -0.0566     -1.2089
-------------------------------------------------------------------------------
   72 O2    x      -2.4635     -0.1018     -0.0184
            y      -0.0400     -1.2320      0.0545
            z      -0.0243      0.0167     -1.0580
-------------------------------------------------------------------------------




  Elastic Constant Matrix: (Units=GPa)

-------------------------------------------------------------------------------
  Indices      1         2         3         4         5         6    
-------------------------------------------------------------------------------
       1     51.8751   26.3670   29.2421   -2.2986    1.7584    0.2495
       2     26.3670   76.0017   20.9796   -2.0877    2.6355    0.8094
       3     29.2421   20.9796   47.2923   -1.5506    0.2216    1.6074
       4     -2.2986   -2.0877   -1.5506   12.7183    0.5551   -0.6916
       5      1.7584    2.6355    0.2216    0.5551   24.0460   -2.5276
       6      0.2495    0.8094    1.6074   -0.6916   -2.5276   29.2542
-------------------------------------------------------------------------------


  Elastic Compliance Matrix: (Units=1/GPa)

-------------------------------------------------------------------------------
  Indices      1         2         3         4         5         6    
-------------------------------------------------------------------------------
       1    0.032319 -0.006376 -0.017082  0.002819 -0.001490  0.000777
       2   -0.006376  0.016351 -0.003256  0.001177 -0.001355 -0.000308
       3   -0.017082 -0.003256  0.033206  0.000297  0.001137 -0.001484
       4    0.002819  0.001177  0.000297  0.079542 -0.002002  0.001634
       5   -0.001490 -0.001355  0.001137 -0.002002  0.042258  0.003592
       6    0.000777 -0.000308 -0.001484  0.001634  0.003592  0.034616
-------------------------------------------------------------------------------

  Mechanical properties :

-------------------------------------------------------------------------------
  Convention :                    Reuss         Voigt         Hill
-------------------------------------------------------------------------------
  Bulk  Modulus (GPa)     =      35.15100      36.48295      35.81698
  Shear Modulus (GPa)     =      16.60018      19.77573      18.18795
-------------------------------------------------------------------------------
  Velocity S-wave (km/s)  =       2.90608       3.17189       3.04189
  Velocity P-wave (km/s)  =       5.39847       5.65466       5.52805
-------------------------------------------------------------------------------
  Compressibility (1/GPa) =    0.02844869
-------------------------------------------------------------------------------
  Stress axis :                     x             y             z
-------------------------------------------------------------------------------
  Youngs Moduli (GPa)     =      30.94178      61.15861      30.11464
-------------------------------------------------------------------------------
  Poissons Ratio (x)      =                     0.38995       0.51442
  Poissons Ratio (y)      =       0.19729                     0.09804
  Poissons Ratio (z)      =       0.52855       0.19911
-------------------------------------------------------------------------------


  Piezoelectric Strain Matrix: (Units=C/m**2)

-------------------------------------------------------------------------------
  Indices      1         2         3         4         5         6    
-------------------------------------------------------------------------------
       x     0.24310   0.30045  -0.63193   0.39941  -0.14195   0.05784
       y    -0.03343   1.06911   0.79737  -0.18413   0.76786   0.16328
       z    -0.14557  -0.48104   1.09681  -0.07731   0.05922   0.15585
-------------------------------------------------------------------------------


  Piezoelectric Stress Matrix: (Units=10**-11 C/N)

-------------------------------------------------------------------------------
  Indices      1         2         3         4         5         6    
-------------------------------------------------------------------------------
       x     1.81182   0.60646  -2.62438   3.30002  -0.80785   0.31789
       y    -2.30544   1.37903   2.41444  -1.45158   3.29104   0.65703
       z    -2.05584  -1.07275   4.02872  -0.66642   0.53332   0.38891
-------------------------------------------------------------------------------


  Static dielectric constant tensor : 

-------------------------------------------------------------------------------
              x         y         z
-------------------------------------------------------------------------------
       x     4.03625   0.05741  -0.05287
       y     0.05741   4.21341  -0.00188
       z    -0.05287  -0.00188   3.22202
--------------------------------------------------------------------------------

  High frequency dielectric constant tensor : 

-------------------------------------------------------------------------------
              x         y         z
-------------------------------------------------------------------------------
       x     1.68187  -0.00020   0.00129
       y    -0.00020   1.69008  -0.00053
       z     0.00129  -0.00053   1.62423
-------------------------------------------------------------------------------

  Static refractive indices : 

-------------------------------------------------------------------------------
    1 =    1.79405      2 =    2.00559      3 =    2.05686
-------------------------------------------------------------------------------

  High frequency refractive indices : 

-------------------------------------------------------------------------------
    1 =    1.27444      2 =    1.29688      3 =    1.30003
-------------------------------------------------------------------------------


  Time to end of optimisation =      13.5037 seconds


  Peak dynamic memory used =       5.01 MB 


  Timing analysis for GULP :

--------------------------------------------------------------------------------
  Task / Subroutine                                          Time (Seconds)
--------------------------------------------------------------------------------
  Calculation of reciprocal space energy and derivatives          0.8202
  Calculation of real space energy and derivatives                8.2205
  Calculation of three-body energy and derivatives                0.8015
  Calculation and manipulation of Hessian matrix                  4.6357
  Calculation of matrix inversion                                 0.0265
  Global summation overhead                                       0.0002
--------------------------------------------------------------------------------
  Total CPU time                                                 13.5037
--------------------------------------------------------------------------------


  Dump file written as c00187.vasp.grs
  CIF file written as c00187.vasp.cif


  Job Finished at 11:59.46  7th October    2025                               

