********************************************************************************
*                       GENERAL UTILITY LATTICE PROGRAM                        *
*                                 Julian Gale                                  *
*                       Curtin Institute for Computation                       *
*                    School of Molecular and Life Sciences                     *
*                    Curtin University, Western Australia                      *
********************************************************************************
* Version = 6.1.2 * Last modified =   3rd November 2022                        *
********************************************************************************
*  optimise     - perform optimisation run                                     *
*  conp         - constant pressure calculation                                *
*  property     - calculate properties for final geometry                      *
********************************************************************************

  Job Started  at 11:50.32  7th October    2025                               

  Number of CPUs =     1


  Total number of configurations input =      1

********************************************************************************
*  Input for Configuration =   1 : c00139.vasp                                 *
********************************************************************************

  Formula = Ge3Si21O48                                                  

  Number of irreducible atoms/shells =     120


  Total number atoms/shells =     120

  Dimensionality = 3               :  Bulk   



  Cartesian lattice vectors (Angstroms) :

       17.182800    0.000000    0.000000
        0.000000    7.513760    0.000000
        0.000000    0.000000   10.447700

  Cell parameters (Angstroms/Degrees):

  a =      17.1828    alpha =  90.0000
  b =       7.5138    beta  =  90.0000
  c =      10.4477    gamma =  90.0000

  Initial cell volume =        1348.875752 Angs**3

  Temperature of configuration =   0.00     K 

  Pressure of configuration =         0.000 GPa 

  Fractional coordinates of asymmetric unit :

--------------------------------------------------------------------------------
   No.  Atomic       x           y          z         Charge      Occupancy
        Label      (Frac)      (Frac)     (Frac)        (e)         (Frac)  
--------------------------------------------------------------------------------
      1 Ge    c    0.556730    0.000000    0.122130     4.00000    1.000000    
      2 Ge    c    0.160190 *  0.293910 *  0.273440 *   4.00000    1.000000    
      3 Ge    c    0.660190 *  0.293910 *  0.726560 *   4.00000    1.000000    
      4 Si    c    0.052090 *  0.000000 *  0.372270 *   4.00000    1.000000    
      5 Si    c    0.447910 *  0.000000 *  0.372270 *   4.00000    1.000000    
      6 Si    c    0.947910 *  0.000000 *  0.627730 *   4.00000    1.000000    
      7 Si    c    0.552090 *  0.000000 *  0.627730 *   4.00000    1.000000    
      8 Si    c    0.943270 *  0.000000 *  0.122130 *   4.00000    1.000000    
      9 Si    c    0.443270 *  0.000000 *  0.877870 *   4.00000    1.000000    
     10 Si    c    0.056730 *  0.000000 *  0.877870 *   4.00000    1.000000    
     11 Si    c    0.339810 *  0.706090 *  0.273440 *   4.00000    1.000000    
     12 Si    c    0.839810 *  0.293910 *  0.726560 *   4.00000    1.000000    
     13 Si    c    0.660190 *  0.706090 *  0.726560 *   4.00000    1.000000    
     14 Si    c    0.839810 *  0.706090 *  0.726560 *   4.00000    1.000000    
     15 Si    c    0.160190 *  0.706090 *  0.273440 *   4.00000    1.000000    
     16 Si    c    0.339810 *  0.293910 *  0.273440 *   4.00000    1.000000    
     17 Si    c    0.660660 *  0.294090 *  0.017440 *   4.00000    1.000000    
     18 Si    c    0.839340 *  0.705910 *  0.017440 *   4.00000    1.000000    
     19 Si    c    0.339340 *  0.294090 *  0.982560 *   4.00000    1.000000    
     20 Si    c    0.160660 *  0.705910 *  0.982560 *   4.00000    1.000000    
     21 Si    c    0.339340 *  0.705910 *  0.982560 *   4.00000    1.000000    
     22 Si    c    0.160660 *  0.294090 *  0.982560 *   4.00000    1.000000    
     23 Si    c    0.660660 *  0.705910 *  0.017440 *   4.00000    1.000000    
     24 Si    c    0.839340 *  0.294090 *  0.017440 *   4.00000    1.000000    
     25 O3    c    0.106570 *  0.174340 *  0.366200 *   1.33043    1.000000    
     26 O2    c    0.393430 *  0.825660 *  0.366200 *   0.87073    1.000000    
     27 O2    c    0.893430 *  0.174340 *  0.633800 *   0.87073    1.000000    
     28 O2    c    0.606570 *  0.825660 *  0.633800 *   0.87073    1.000000    
     29 O2    c    0.893430 *  0.825660 *  0.633800 *   0.87073    1.000000    
     30 O3    c    0.606570 *  0.174340 *  0.633800 *   1.33043    1.000000    
     31 O2    c    0.106570 *  0.825660 *  0.366200 *   0.87073    1.000000    
     32 O2    c    0.393430 *  0.174340 *  0.366200 *   0.87073    1.000000    
     33 O2    c    0.000000 *  0.000000 *  0.500000 *   0.87073    1.000000    
     34 O2    c    0.500000 *  0.000000 *  0.500000 *   0.87073    1.000000    
     35 O2    c    0.994520 *  0.000000 *  0.250840 *   0.87073    1.000000    
     36 O3    c    0.505480 *  0.000000 *  0.250840 *   1.33043    1.000000    
     37 O2    c    0.005480 *  0.000000 *  0.749160 *   0.87073    1.000000    
     38 O2    c    0.494520 *  0.000000 *  0.749160 *   0.87073    1.000000    
     39 O3    c    0.610230 *  0.175520 *  0.115390 *   1.33043    1.000000    
     40 O2    c    0.889770 *  0.824480 *  0.115390 *   0.87073    1.000000    
     41 O2    c    0.389770 *  0.175520 *  0.884610 *   0.87073    1.000000    
     42 O2    c    0.110230 *  0.824480 *  0.884610 *   0.87073    1.000000    
     43 O2    c    0.389770 *  0.824480 *  0.884610 *   0.87073    1.000000    
     44 O2    c    0.110230 *  0.175520 *  0.884610 *   0.87073    1.000000    
     45 O3    c    0.610230 *  0.824480 *  0.115390 *   1.33043    1.000000    
     46 O2    c    0.889770 *  0.175520 *  0.115390 *   0.87073    1.000000    
     47 O3    c    0.500000 *  0.000000 *  0.000000 *   1.33043    1.000000    
     48 O2    c    0.000000 *  0.000000 *  0.000000 *   0.87073    1.000000    
     49 O3    c    0.151750 *  0.500000 *  0.313330 *   1.33043    1.000000    
     50 O2    c    0.348250 *  0.500000 *  0.313330 *   0.87073    1.000000    
     51 O2    c    0.848250 *  0.500000 *  0.686670 *   0.87073    1.000000    
     52 O3    c    0.651750 *  0.500000 *  0.686670 *   1.33043    1.000000    
     53 O3    c    0.250000 *  0.234950 *  0.285720 *   1.33043    1.000000    
     54 O2    c    0.250000 *  0.765050 *  0.285720 *   0.87073    1.000000    
     55 O3    c    0.750000 *  0.234950 *  0.714280 *   1.33043    1.000000    
     56 O2    c    0.750000 *  0.765050 *  0.714280 *   0.87073    1.000000    
     57 O3    c    0.131410 *  0.268650 *  0.127790 *   1.33043    1.000000    
     58 O2    c    0.368590 *  0.731350 *  0.127790 *   0.87073    1.000000    
     59 O2    c    0.868590 *  0.268650 *  0.872210 *   0.87073    1.000000    
     60 O2    c    0.631410 *  0.731350 *  0.872210 *   0.87073    1.000000    
     61 O2    c    0.868590 *  0.731350 *  0.872210 *   0.87073    1.000000    
     62 O3    c    0.631410 *  0.268650 *  0.872210 *   1.33043    1.000000    
     63 O2    c    0.131410 *  0.731350 *  0.127790 *   0.87073    1.000000    
     64 O2    c    0.368590 *  0.268650 *  0.127790 *   0.87073    1.000000    
     65 O2    c    0.653920 *  0.500000 *  0.058200 *   0.87073    1.000000    
     66 O2    c    0.846080 *  0.500000 *  0.058200 *   0.87073    1.000000    
     67 O2    c    0.346080 *  0.500000 *  0.941800 *   0.87073    1.000000    
     68 O2    c    0.153920 *  0.500000 *  0.941800 *   0.87073    1.000000    
     69 O2    c    0.750000 *  0.231060 *  0.027050 *   0.87073    1.000000    
     70 O2    c    0.750000 *  0.768940 *  0.027050 *   0.87073    1.000000    
     71 O2    c    0.250000 *  0.231060 *  0.972950 *   0.87073    1.000000    
     72 O2    c    0.250000 *  0.768940 *  0.972950 *   0.87073    1.000000    
     73 O3    s    0.106570 *  0.174340 *  0.366200 *  -3.33043    1.000000    
     74 O2    s    0.393430 *  0.825660 *  0.366200 *  -2.87073    1.000000    
     75 O2    s    0.893430 *  0.174340 *  0.633800 *  -2.87073    1.000000    
     76 O2    s    0.606570 *  0.825660 *  0.633800 *  -2.87073    1.000000    
     77 O2    s    0.893430 *  0.825660 *  0.633800 *  -2.87073    1.000000    
     78 O3    s    0.606570 *  0.174340 *  0.633800 *  -3.33043    1.000000    
     79 O2    s    0.106570 *  0.825660 *  0.366200 *  -2.87073    1.000000    
     80 O2    s    0.393430 *  0.174340 *  0.366200 *  -2.87073    1.000000    
     81 O2    s    0.000000 *  0.000000 *  0.500000 *  -2.87073    1.000000    
     82 O2    s    0.500000 *  0.000000 *  0.500000 *  -2.87073    1.000000    
     83 O2    s    0.994520 *  0.000000 *  0.250840 *  -2.87073    1.000000    
     84 O3    s    0.505480 *  0.000000 *  0.250840 *  -3.33043    1.000000    
     85 O2    s    0.005480 *  0.000000 *  0.749160 *  -2.87073    1.000000    
     86 O2    s    0.494520 *  0.000000 *  0.749160 *  -2.87073    1.000000    
     87 O3    s    0.610230 *  0.175520 *  0.115390 *  -3.33043    1.000000    
     88 O2    s    0.889770 *  0.824480 *  0.115390 *  -2.87073    1.000000    
     89 O2    s    0.389770 *  0.175520 *  0.884610 *  -2.87073    1.000000    
     90 O2    s    0.110230 *  0.824480 *  0.884610 *  -2.87073    1.000000    
     91 O2    s    0.389770 *  0.824480 *  0.884610 *  -2.87073    1.000000    
     92 O2    s    0.110230 *  0.175520 *  0.884610 *  -2.87073    1.000000    
     93 O3    s    0.610230 *  0.824480 *  0.115390 *  -3.33043    1.000000    
     94 O2    s    0.889770 *  0.175520 *  0.115390 *  -2.87073    1.000000    
     95 O3    s    0.500000 *  0.000000 *  0.000000 *  -3.33043    1.000000    
     96 O2    s    0.000000 *  0.000000 *  0.000000 *  -2.87073    1.000000    
     97 O3    s    0.151750 *  0.500000 *  0.313330 *  -3.33043    1.000000    
     98 O2    s    0.348250 *  0.500000 *  0.313330 *  -2.87073    1.000000    
     99 O2    s    0.848250 *  0.500000 *  0.686670 *  -2.87073    1.000000    
    100 O3    s    0.651750 *  0.500000 *  0.686670 *  -3.33043    1.000000    
    101 O3    s    0.250000 *  0.234950 *  0.285720 *  -3.33043    1.000000    
    102 O2    s    0.250000 *  0.765050 *  0.285720 *  -2.87073    1.000000    
    103 O3    s    0.750000 *  0.234950 *  0.714280 *  -3.33043    1.000000    
    104 O2    s    0.750000 *  0.765050 *  0.714280 *  -2.87073    1.000000    
    105 O3    s    0.131410 *  0.268650 *  0.127790 *  -3.33043    1.000000    
    106 O2    s    0.368590 *  0.731350 *  0.127790 *  -2.87073    1.000000    
    107 O2    s    0.868590 *  0.268650 *  0.872210 *  -2.87073    1.000000    
    108 O2    s    0.631410 *  0.731350 *  0.872210 *  -2.87073    1.000000    
    109 O2    s    0.868590 *  0.731350 *  0.872210 *  -2.87073    1.000000    
    110 O3    s    0.631410 *  0.268650 *  0.872210 *  -3.33043    1.000000    
    111 O2    s    0.131410 *  0.731350 *  0.127790 *  -2.87073    1.000000    
    112 O2    s    0.368590 *  0.268650 *  0.127790 *  -2.87073    1.000000    
    113 O2    s    0.653920 *  0.500000 *  0.058200 *  -2.87073    1.000000    
    114 O2    s    0.846080 *  0.500000 *  0.058200 *  -2.87073    1.000000    
    115 O2    s    0.346080 *  0.500000 *  0.941800 *  -2.87073    1.000000    
    116 O2    s    0.153920 *  0.500000 *  0.941800 *  -2.87073    1.000000    
    117 O2    s    0.750000 *  0.231060 *  0.027050 *  -2.87073    1.000000    
    118 O2    s    0.750000 *  0.768940 *  0.027050 *  -2.87073    1.000000    
    119 O2    s    0.250000 *  0.231060 *  0.972950 *  -2.87073    1.000000    
    120 O2    s    0.250000 *  0.768940 *  0.972950 *  -2.87073    1.000000    
--------------------------------------------------------------------------------



********************************************************************************
*  General input information                                                   *
********************************************************************************

  Species output for all configurations : 

--------------------------------------------------------------------------------
  Species    Type    Atomic    Atomic    Charge       Radii (Angs)     Library
                     Number     Mass       (e)     Cova   Ionic  VDW   Symbol
--------------------------------------------------------------------------------
    Ge       Core       32      72.61   4.000000   1.170  0.000  1.750 Ge       
    Si       Core       14      28.09   4.000000   1.200  0.000  2.100 Si       
    O1       Core        8      16.00   1.733957   0.730  0.000  0.000 O1       
    O2       Core        8      16.00   0.870733   0.730  0.000  1.360 O2       
    O3       Core        8      16.00   1.330431   0.730  0.000  1.360 O3       
    O1       Shell       8       0.00  -3.733957   0.730  0.000  0.000 O1       
    O2       Shell       8       0.00  -2.870733   0.730  0.000  0.000 O2       
    O3       Shell       8       0.00  -3.330431   0.730  0.000  0.000 O3       
--------------------------------------------------------------------------------


  Lattice summation method               =    Ewald          (3-D)
                                         =    Parry          (2-D)
                                         =    Saunders et al (1-D)
  Accuracy factor for lattice sums       =   12.000


  Analytic derivatives to be used

  Time limit = Infinity

  Maximum range for interatomic potentials =    100000.000000 Angstroms

  General interatomic potentials :

--------------------------------------------------------------------------------
Atom  Types   Potential      Parameter       Value         Units   Cutoffs(Ang)
  1     2                                                            Min /  Max 
--------------------------------------------------------------------------------
Si   c O1   s Buckingham    Buckingham A     1315.2478    eV        0.000 16.000
                            Buckingham rho  0.31775900    Ang       
                            Buckingham C     10.141118    eV*Ang^6  
--------------------------------------------------------------------------------
Si   c O2   s Buckingham    Buckingham A     1315.2478    eV        0.000 16.000
                            Buckingham rho  0.31775900    Ang       
                            Buckingham C     10.141118    eV*Ang^6  
--------------------------------------------------------------------------------
Si   c O3   s Buckingham    Buckingham A     1315.2478    eV        0.000 16.000
                            Buckingham rho  0.31775900    Ang       
                            Buckingham C     10.141118    eV*Ang^6  
--------------------------------------------------------------------------------
Ge   c O1   s Buckingham    Buckingham A     1497.3996    eV        0.000 16.000
                            Buckingham rho  0.32564600    Ang       
                            Buckingham C     16.808599    eV*Ang^6  
--------------------------------------------------------------------------------
Ge   c O2   s Buckingham    Buckingham A     1497.3996    eV        0.000 16.000
                            Buckingham rho  0.32564600    Ang       
                            Buckingham C     16.808599    eV*Ang^6  
--------------------------------------------------------------------------------
Ge   c O3   s Buckingham    Buckingham A     1497.3996    eV        0.000 16.000
                            Buckingham rho  0.32564600    Ang       
                            Buckingham C     16.808599    eV*Ang^6  
--------------------------------------------------------------------------------
O1   s O1   s Buckingham    Buckingham A     22764.000    eV        0.000 16.000
                            Buckingham rho  0.14900000    Ang       
                            Buckingham C     10.937044    eV*Ang^6  
--------------------------------------------------------------------------------
O1   s O2   s Buckingham    Buckingham A     22764.000    eV        0.000 16.000
                            Buckingham rho  0.14900000    Ang       
                            Buckingham C     10.937044    eV*Ang^6  
--------------------------------------------------------------------------------
O1   s O3   s Buckingham    Buckingham A     22764.000    eV        0.000 16.000
                            Buckingham rho  0.14900000    Ang       
                            Buckingham C     10.937044    eV*Ang^6  
--------------------------------------------------------------------------------
O2   s O2   s Buckingham    Buckingham A     22764.000    eV        0.000 16.000
                            Buckingham rho  0.14900000    Ang       
                            Buckingham C     10.937044    eV*Ang^6  
--------------------------------------------------------------------------------
O2   s O3   s Buckingham    Buckingham A     22764.000    eV        0.000 16.000
                            Buckingham rho  0.14900000    Ang       
                            Buckingham C     10.937044    eV*Ang^6  
--------------------------------------------------------------------------------
O3   s O3   s Buckingham    Buckingham A     22764.000    eV        0.000 16.000
                            Buckingham rho  0.14900000    Ang       
                            Buckingham C     10.937044    eV*Ang^6  
--------------------------------------------------------------------------------
O1   c O1   s Spring (c-s)  Spring k 2       180.31577    eV*Ang^-2 0.000  0.800
                            Spring k 4       0.0000000    eV*Ang^-4 
--------------------------------------------------------------------------------
O2   c O2   s Spring (c-s)  Spring k 2       75.969800    eV*Ang^-2 0.000  0.800
                            Spring k 4       0.0000000    eV*Ang^-4 
--------------------------------------------------------------------------------
O3   c O3   s Spring (c-s)  Spring k 2       128.14270    eV*Ang^-2 0.000  0.800
                            Spring k 4       0.0000000    eV*Ang^-4 
--------------------------------------------------------------------------------

  General Three-body potentials :

--------------------------------------------------------------------------------
  Atoms       Potential      Parameter       Value         Units   Cutoffs(Ang)
  1 / 2 / 3                                                          Min /  Max 
--------------------------------------------------------------------------------
Si    core    Harmonic      Three-body cnst  1.2614000    eV*rad^-2 0.000  1.900
O1    shel                  Three-body angl  109.47000    degrees   0.000  1.900
O1    shel                  Three-body k4    0.0000000    eV*rad^-4 0.000  3.500
                            Three-body k3    0.0000000    eV*rad^-3 
--------------------------------------------------------------------------------
Si    core    Harmonic      Three-body cnst  1.2614000    eV*rad^-2 0.000  1.900
O1    shel                  Three-body angl  109.47000    degrees   0.000  1.900
õ(1   shel                  Three-body k4    0.0000000    eV*rad^-4 0.000  3.500
                            Three-body k3    0.0000000    eV*rad^-3 
--------------------------------------------------------------------------------
Si    core    Harmonic      Three-body cnst  1.2614000    eV*rad^-2 0.000  1.900
õ(1   shel                  Three-body angl  109.47000    degrees   0.000  1.900
õ(1   shel                  Three-body k4    0.0000000    eV*rad^-4 0.000  3.500
                            Three-body k3    0.0000000    eV*rad^-3 
--------------------------------------------------------------------------------
Si    core    Harmonic      Three-body cnst  1.2614000    eV*rad^-2 0.000  1.900
O1    shel                  Three-body angl  109.47000    degrees   0.000  1.900
O2    shel                  Three-body k4    0.0000000    eV*rad^-4 0.000  3.500
                            Three-body k3    0.0000000    eV*rad^-3 
--------------------------------------------------------------------------------
Si    core    Harmonic      Three-body cnst  1.2614000    eV*rad^-2 0.000  1.900
O1    shel                  Three-body angl  109.47000    degrees   0.000  1.900
õ(2   shel                  Three-body k4    0.0000000    eV*rad^-4 0.000  3.500
                            Three-body k3    0.0000000    eV*rad^-3 
--------------------------------------------------------------------------------
Si    core    Harmonic      Three-body cnst  1.2614000    eV*rad^-2 0.000  1.900
O2    shel                  Three-body angl  109.47000    degrees   0.000  1.900
õ(1   shel                  Three-body k4    0.0000000    eV*rad^-4 0.000  3.500
                            Three-body k3    0.0000000    eV*rad^-3 
--------------------------------------------------------------------------------
Si    core    Harmonic      Three-body cnst  1.2614000    eV*rad^-2 0.000  1.900
õ(1   shel                  Three-body angl  109.47000    degrees   0.000  1.900
õ(2   shel                  Three-body k4    0.0000000    eV*rad^-4 0.000  3.500
                            Three-body k3    0.0000000    eV*rad^-3 
--------------------------------------------------------------------------------
Si    core    Harmonic      Three-body cnst  1.2614000    eV*rad^-2 0.000  1.900
O2    shel                  Three-body angl  109.47000    degrees   0.000  1.900
O2    shel                  Three-body k4    0.0000000    eV*rad^-4 0.000  3.500
                            Three-body k3    0.0000000    eV*rad^-3 
--------------------------------------------------------------------------------
Si    core    Harmonic      Three-body cnst  1.2614000    eV*rad^-2 0.000  1.900
O2    shel                  Three-body angl  109.47000    degrees   0.000  1.900
õ(2   shel                  Three-body k4    0.0000000    eV*rad^-4 0.000  3.500
                            Three-body k3    0.0000000    eV*rad^-3 
--------------------------------------------------------------------------------
Si    core    Harmonic      Three-body cnst  1.2614000    eV*rad^-2 0.000  1.900
õ(2   shel                  Three-body angl  109.47000    degrees   0.000  1.900
õ(2   shel                  Three-body k4    0.0000000    eV*rad^-4 0.000  3.500
                            Three-body k3    0.0000000    eV*rad^-3 
--------------------------------------------------------------------------------

********************************************************************************
*  Output for configuration   1 : c00139.vasp                                  *
********************************************************************************


  Components of energy : 

--------------------------------------------------------------------------------
  Interatomic potentials     =         760.32238343 eV    
  Three-body potentials      =           0.01393092 eV    
  Monopole - monopole (real) =       -2676.00317478 eV    
  Monopole - monopole (recip)=       -1115.35404472 eV    
  Monopole - monopole (total)=       -3791.35721950 eV    
--------------------------------------------------------------------------------
  Total lattice energy       =       -3031.02090515 eV    
--------------------------------------------------------------------------------
  Total lattice energy       =         -292447.1839 kJ/(mole unit cells)
--------------------------------------------------------------------------------


  Number of variables =      363

  Maximum number of calculations  =          1000
  Maximum Hessian update interval =            10
  Maximum step size               =   0.100000000
  Maximum parameter tolerance     =   0.000010000
  Maximum function  tolerance     =   0.000010000
  Maximum gradient  tolerance     =   0.001000000
  Maximum gradient  component     =   0.010000000

  Symmetry not applied to optimisation

  Cell parameters to be optimised using strains

  Newton-Raphson optimiser to be used

  BFGS hessian update to be used

  Lower half triangular hessian to be used

  Minimiser to switch to RFO
  When gradient norm is less than     0.050000

  Dumpfile to be written after every cycle

  Start of bulk optimisation :

  Cycle:      0 Energy:     -3031.020905  Gnorm:      4.413703  CPU:    0.129
  ** Hessian calculated **
  Cycle:      1 Energy:     -3061.914576  Gnorm:      0.983345  CPU:    0.283
  ** Hessian calculated **
  Cycle:      2 Energy:     -3064.098773  Gnorm:      0.776795  CPU:    0.529
  ** Hessian calculated **
  Cycle:      3 Energy:     -3065.688168  Gnorm:      0.442766  CPU:    0.753
  Cycle:      4 Energy:     -3066.235197  Gnorm:      0.291542  CPU:    0.872
  Cycle:      5 Energy:     -3066.685633  Gnorm:      0.220673  CPU:    1.015
  Cycle:      6 Energy:     -3067.079436  Gnorm:      0.170580  CPU:    1.157
  Cycle:      7 Energy:     -3067.325945  Gnorm:      0.137663  CPU:    1.274
  Cycle:      8 Energy:     -3067.472212  Gnorm:      0.098700  CPU:    1.393
  Cycle:      9 Energy:     -3067.545621  Gnorm:      0.072170  CPU:    1.510
  Cycle:     10 Energy:     -3067.576874  Gnorm:      0.052007  CPU:    1.628
  Cycle:     11 Energy:     -3067.602935  Gnorm:      0.046140  CPU:    1.768
  ** Hessian has required structure
  Cycle:     12 Energy:     -3067.623570  Gnorm:      0.099272  CPU:    1.942
  ** Hessian has wrong structure
  ** Imaginary eigenvectors =   2
  ** Hessian has wrong structure
  ** Imaginary eigenvectors =   2
  Cycle:     13 Energy:     -3067.631612  Gnorm:      0.099034  CPU:    2.617
  ** Hessian has wrong structure
  ** Imaginary eigenvectors =   2
  ** Hessian has wrong structure
  ** Imaginary eigenvectors =   2
  Cycle:     14 Energy:     -3067.646948  Gnorm:      0.098621  CPU:    3.225
  ** Hessian has wrong structure
  ** Imaginary eigenvectors =   2
  ** Hessian has wrong structure
  ** Imaginary eigenvectors =   2
  Cycle:     15 Energy:     -3067.674796  Gnorm:      0.098206  CPU:    3.783
  ** Hessian has wrong structure
  ** Imaginary eigenvectors =   2
  ** Hessian has wrong structure
  ** Imaginary eigenvectors =   2
  Cycle:     16 Energy:     -3067.708175  Gnorm:      0.098332  CPU:    4.302
  ** Hessian has wrong structure
  ** Imaginary eigenvectors =   1
  ** Hessian has required structure
  Cycle:     17 Energy:     -3067.811835  Gnorm:      0.087899  CPU:    4.803
  ** Hessian has required structure
  Cycle:     18 Energy:     -3067.957285  Gnorm:      0.062497  CPU:    5.003
  ** Hessian has required structure
  Cycle:     19 Energy:     -3068.067404  Gnorm:      0.048034  CPU:    5.207
  ** Hessian has required structure
  Cycle:     20 Energy:     -3068.143367  Gnorm:      0.040563  CPU:    5.386
  ** Hessian has required structure
  Cycle:     21 Energy:     -3068.176498  Gnorm:      0.030806  CPU:    5.567
  ** Hessian has required structure
  Cycle:     22 Energy:     -3068.209547  Gnorm:      0.027279  CPU:    5.749
  ** Hessian has required structure
  Cycle:     23 Energy:     -3068.226092  Gnorm:      0.026628  CPU:    5.933
  ** Hessian has required structure
  Cycle:     24 Energy:     -3068.241541  Gnorm:      0.025491  CPU:    6.118
  ** Hessian has required structure
  Cycle:     25 Energy:     -3068.259735  Gnorm:      0.020013  CPU:    6.324
  ** Hessian has required structure
  Cycle:     26 Energy:     -3068.277841  Gnorm:      0.021265  CPU:    6.530
  ** Hessian has required structure
  Cycle:     27 Energy:     -3068.301528  Gnorm:      0.015683  CPU:    6.840
  ** Hessian has required structure
  Cycle:     28 Energy:     -3068.311237  Gnorm:      0.011031  CPU:    7.050
  ** Hessian has required structure
  Cycle:     29 Energy:     -3068.315860  Gnorm:      0.004972  CPU:    7.262
  ** Hessian has required structure
  Cycle:     30 Energy:     -3068.317303  Gnorm:      0.004464  CPU:    7.442
  ** Hessian has required structure
  Cycle:     31 Energy:     -3068.317978  Gnorm:      0.002178  CPU:    7.621
  ** Hessian has required structure
  Cycle:     32 Energy:     -3068.318128  Gnorm:      0.000675  CPU:    7.780
  ** Hessian has required structure
  Cycle:     33 Energy:     -3068.318203  Gnorm:      0.000448  CPU:    7.959
  ** Hessian has required structure
  Cycle:     34 Energy:     -3068.318217  Gnorm:      0.000339  CPU:    8.140
  ** Hessian has required structure
  Cycle:     35 Energy:     -3068.318221  Gnorm:      0.000164  CPU:    8.303
  ** Hessian has required structure
  Cycle:     36 Energy:     -3068.318221  Gnorm:      0.000178  CPU:    8.460
  ** Hessian has required structure
  Cycle:     37 Energy:     -3068.318221  Gnorm:      0.000178  CPU:    8.775
  ** Hessian calculated **


  **** Optimisation achieved ****


  Final energy =   -3068.31822112 eV      
  Final Gnorm  =       0.00017815

  Components of energy : 

--------------------------------------------------------------------------------
  Interatomic potentials     =         815.73326215 eV    
  Three-body potentials      =           0.20917397 eV    
  Monopole - monopole (real) =       -2206.80811623 eV    
  Monopole - monopole (recip)=       -1677.45254101 eV    
  Monopole - monopole (total)=       -3884.26065724 eV    
--------------------------------------------------------------------------------
  Total lattice energy       =       -3068.31822112 eV    
--------------------------------------------------------------------------------
  Total lattice energy       =         -296045.8048 kJ/(mole unit cells)
--------------------------------------------------------------------------------

  Final fractional coordinates of atoms :

--------------------------------------------------------------------------------
   No.  Atomic        x           y          z          Radius
        Label       (Frac)      (Frac)     (Frac)       (Angs) 
--------------------------------------------------------------------------------
     1  Ge    c     0.556730    0.000000    0.122130    0.000000
     2  Ge    c     0.148059    0.328739    0.269030    0.000000
     3  Ge    c     0.661991    0.288534    0.702460    0.000000
     4  Si    c     0.042563    0.022951    0.352326    0.000000
     5  Si    c     0.446221    0.003974    0.367447    0.000000
     6  Si    c     0.947589    0.016893    0.612794    0.000000
     7  Si    c     0.541778    0.005257    0.624358    0.000000
     8  Si    c     0.942173    0.013566    0.096126    0.000000
     9  Si    c     0.441491    0.009329    0.880648    0.000000
    10  Si    c     0.055890    0.012795    0.859398    0.000000
    11  Si    c     0.341962    0.702222    0.263454    0.000000
    12  Si    c     0.845478    0.327014    0.695979    0.000000
    13  Si    c     0.649269    0.703434    0.707313    0.000000
    14  Si    c     0.830029    0.730341    0.702779    0.000000
    15  Si    c     0.161552    0.740410    0.259795    0.000000
    16  Si    c     0.331133    0.297196    0.268800    0.000000
    17  Si    c     0.668992    0.282085    0.007209    0.000000
    18  Si    c     0.830640    0.725495    0.006278    0.000000
    19  Si    c     0.328879    0.295983    0.963518    0.000000
    20  Si    c     0.165179    0.726575    0.956795    0.000000
    21  Si    c     0.345886    0.692695    0.961388    0.000000
    22  Si    c     0.148407    0.326729    0.960265    0.000000
    23  Si    c     0.650701    0.686044    0.007204    0.000000
    24  Si    c     0.848762    0.329811    0.000465    0.000000
    25  O3    c     0.080537    0.213969    0.358295    0.000000
    26  O2    c     0.400237    0.821903    0.345659    0.000000
    27  O2    c     0.907932    0.209935    0.616576    0.000000
    28  O2    c     0.590866    0.823500    0.623741    0.000000
    29  O2    c     0.880120    0.870162    0.622647    0.000000
    30  O3    c     0.603098    0.161369    0.605948    0.000000
    31  O2    c     0.114708    0.886192    0.340468    0.000000
    32  O2    c     0.388703    0.169278    0.346377    0.000000
    33  O2    c     0.992090    0.986247    0.479129    0.000000
    34  O2    c     0.476138    0.004173    0.514521    0.000000
    35  O2    c     0.985090    0.998382    0.231603    0.000000
    36  O3    c     0.521360    0.015443    0.276916    0.000000
    37  O2    c     0.011145    0.995527    0.725173    0.000000
    38  O2    c     0.498179    0.034220    0.760465    0.000000
    39  O3    c     0.630052    0.154058    0.108822    0.000000
    40  O2    c     0.873227    0.869744    0.093996    0.000000
    41  O2    c     0.372178    0.153868    0.874682    0.000000
    42  O2    c     0.123615    0.864926    0.862413    0.000000
    43  O2    c     0.404731    0.812864    0.878578    0.000000
    44  O2    c     0.092845    0.207473    0.870125    0.000000
    45  O3    c     0.592695    0.789843    0.099167    0.000000
    46  O2    c     0.907975    0.210322    0.082343    0.000000
    47  O3    c     0.485365    0.051368    0.012901    0.000000
    48  O2    c     0.999356    0.969233    0.978333    0.000000
    49  O3    c     0.130230    0.548910    0.292833    0.000000
    50  O2    c     0.358083    0.498150    0.294399    0.000000
    51  O2    c     0.859690    0.533858    0.668796    0.000000
    52  O3    c     0.630862    0.502263    0.682853    0.000000
    53  O3    c     0.242539    0.276149    0.314365    0.000000
    54  O2    c     0.252934    0.751374    0.298603    0.000000
    55  O3    c     0.758662    0.275617    0.654892    0.000000
    56  O2    c     0.738683    0.747610    0.665909    0.000000
    57  O3    c     0.133405    0.274798    0.108120    0.000000
    58  O2    c     0.358775    0.740732    0.112263    0.000000
    59  O2    c     0.858575    0.287919    0.848339    0.000000
    60  O2    c     0.637278    0.750676    0.859381    0.000000
    61  O2    c     0.839864    0.772318    0.854904    0.000000
    62  O3    c     0.655680    0.216225    0.860916    0.000000
    63  O2    c     0.153352    0.780573    0.106599    0.000000
    64  O2    c     0.335934    0.252086    0.115943    0.000000
    65  O2    c     0.633447    0.478994    0.016949    0.000000
    66  O2    c     0.868124    0.533049    0.031598    0.000000
    67  O2    c     0.365736    0.488423    0.935859    0.000000
    68  O2    c     0.129342    0.532177    0.935304    0.000000
    69  O2    c     0.760676    0.287474    0.041331    0.000000
    70  O2    c     0.740112    0.726217    0.047192    0.000000
    71  O2    c     0.238469    0.292255    0.923331    0.000000
    72  O2    c     0.256658    0.729725    0.921367    0.000000
    73  O3    s     0.082326    0.204235    0.350320    0.000000
    74  O2    s     0.398570    0.828024    0.338610    0.000000
    75  O2    s     0.905405    0.202148    0.624672    0.000000
    76  O2    s     0.592075    0.829460    0.632949    0.000000
    77  O2    s     0.881754    0.870314    0.630666    0.000000
    78  O3    s     0.601891    0.156381    0.615799    0.000000
    79  O2    s     0.112324    0.884342    0.332646    0.000000
    80  O2    s     0.388431    0.165698    0.339905    0.000000
    81  O2    s     0.992778    0.994083    0.479975    0.000000
    82  O2    s     0.480258    0.004303    0.510536    0.000000
    83  O2    s     0.986527    0.002965    0.229141    0.000000
    84  O3    s     0.516650    0.012922    0.272979    0.000000
    85  O2    s     0.009162    0.999997    0.728194    0.000000
    86  O2    s     0.496376    0.028095    0.759551    0.000000
    87  O3    s     0.628161    0.155020    0.099099    0.000000
    88  O2    s     0.875882    0.869099    0.084328    0.000000
    89  O2    s     0.374628    0.154529    0.885285    0.000000
    90  O2    s     0.121013    0.865312    0.872654    0.000000
    91  O2    s     0.402155    0.820050    0.887793    0.000000
    92  O2    s     0.094908    0.199752    0.878722    0.000000
    93  O3    s     0.595895    0.795886    0.091326    0.000000
    94  O2    s     0.905078    0.202583    0.074688    0.000000
    95  O3    s     0.487005    0.042588    0.008666    0.000000
    96  O2    s     0.999224    0.979101    0.978314    0.000000
    97  O3    s     0.134925    0.550301    0.287497    0.000000
    98  O2    s     0.353517    0.499207    0.288349    0.000000
    99  O2    s     0.855055    0.532870    0.675251    0.000000
   100  O3    s     0.635385    0.505816    0.687046    0.000000
   101  O3    s     0.243884    0.282477    0.306155    0.000000
   102  O2    s     0.252911    0.744885    0.290673    0.000000
   103  O3    s     0.759630    0.281838    0.662866    0.000000
   104  O2    s     0.739207    0.741233    0.674104    0.000000
   105  O3    s     0.136073    0.284273    0.106243    0.000000
   106  O2    s     0.355656    0.731650    0.112313    0.000000
   107  O2    s     0.856155    0.296484    0.848628    0.000000
   108  O2    s     0.639882    0.739311    0.859086    0.000000
   109  O2    s     0.837804    0.762789    0.854847    0.000000
   110  O3    s     0.657446    0.228264    0.862474    0.000000
   111  O2    s     0.155501    0.770621    0.106706    0.000000
   112  O2    s     0.334672    0.261541    0.115829    0.000000
   113  O2    s     0.639010    0.480893    0.014900    0.000000
   114  O2    s     0.862165    0.531597    0.025643    0.000000
   115  O2    s     0.359796    0.490339    0.941478    0.000000
   116  O2    s     0.135113    0.530965    0.940192    0.000000
   117  O2    s     0.760606    0.291723    0.033044    0.000000
   118  O2    s     0.740513    0.721830    0.038461    0.000000
   119  O2    s     0.238692    0.296529    0.931814    0.000000
   120  O2    s     0.256464    0.725226    0.929648    0.000000
--------------------------------------------------------------------------------

  Final Cartesian lattice vectors (Angstroms) :

       17.103474    0.018974    0.003246
        0.008248    7.607978   -0.004275
        0.001686   -0.006163   10.306301


  Final cell parameters and derivatives :

--------------------------------------------------------------------------------
       a           17.103485 Angstrom     dE/de1(xx)     0.021295 eV/strain
       b            7.607983 Angstrom     dE/de2(yy)     0.015866 eV/strain
       c           10.306303 Angstrom     dE/de3(zz)     0.022831 eV/strain
       alpha       90.066441 Degrees      dE/de4(yz)     0.000425 eV/strain
       beta        89.979787 Degrees      dE/de5(xz)    -0.000389 eV/strain
       gamma       89.874331 Degrees      dE/de6(xy)    -0.000221 eV/strain
--------------------------------------------------------------------------------

  Primitive cell volume =          1341.083205 Angs**3

  Density of cell =      1.951099 g/cm**3

  Non-primitive cell volume =          1341.083205 Angs**3


  Final internal derivatives :

--------------------------------------------------------------------------------
   No.  Atomic          a             b             c           Radius
        Label          (eV)          (eV)          (eV)        (eV/Angs)
--------------------------------------------------------------------------------
      1 Ge    c       0.000000      0.000000      0.000000      0.000000
      2 Ge    c      -0.005198     -0.004143     -0.001667      0.000000
      3 Ge    c      -0.018715     -0.000847     -0.002978      0.000000
      4 Si    c       0.002989      0.001630     -0.000235      0.000000
      5 Si    c      -0.001999      0.000359      0.000814      0.000000
      6 Si    c      -0.005940      0.000947      0.000774      0.000000
      7 Si    c       0.002814      0.000013     -0.000079      0.000000
      8 Si    c      -0.005957     -0.001465      0.000069      0.000000
      9 Si    c      -0.001205     -0.000340     -0.000624      0.000000
     10 Si    c       0.003316      0.000015      0.000938      0.000000
     11 Si    c       0.004170      0.000982     -0.000222      0.000000
     12 Si    c       0.010387     -0.000259     -0.007495      0.000000
     13 Si    c       0.000368      0.002149      0.003621      0.000000
     14 Si    c       0.001446      0.000772      0.002946      0.000000
     15 Si    c      -0.003015      0.001297      0.000472      0.000000
     16 Si    c       0.005871     -0.001113     -0.000883      0.000000
     17 Si    c      -0.005777      0.003815      0.004511      0.000000
     18 Si    c      -0.002334     -0.000459      0.000885      0.000000
     19 Si    c      -0.002114      0.001294      0.000994      0.000000
     20 Si    c       0.000675      0.000609     -0.001831      0.000000
     21 Si    c       0.001139      0.000359     -0.000698      0.000000
     22 Si    c       0.001767      0.000516      0.000482      0.000000
     23 Si    c       0.003835     -0.001966     -0.001020      0.000000
     24 Si    c       0.000034      0.001387      0.008156      0.000000
     25 O3    c      -0.000467     -0.000689     -0.000804      0.000000
     26 O2    c      -0.000442     -0.000162      0.000033      0.000000
     27 O2    c      -0.000133     -0.000363      0.000023      0.000000
     28 O2    c      -0.001500      0.000932     -0.000945      0.000000
     29 O2    c       0.000828      0.000312     -0.001848      0.000000
     30 O3    c       0.001407      0.000258      0.000970      0.000000
     31 O2    c       0.000185     -0.000165      0.001133      0.000000
     32 O2    c       0.000265      0.000116      0.000124      0.000000
     33 O2    c      -0.000683     -0.000663     -0.000951      0.000000
     34 O2    c      -0.000929      0.000029     -0.000414      0.000000
     35 O2    c       0.000293      0.000289      0.000146      0.000000
     36 O3    c       0.003245      0.000114     -0.001326      0.000000
     37 O2    c       0.003129     -0.000415     -0.000683      0.000000
     38 O2    c       0.000055     -0.000019     -0.000240      0.000000
     39 O3    c      -0.000128     -0.000798     -0.000488      0.000000
     40 O2    c       0.002764      0.001271     -0.000388      0.000000
     41 O2    c       0.000417     -0.000650     -0.000662      0.000000
     42 O2    c      -0.000117     -0.000468     -0.000028      0.000000
     43 O2    c      -0.000689     -0.000584      0.000087      0.000000
     44 O2    c       0.000151     -0.000463      0.000195      0.000000
     45 O3    c       0.000447      0.000619     -0.000183      0.000000
     46 O2    c      -0.001260      0.001806      0.000946      0.000000
     47 O3    c      -0.002152     -0.000357     -0.001031      0.000000
     48 O2    c       0.000371     -0.000811     -0.001175      0.000000
     49 O3    c      -0.005742      0.004200      0.005006      0.000000
     50 O2    c       0.002523      0.001102      0.002865      0.000000
     51 O2    c       0.003823      0.001771     -0.004489      0.000000
     52 O3    c      -0.005419      0.000428     -0.003928      0.000000
     53 O3    c      -0.005039     -0.002129      0.002855      0.000000
     54 O2    c       0.004058      0.001476      0.002286      0.000000
     55 O3    c       0.007447     -0.008424     -0.006076      0.000000
     56 O2    c      -0.003745      0.001022     -0.001599      0.000000
     57 O3    c       0.000077     -0.000390     -0.001900      0.000000
     58 O2    c       0.002568      0.000358      0.001591      0.000000
     59 O2    c       0.018744     -0.002419      0.000872      0.000000
     60 O2    c       0.000704      0.000113      0.001303      0.000000
     61 O2    c       0.000923      0.000124     -0.001958      0.000000
     62 O3    c      -0.010650     -0.003003      0.003414      0.000000
     63 O2    c      -0.003490      0.000594      0.000010      0.000000
     64 O2    c      -0.000923     -0.000324     -0.002619      0.000000
     65 O2    c       0.002483      0.000169     -0.002283      0.000000
     66 O2    c       0.001660      0.002228      0.001229      0.000000
     67 O2    c       0.000657     -0.003030     -0.000649      0.000000
     68 O2    c      -0.001754     -0.003056     -0.000339      0.000000
     69 O2    c      -0.002838     -0.002647      0.002512      0.000000
     70 O2    c      -0.004130     -0.000784     -0.000756      0.000000
     71 O2    c      -0.000407      0.000547     -0.000476      0.000000
     72 O2    c      -0.002528      0.000554     -0.001187      0.000000
     73 O3    s      -0.000603     -0.000258      0.000676      0.000000
     74 O2    s       0.001472      0.000476      0.000215      0.000000
     75 O2    s       0.004963     -0.000704     -0.003093      0.000000
     76 O2    s      -0.001850      0.000450     -0.000149      0.000000
     77 O2    s      -0.000504      0.000841      0.000392      0.000000
     78 O3    s      -0.004506     -0.000912     -0.001215      0.000000
     79 O2    s      -0.001320      0.000560     -0.000398      0.000000
     80 O2    s       0.001168     -0.001128     -0.000061      0.000000
     81 O2    s       0.000080      0.000345     -0.000449      0.000000
     82 O2    s       0.000084     -0.000163      0.000281      0.000000
     83 O2    s       0.001650     -0.001265      0.000969      0.000000
     84 O3    s      -0.000922     -0.000231      0.000200      0.000000
     85 O2    s       0.001947      0.000458      0.000084      0.000000
     86 O2    s       0.000586      0.000228      0.000557      0.000000
     87 O3    s      -0.003655      0.000462      0.001016      0.000000
     88 O2    s      -0.000964     -0.000626      0.001646      0.000000
     89 O2    s       0.001704      0.000340      0.000309      0.000000
     90 O2    s       0.000802      0.000689     -0.000967      0.000000
     91 O2    s       0.002011      0.000987     -0.001200      0.000000
     92 O2    s      -0.000488      0.000806      0.000122      0.000000
     93 O3    s      -0.000231     -0.000633      0.000249      0.000000
     94 O2    s       0.004374     -0.000755      0.004563      0.000000
     95 O3    s       0.001665      0.000982      0.000113      0.000000
     96 O2    s       0.000825      0.000003     -0.000463      0.000000
     97 O3    s      -0.001910     -0.002485      0.001869      0.000000
     98 O2    s       0.002625      0.000558      0.002599      0.000000
     99 O2    s       0.004013      0.002387     -0.006546      0.000000
    100 O3    s      -0.002849      0.001058     -0.002722      0.000000
    101 O3    s       0.001184     -0.001981      0.001386      0.000000
    102 O2    s       0.000970      0.001902      0.001195      0.000000
    103 O3    s      -0.011257     -0.001061     -0.003634      0.000000
    104 O2    s      -0.000110      0.002315     -0.002290      0.000000
    105 O3    s       0.000006     -0.001573     -0.001794      0.000000
    106 O2    s       0.002755      0.001789      0.000160      0.000000
    107 O2    s       0.010459     -0.002490      0.000527      0.000000
    108 O2    s      -0.002416      0.001034      0.002427      0.000000
    109 O2    s       0.003803      0.003345      0.001480      0.000000
    110 O3    s       0.001525     -0.001863      0.000718      0.000000
    111 O2    s      -0.003389      0.002423     -0.000410      0.000000
    112 O2    s       0.002449     -0.001748     -0.001829      0.000000
    113 O2    s      -0.003722      0.001653      0.002207      0.000000
    114 O2    s       0.005960      0.002119      0.006458      0.000000
    115 O2    s       0.003160     -0.000659     -0.001766      0.000000
    116 O2    s      -0.002880     -0.000355     -0.001685      0.000000
    117 O2    s      -0.009477     -0.002095      0.002776      0.000000
    118 O2    s      -0.002719      0.000481      0.001865      0.000000
    119 O2    s      -0.000759     -0.000421     -0.000467      0.000000
    120 O2    s       0.000377      0.001666     -0.001624      0.000000
--------------------------------------------------------------------------------
  Maximum abs         0.018744      0.008424      0.008156      0.000000
--------------------------------------------------------------------------------


  Born effective charge tensors : 

-------------------------------------------------------------------------------
  Atom             x           y             z
-------------------------------------------------------------------------------
    1 Ge    x       4.2867     -0.2214     -0.3841
            y       0.1882      3.9148      0.0263
            z      -0.4752      0.0453      3.8822
-------------------------------------------------------------------------------
    2 Ge    x       3.9434      0.2578     -0.0851
            y       0.3690      4.1886     -0.2374
            z      -0.1606     -0.0668      3.4509
-------------------------------------------------------------------------------
    3 Ge    x       4.0051      0.3669      0.1818
            y       0.2460      4.1821      0.2499
            z       0.1795      0.0178      3.3881
-------------------------------------------------------------------------------
    4 Si    x       3.5616      0.3370     -0.1663
            y      -0.0173      3.4704      0.0625
            z      -0.5093     -0.1203      3.8772
-------------------------------------------------------------------------------
    5 Si    x       3.7047      0.0635      0.2287
            y      -0.0635      3.2966     -0.0075
            z       0.0728     -0.0097      3.9864
-------------------------------------------------------------------------------
    6 Si    x       3.4375     -0.1434     -0.1902
            y       0.1496      3.2189     -0.0073
            z      -0.4061      0.0994      3.7939
-------------------------------------------------------------------------------
    7 Si    x       3.6759      0.0691     -0.0166
            y       0.2430      3.4067     -0.0841
            z       0.6672      0.0225      3.7324
-------------------------------------------------------------------------------
    8 Si    x       3.4405     -0.1572      0.1898
            y       0.1808      3.2571     -0.0328
            z       0.4787     -0.0291      3.1136
-------------------------------------------------------------------------------
    9 Si    x       3.6252      0.2238      0.0387
            y      -0.1414      3.3125      0.0398
            z      -0.4963     -0.0062      3.2856
-------------------------------------------------------------------------------
   10 Si    x       3.4710      0.1533      0.2186
            y      -0.1637      3.2451      0.0049
            z       0.4945      0.0118      3.1097
-------------------------------------------------------------------------------
   11 Si    x       3.1780      0.1978      0.0892
            y       0.2415      3.4007      0.1613
            z       0.1246      0.0858      2.8438
-------------------------------------------------------------------------------
   12 Si    x       3.5149     -0.1504      0.0371
            y      -0.2509      3.5484      0.2066
            z      -0.0339      0.1114      2.8871
-------------------------------------------------------------------------------
   13 Si    x       3.3283     -0.1703      0.1083
            y      -0.1649      3.7635     -0.1385
            z       0.1424      0.0047      2.8569
-------------------------------------------------------------------------------
   14 Si    x       3.2065      0.3039     -0.1142
            y       0.1582      3.4544     -0.1392
            z      -0.1166     -0.0819      2.8192
-------------------------------------------------------------------------------
   15 Si    x       3.2881     -0.2442     -0.1368
            y      -0.0350      3.7608      0.0585
            z      -0.1376      0.0104      2.8953
-------------------------------------------------------------------------------
   16 Si    x       3.5379     -0.2389      0.0036
            y      -0.1735      3.5360     -0.1820
            z       0.0833     -0.1079      2.9220
-------------------------------------------------------------------------------
   17 Si    x       3.4146      0.4782     -0.2811
            y       0.1997      3.6789     -0.3357
            z      -0.1827     -0.1289      3.2017
-------------------------------------------------------------------------------
   18 Si    x       3.2051      0.3460      0.1479
            y       0.1002      3.4464      0.1654
            z       0.1146      0.0760      2.7213
-------------------------------------------------------------------------------
   19 Si    x       3.2022     -0.3383     -0.1284
            y      -0.0837      3.4412      0.1622
            z      -0.1172      0.0709      2.7236
-------------------------------------------------------------------------------
   20 Si    x       3.2488     -0.3428      0.1825
            y      -0.1015      3.4347     -0.1847
            z       0.1257     -0.0562      2.7203
-------------------------------------------------------------------------------
   21 Si    x       3.2696      0.2648     -0.1040
            y       0.2572      3.3994     -0.1668
            z      -0.1437     -0.0546      2.7112
-------------------------------------------------------------------------------
   22 Si    x       3.3415      0.3101      0.0872
            y       0.2900      3.5203      0.1132
            z       0.1182     -0.0182      3.0005
-------------------------------------------------------------------------------
   23 Si    x       3.5298     -0.3698     -0.3199
            y      -0.3777      3.4808      0.3599
            z      -0.3333      0.1245      2.8897
-------------------------------------------------------------------------------
   24 Si    x       3.2113     -0.2540      0.1083
            y      -0.2661      3.4072     -0.1601
            z       0.1548     -0.0704      2.7069
-------------------------------------------------------------------------------
   25 O3    x      -1.9373     -0.8991      0.3550
            y      -0.8808     -2.5185      0.3336
            z       0.4398      0.3419     -1.5433
-------------------------------------------------------------------------------
   26 O2    x      -1.6514     -0.6896     -0.3884
            y      -0.6492     -1.9836     -0.4015
            z      -0.3773     -0.3948     -1.3947
-------------------------------------------------------------------------------
   27 O2    x      -1.6203      0.6900      0.3033
            y       0.6411     -2.0365     -0.3185
            z       0.3348     -0.3189     -1.3561
-------------------------------------------------------------------------------
   28 O2    x      -1.7384      0.6885     -0.2997
            y       0.6909     -1.9084      0.3158
            z      -0.3840      0.2786     -1.3595
-------------------------------------------------------------------------------
   29 O2    x      -1.7735     -0.7276      0.3275
            y      -0.7681     -1.9458      0.3482
            z       0.3731      0.3402     -1.3430
-------------------------------------------------------------------------------
   30 O3    x      -2.1746     -0.9614     -0.2970
            y      -1.0341     -2.3233     -0.3052
            z      -0.4018     -0.2762     -1.5322
-------------------------------------------------------------------------------
   31 O2    x      -1.8266      0.6611      0.3367
            y       0.7293     -1.8527     -0.3498
            z       0.3750     -0.3024     -1.3700
-------------------------------------------------------------------------------
   32 O2    x      -1.7076      0.7112     -0.3947
            y       0.7216     -1.9933      0.4006
            z      -0.3830      0.3808     -1.3819
-------------------------------------------------------------------------------
   33 O2    x      -1.5833     -0.0005      0.7876
            y      -0.0113     -1.0957      0.0069
            z       1.0052     -0.0105     -2.7597
-------------------------------------------------------------------------------
   34 O2    x      -1.6474      0.0162     -0.7741
            y       0.0039     -1.0893      0.0155
            z      -0.9712      0.0247     -2.6655
-------------------------------------------------------------------------------
   35 O2    x      -1.6583      0.0109     -0.7181
            y      -0.0031     -1.1192      0.0012
            z      -0.6973      0.0162     -2.2939
-------------------------------------------------------------------------------
   36 O3    x      -2.2063      0.0073      0.9447
            y      -0.0326     -1.2281     -0.0077
            z       0.9466     -0.0281     -2.6520
-------------------------------------------------------------------------------
   37 O2    x      -1.7406      0.0004     -0.7380
            y       0.0155     -1.1091      0.0046
            z      -0.7474     -0.0150     -2.2122
-------------------------------------------------------------------------------
   38 O2    x      -1.7203     -0.0201      0.7132
            y       0.0054     -1.1516     -0.0150
            z       0.6727     -0.0097     -2.2048
-------------------------------------------------------------------------------
   39 O3    x      -2.0791     -0.9234      0.5839
            y      -0.8610     -2.2617      0.6225
            z       0.5093      0.5523     -1.5913
-------------------------------------------------------------------------------
   40 O2    x      -1.7592     -0.7160     -0.3124
            y      -0.6883     -1.9239     -0.3402
            z      -0.3338     -0.3329     -1.2426
-------------------------------------------------------------------------------
   41 O2    x      -1.7465      0.6992      0.2904
            y       0.6725     -1.9211     -0.3381
            z       0.3238     -0.3025     -1.2356
-------------------------------------------------------------------------------
   42 O2    x      -1.7505      0.7109     -0.3391
            y       0.6735     -1.9046      0.3684
            z      -0.3341      0.3369     -1.2702
-------------------------------------------------------------------------------
   43 O2    x      -1.6605     -0.6840      0.3092
            y      -0.5873     -2.0296      0.3279
            z       0.3670      0.3252     -1.2279
-------------------------------------------------------------------------------
   44 O2    x      -1.6520     -0.6952     -0.3322
            y      -0.5890     -2.0377     -0.3578
            z      -0.3576     -0.3464     -1.2402
-------------------------------------------------------------------------------
   45 O3    x      -2.0353      0.9275      0.6225
            y       0.7782     -2.3316     -0.5978
            z       0.5728     -0.5489     -1.5700
-------------------------------------------------------------------------------
   46 O2    x      -1.6418      0.6841     -0.3330
            y       0.5820     -2.0319      0.3666
            z      -0.3563      0.3492     -1.2273
-------------------------------------------------------------------------------
   47 O3    x      -2.1545      0.0107     -0.8623
            y       0.0211     -1.3332     -0.0332
            z      -0.5100     -0.0353     -2.1298
-------------------------------------------------------------------------------
   48 O2    x      -1.8070      0.0057      0.6199
            y       0.0060     -1.1917      0.0021
            z       0.3465      0.0080     -1.6925
-------------------------------------------------------------------------------
   49 O3    x      -1.3407     -0.1686      0.0934
            y      -0.2130     -3.1811      0.1128
            z       0.1138      0.1036     -1.2080
-------------------------------------------------------------------------------
   50 O2    x      -1.1530     -0.0232     -0.0582
            y      -0.0591     -2.5762      0.0195
            z      -0.0729      0.0312     -1.0899
-------------------------------------------------------------------------------
   51 O2    x      -1.1613      0.0917      0.0595
            y       0.1589     -2.5606     -0.0282
            z       0.0729     -0.0119     -1.0901
-------------------------------------------------------------------------------
   52 O3    x      -1.3292     -0.0088     -0.0770
            y       0.0564     -3.2367     -0.0695
            z      -0.0904     -0.0941     -1.1765
-------------------------------------------------------------------------------
   53 O3    x      -2.9964      0.0864      0.0858
            y       0.0000     -1.3885      0.0964
            z       0.1062      0.0620     -1.2429
-------------------------------------------------------------------------------
   54 O2    x      -2.4038      0.1527     -0.0238
            y       0.0951     -1.2462     -0.0586
            z      -0.0210     -0.0374     -1.0869
-------------------------------------------------------------------------------
   55 O3    x      -3.0048     -0.1996     -0.0433
            y      -0.1428     -1.4089     -0.1036
            z      -0.0633     -0.0670     -1.2236
-------------------------------------------------------------------------------
   56 O2    x      -2.4485     -0.0619      0.0224
            y      -0.0160     -1.2357      0.0671
            z      -0.0092      0.0366     -1.0891
-------------------------------------------------------------------------------
   57 O3    x      -1.3508     -0.1629      0.0335
            y      -0.1538     -1.4474      0.0769
            z       0.0046      0.0526     -2.6020
-------------------------------------------------------------------------------
   58 O2    x      -1.2035     -0.1228      0.0289
            y      -0.1167     -1.2665     -0.0164
            z       0.0496     -0.0181     -2.0805
-------------------------------------------------------------------------------
   59 O2    x      -1.1856      0.1178     -0.0061
            y       0.1184     -1.2829     -0.0039
            z      -0.0244     -0.0055     -2.0887
-------------------------------------------------------------------------------
   60 O2    x      -1.2419      0.1339     -0.0079
            y       0.1223     -1.2966      0.0702
            z       0.0093      0.0800     -2.0304
-------------------------------------------------------------------------------
   61 O2    x      -1.1733     -0.1259     -0.0324
            y      -0.0772     -1.2789      0.0317
            z      -0.0198      0.0068     -2.0753
-------------------------------------------------------------------------------
   62 O3    x      -1.3416     -0.1608     -0.0892
            y      -0.1091     -1.5098     -0.1412
            z      -0.0748     -0.0610     -2.5061
-------------------------------------------------------------------------------
   63 O2    x      -1.1944      0.1308     -0.0115
            y       0.0828     -1.2771     -0.0628
            z      -0.0089     -0.0498     -2.0787
-------------------------------------------------------------------------------
   64 O2    x      -1.1661      0.1108     -0.0266
            y       0.0677     -1.2996      0.0176
            z      -0.0203     -0.0084     -2.1073
-------------------------------------------------------------------------------
   65 O2    x      -1.2817      0.0699      0.0705
            y       0.1299     -2.4549      0.0315
            z       0.0901      0.0240     -1.0227
-------------------------------------------------------------------------------
   66 O2    x      -1.2322      0.0770     -0.0785
            y       0.1439     -2.4856     -0.0298
            z      -0.0998     -0.0025     -1.0188
-------------------------------------------------------------------------------
   67 O2    x      -1.2394     -0.0561      0.0783
            y      -0.1394     -2.4910      0.0123
            z       0.1004      0.0035     -1.0179
-------------------------------------------------------------------------------
   68 O2    x      -1.2510     -0.0663     -0.0771
            y      -0.1383     -2.5234     -0.0100
            z      -0.0972     -0.0212     -1.0068
-------------------------------------------------------------------------------
   69 O2    x      -2.3844     -0.1174      0.0344
            y      -0.0718     -1.2613      0.0704
            z       0.0492      0.0417     -1.0458
-------------------------------------------------------------------------------
   70 O2    x      -2.4080     -0.1386     -0.0028
            y      -0.0793     -1.2468     -0.0703
            z       0.0175     -0.0304     -1.0604
-------------------------------------------------------------------------------
   71 O2    x      -2.4242      0.0928     -0.0491
            y       0.0482     -1.2528     -0.0573
            z      -0.0535     -0.0276     -1.0352
-------------------------------------------------------------------------------
   72 O2    x      -2.4404      0.1011     -0.0232
            y       0.0723     -1.2350      0.0616
            z      -0.0148      0.0302     -1.0400
-------------------------------------------------------------------------------




  Elastic Constant Matrix: (Units=GPa)

-------------------------------------------------------------------------------
  Indices      1         2         3         4         5         6    
-------------------------------------------------------------------------------
       1     49.1459   24.5902   25.9786   -0.0466    5.3625   -3.7974
       2     24.5902   71.7739   20.4575   -0.8303    6.0347   -0.8014
       3     25.9786   20.4575   46.3410   -0.2644    2.1840   -1.7030
       4     -0.0466   -0.8303   -0.2644   11.5235    0.1229    1.2186
       5      5.3625    6.0347    2.1840    0.1229   24.4118   -0.2476
       6     -3.7974   -0.8014   -1.7030    1.2186   -0.2476   24.9305
-------------------------------------------------------------------------------


  Elastic Compliance Matrix: (Units=1/GPa)

-------------------------------------------------------------------------------
  Indices      1         2         3         4         5         6    
-------------------------------------------------------------------------------
       1    0.032141 -0.006399 -0.014871 -0.001018 -0.004106  0.003683
       2   -0.006399  0.017498 -0.004037  0.001252 -0.002573 -0.000775
       3   -0.014871 -0.004037  0.031624  0.000385  0.001431 -0.000239
       4   -0.001018  0.001252  0.000385  0.087342 -0.000604 -0.004364
       5   -0.004106 -0.002573  0.001431 -0.000604  0.042375 -0.000160
       6    0.003683 -0.000775 -0.000239 -0.004364 -0.000160  0.040843
-------------------------------------------------------------------------------

  Mechanical properties :

-------------------------------------------------------------------------------
  Convention :                    Reuss         Voigt         Hill
-------------------------------------------------------------------------------
  Bulk  Modulus (GPa)     =      32.62689      34.36814      33.49751
  Shear Modulus (GPa)     =      15.99214      18.58880      17.29047
-------------------------------------------------------------------------------
  Velocity S-wave (km/s)  =       2.86295       3.08664       2.97690
  Velocity P-wave (km/s)  =       5.25842       5.50617       5.38372
-------------------------------------------------------------------------------
  Compressibility (1/GPa) =    0.03064957
-------------------------------------------------------------------------------
  Stress axis :                     x             y             z
-------------------------------------------------------------------------------
  Youngs Moduli (GPa)     =      31.11250      57.14991      31.62170
-------------------------------------------------------------------------------
  Poissons Ratio (x)      =                     0.36569       0.47023
  Poissons Ratio (y)      =       0.19908                     0.12767
  Poissons Ratio (z)      =       0.46266       0.23074
-------------------------------------------------------------------------------


  Piezoelectric Strain Matrix: (Units=C/m**2)

-------------------------------------------------------------------------------
  Indices      1         2         3         4         5         6    
-------------------------------------------------------------------------------
       x     0.32499   0.50197  -0.34947  -0.12670  -0.33411  -0.30920
       y    -0.03074   0.60546  -0.37385  -0.11705  -0.38942   0.24961
       z    -0.42477  -0.47297   0.28548  -0.27656  -0.43759  -0.10662
-------------------------------------------------------------------------------


  Piezoelectric Stress Matrix: (Units=10**-11 C/N)

-------------------------------------------------------------------------------
  Indices      1         2         3         4         5         6    
-------------------------------------------------------------------------------
       x     1.27925   0.90553  -1.83639  -0.93520  -1.71579  -1.11306
       y     0.33345   1.29624  -1.44719  -1.04321  -1.84374   1.02750
       z    -1.31860  -0.58483   1.65471  -2.34759  -1.49895  -0.43440
-------------------------------------------------------------------------------


  Static dielectric constant tensor : 

-------------------------------------------------------------------------------
              x         y         z
-------------------------------------------------------------------------------
       x     3.97944   0.05558  -0.06507
       y     0.05558   4.08695  -0.02299
       z    -0.06507  -0.02299   3.25139
--------------------------------------------------------------------------------

  High frequency dielectric constant tensor : 

-------------------------------------------------------------------------------
              x         y         z
-------------------------------------------------------------------------------
       x     1.67726  -0.00051   0.00106
       y    -0.00051   1.68449  -0.00052
       z     0.00106  -0.00052   1.61887
-------------------------------------------------------------------------------

  Static refractive indices : 

-------------------------------------------------------------------------------
    1 =    1.80145      2 =    1.98984      3 =    2.02807
-------------------------------------------------------------------------------

  High frequency refractive indices : 

-------------------------------------------------------------------------------
    1 =    1.27234      2 =    1.29508      3 =    1.29789
-------------------------------------------------------------------------------


  Time to end of optimisation =       9.2290 seconds


  Peak dynamic memory used =       5.01 MB 


  Timing analysis for GULP :

--------------------------------------------------------------------------------
  Task / Subroutine                                          Time (Seconds)
--------------------------------------------------------------------------------
  Calculation of reciprocal space energy and derivatives          0.6015
  Calculation of real space energy and derivatives                5.8880
  Calculation of three-body energy and derivatives                0.5430
  Calculation and manipulation of Hessian matrix                  2.9245
  Calculation of matrix inversion                                 0.0335
  Global summation overhead                                       0.0001
--------------------------------------------------------------------------------
  Total CPU time                                                  9.2290
--------------------------------------------------------------------------------


  Dump file written as c00139.vasp.grs
  CIF file written as c00139.vasp.cif


  Job Finished at 11:50.41  7th October    2025                               

