********************************************************************************
*                       GENERAL UTILITY LATTICE PROGRAM                        *
*                                 Julian Gale                                  *
*                       Curtin Institute for Computation                       *
*                    School of Molecular and Life Sciences                     *
*                    Curtin University, Western Australia                      *
********************************************************************************
* Version = 6.1.2 * Last modified =   3rd November 2022                        *
********************************************************************************
*  optimise     - perform optimisation run                                     *
*  conp         - constant pressure calculation                                *
*  property     - calculate properties for final geometry                      *
********************************************************************************

  Job Started  at 11:49.15  7th October    2025                               

  Number of CPUs =     1


  Total number of configurations input =      1

********************************************************************************
*  Input for Configuration =   1 : c00132.vasp                                 *
********************************************************************************

  Formula = Ge3Si21O48                                                  

  Number of irreducible atoms/shells =     120


  Total number atoms/shells =     120

  Dimensionality = 3               :  Bulk   



  Cartesian lattice vectors (Angstroms) :

       17.182800    0.000000    0.000000
        0.000000    7.513760    0.000000
        0.000000    0.000000   10.447700

  Cell parameters (Angstroms/Degrees):

  a =      17.1828    alpha =  90.0000
  b =       7.5138    beta  =  90.0000
  c =      10.4477    gamma =  90.0000

  Initial cell volume =        1348.875752 Angs**3

  Temperature of configuration =   0.00     K 

  Pressure of configuration =         0.000 GPa 

  Fractional coordinates of asymmetric unit :

--------------------------------------------------------------------------------
   No.  Atomic       x           y          z         Charge      Occupancy
        Label      (Frac)      (Frac)     (Frac)        (e)         (Frac)  
--------------------------------------------------------------------------------
      1 Ge    c    0.556730    0.000000    0.122130     4.00000    1.000000    
      2 Ge    c    0.056730 *  0.000000 *  0.877870 *   4.00000    1.000000    
      3 Ge    c    0.339810 *  0.706090 *  0.273440 *   4.00000    1.000000    
      4 Si    c    0.052090 *  0.000000 *  0.372270 *   4.00000    1.000000    
      5 Si    c    0.447910 *  0.000000 *  0.372270 *   4.00000    1.000000    
      6 Si    c    0.947910 *  0.000000 *  0.627730 *   4.00000    1.000000    
      7 Si    c    0.552090 *  0.000000 *  0.627730 *   4.00000    1.000000    
      8 Si    c    0.943270 *  0.000000 *  0.122130 *   4.00000    1.000000    
      9 Si    c    0.443270 *  0.000000 *  0.877870 *   4.00000    1.000000    
     10 Si    c    0.160190 *  0.293910 *  0.273440 *   4.00000    1.000000    
     11 Si    c    0.839810 *  0.293910 *  0.726560 *   4.00000    1.000000    
     12 Si    c    0.660190 *  0.706090 *  0.726560 *   4.00000    1.000000    
     13 Si    c    0.839810 *  0.706090 *  0.726560 *   4.00000    1.000000    
     14 Si    c    0.660190 *  0.293910 *  0.726560 *   4.00000    1.000000    
     15 Si    c    0.160190 *  0.706090 *  0.273440 *   4.00000    1.000000    
     16 Si    c    0.339810 *  0.293910 *  0.273440 *   4.00000    1.000000    
     17 Si    c    0.660660 *  0.294090 *  0.017440 *   4.00000    1.000000    
     18 Si    c    0.839340 *  0.705910 *  0.017440 *   4.00000    1.000000    
     19 Si    c    0.339340 *  0.294090 *  0.982560 *   4.00000    1.000000    
     20 Si    c    0.160660 *  0.705910 *  0.982560 *   4.00000    1.000000    
     21 Si    c    0.339340 *  0.705910 *  0.982560 *   4.00000    1.000000    
     22 Si    c    0.160660 *  0.294090 *  0.982560 *   4.00000    1.000000    
     23 Si    c    0.660660 *  0.705910 *  0.017440 *   4.00000    1.000000    
     24 Si    c    0.839340 *  0.294090 *  0.017440 *   4.00000    1.000000    
     25 O2    c    0.106570 *  0.174340 *  0.366200 *   0.87073    1.000000    
     26 O3    c    0.393430 *  0.825660 *  0.366200 *   1.33043    1.000000    
     27 O2    c    0.893430 *  0.174340 *  0.633800 *   0.87073    1.000000    
     28 O2    c    0.606570 *  0.825660 *  0.633800 *   0.87073    1.000000    
     29 O2    c    0.893430 *  0.825660 *  0.633800 *   0.87073    1.000000    
     30 O2    c    0.606570 *  0.174340 *  0.633800 *   0.87073    1.000000    
     31 O2    c    0.106570 *  0.825660 *  0.366200 *   0.87073    1.000000    
     32 O2    c    0.393430 *  0.174340 *  0.366200 *   0.87073    1.000000    
     33 O2    c    0.000000 *  0.000000 *  0.500000 *   0.87073    1.000000    
     34 O2    c    0.500000 *  0.000000 *  0.500000 *   0.87073    1.000000    
     35 O2    c    0.994520 *  0.000000 *  0.250840 *   0.87073    1.000000    
     36 O3    c    0.505480 *  0.000000 *  0.250840 *   1.33043    1.000000    
     37 O3    c    0.005480 *  0.000000 *  0.749160 *   1.33043    1.000000    
     38 O2    c    0.494520 *  0.000000 *  0.749160 *   0.87073    1.000000    
     39 O3    c    0.610230 *  0.175520 *  0.115390 *   1.33043    1.000000    
     40 O2    c    0.889770 *  0.824480 *  0.115390 *   0.87073    1.000000    
     41 O2    c    0.389770 *  0.175520 *  0.884610 *   0.87073    1.000000    
     42 O3    c    0.110230 *  0.824480 *  0.884610 *   1.33043    1.000000    
     43 O2    c    0.389770 *  0.824480 *  0.884610 *   0.87073    1.000000    
     44 O3    c    0.110230 *  0.175520 *  0.884610 *   1.33043    1.000000    
     45 O3    c    0.610230 *  0.824480 *  0.115390 *   1.33043    1.000000    
     46 O2    c    0.889770 *  0.175520 *  0.115390 *   0.87073    1.000000    
     47 O3    c    0.500000 *  0.000000 *  0.000000 *   1.33043    1.000000    
     48 O3    c    0.000000 *  0.000000 *  0.000000 *   1.33043    1.000000    
     49 O2    c    0.151750 *  0.500000 *  0.313330 *   0.87073    1.000000    
     50 O3    c    0.348250 *  0.500000 *  0.313330 *   1.33043    1.000000    
     51 O2    c    0.848250 *  0.500000 *  0.686670 *   0.87073    1.000000    
     52 O2    c    0.651750 *  0.500000 *  0.686670 *   0.87073    1.000000    
     53 O2    c    0.250000 *  0.234950 *  0.285720 *   0.87073    1.000000    
     54 O3    c    0.250000 *  0.765050 *  0.285720 *   1.33043    1.000000    
     55 O2    c    0.750000 *  0.234950 *  0.714280 *   0.87073    1.000000    
     56 O2    c    0.750000 *  0.765050 *  0.714280 *   0.87073    1.000000    
     57 O2    c    0.131410 *  0.268650 *  0.127790 *   0.87073    1.000000    
     58 O3    c    0.368590 *  0.731350 *  0.127790 *   1.33043    1.000000    
     59 O2    c    0.868590 *  0.268650 *  0.872210 *   0.87073    1.000000    
     60 O2    c    0.631410 *  0.731350 *  0.872210 *   0.87073    1.000000    
     61 O2    c    0.868590 *  0.731350 *  0.872210 *   0.87073    1.000000    
     62 O2    c    0.631410 *  0.268650 *  0.872210 *   0.87073    1.000000    
     63 O2    c    0.131410 *  0.731350 *  0.127790 *   0.87073    1.000000    
     64 O2    c    0.368590 *  0.268650 *  0.127790 *   0.87073    1.000000    
     65 O2    c    0.653920 *  0.500000 *  0.058200 *   0.87073    1.000000    
     66 O2    c    0.846080 *  0.500000 *  0.058200 *   0.87073    1.000000    
     67 O2    c    0.346080 *  0.500000 *  0.941800 *   0.87073    1.000000    
     68 O2    c    0.153920 *  0.500000 *  0.941800 *   0.87073    1.000000    
     69 O2    c    0.750000 *  0.231060 *  0.027050 *   0.87073    1.000000    
     70 O2    c    0.750000 *  0.768940 *  0.027050 *   0.87073    1.000000    
     71 O2    c    0.250000 *  0.231060 *  0.972950 *   0.87073    1.000000    
     72 O2    c    0.250000 *  0.768940 *  0.972950 *   0.87073    1.000000    
     73 O2    s    0.106570 *  0.174340 *  0.366200 *  -2.87073    1.000000    
     74 O3    s    0.393430 *  0.825660 *  0.366200 *  -3.33043    1.000000    
     75 O2    s    0.893430 *  0.174340 *  0.633800 *  -2.87073    1.000000    
     76 O2    s    0.606570 *  0.825660 *  0.633800 *  -2.87073    1.000000    
     77 O2    s    0.893430 *  0.825660 *  0.633800 *  -2.87073    1.000000    
     78 O2    s    0.606570 *  0.174340 *  0.633800 *  -2.87073    1.000000    
     79 O2    s    0.106570 *  0.825660 *  0.366200 *  -2.87073    1.000000    
     80 O2    s    0.393430 *  0.174340 *  0.366200 *  -2.87073    1.000000    
     81 O2    s    0.000000 *  0.000000 *  0.500000 *  -2.87073    1.000000    
     82 O2    s    0.500000 *  0.000000 *  0.500000 *  -2.87073    1.000000    
     83 O2    s    0.994520 *  0.000000 *  0.250840 *  -2.87073    1.000000    
     84 O3    s    0.505480 *  0.000000 *  0.250840 *  -3.33043    1.000000    
     85 O3    s    0.005480 *  0.000000 *  0.749160 *  -3.33043    1.000000    
     86 O2    s    0.494520 *  0.000000 *  0.749160 *  -2.87073    1.000000    
     87 O3    s    0.610230 *  0.175520 *  0.115390 *  -3.33043    1.000000    
     88 O2    s    0.889770 *  0.824480 *  0.115390 *  -2.87073    1.000000    
     89 O2    s    0.389770 *  0.175520 *  0.884610 *  -2.87073    1.000000    
     90 O3    s    0.110230 *  0.824480 *  0.884610 *  -3.33043    1.000000    
     91 O2    s    0.389770 *  0.824480 *  0.884610 *  -2.87073    1.000000    
     92 O3    s    0.110230 *  0.175520 *  0.884610 *  -3.33043    1.000000    
     93 O3    s    0.610230 *  0.824480 *  0.115390 *  -3.33043    1.000000    
     94 O2    s    0.889770 *  0.175520 *  0.115390 *  -2.87073    1.000000    
     95 O3    s    0.500000 *  0.000000 *  0.000000 *  -3.33043    1.000000    
     96 O3    s    0.000000 *  0.000000 *  0.000000 *  -3.33043    1.000000    
     97 O2    s    0.151750 *  0.500000 *  0.313330 *  -2.87073    1.000000    
     98 O3    s    0.348250 *  0.500000 *  0.313330 *  -3.33043    1.000000    
     99 O2    s    0.848250 *  0.500000 *  0.686670 *  -2.87073    1.000000    
    100 O2    s    0.651750 *  0.500000 *  0.686670 *  -2.87073    1.000000    
    101 O2    s    0.250000 *  0.234950 *  0.285720 *  -2.87073    1.000000    
    102 O3    s    0.250000 *  0.765050 *  0.285720 *  -3.33043    1.000000    
    103 O2    s    0.750000 *  0.234950 *  0.714280 *  -2.87073    1.000000    
    104 O2    s    0.750000 *  0.765050 *  0.714280 *  -2.87073    1.000000    
    105 O2    s    0.131410 *  0.268650 *  0.127790 *  -2.87073    1.000000    
    106 O3    s    0.368590 *  0.731350 *  0.127790 *  -3.33043    1.000000    
    107 O2    s    0.868590 *  0.268650 *  0.872210 *  -2.87073    1.000000    
    108 O2    s    0.631410 *  0.731350 *  0.872210 *  -2.87073    1.000000    
    109 O2    s    0.868590 *  0.731350 *  0.872210 *  -2.87073    1.000000    
    110 O2    s    0.631410 *  0.268650 *  0.872210 *  -2.87073    1.000000    
    111 O2    s    0.131410 *  0.731350 *  0.127790 *  -2.87073    1.000000    
    112 O2    s    0.368590 *  0.268650 *  0.127790 *  -2.87073    1.000000    
    113 O2    s    0.653920 *  0.500000 *  0.058200 *  -2.87073    1.000000    
    114 O2    s    0.846080 *  0.500000 *  0.058200 *  -2.87073    1.000000    
    115 O2    s    0.346080 *  0.500000 *  0.941800 *  -2.87073    1.000000    
    116 O2    s    0.153920 *  0.500000 *  0.941800 *  -2.87073    1.000000    
    117 O2    s    0.750000 *  0.231060 *  0.027050 *  -2.87073    1.000000    
    118 O2    s    0.750000 *  0.768940 *  0.027050 *  -2.87073    1.000000    
    119 O2    s    0.250000 *  0.231060 *  0.972950 *  -2.87073    1.000000    
    120 O2    s    0.250000 *  0.768940 *  0.972950 *  -2.87073    1.000000    
--------------------------------------------------------------------------------



********************************************************************************
*  General input information                                                   *
********************************************************************************

  Species output for all configurations : 

--------------------------------------------------------------------------------
  Species    Type    Atomic    Atomic    Charge       Radii (Angs)     Library
                     Number     Mass       (e)     Cova   Ionic  VDW   Symbol
--------------------------------------------------------------------------------
    Ge       Core       32      72.61   4.000000   1.170  0.000  1.750 Ge       
    Si       Core       14      28.09   4.000000   1.200  0.000  2.100 Si       
    O1       Core        8      16.00   1.733957   0.730  0.000  0.000 O1       
    O2       Core        8      16.00   0.870733   0.730  0.000  1.360 O2       
    O3       Core        8      16.00   1.330431   0.730  0.000  1.360 O3       
    O1       Shell       8       0.00  -3.733957   0.730  0.000  0.000 O1       
    O2       Shell       8       0.00  -2.870733   0.730  0.000  0.000 O2       
    O3       Shell       8       0.00  -3.330431   0.730  0.000  0.000 O3       
--------------------------------------------------------------------------------


  Lattice summation method               =    Ewald          (3-D)
                                         =    Parry          (2-D)
                                         =    Saunders et al (1-D)
  Accuracy factor for lattice sums       =   12.000


  Analytic derivatives to be used

  Time limit = Infinity

  Maximum range for interatomic potentials =    100000.000000 Angstroms

  General interatomic potentials :

--------------------------------------------------------------------------------
Atom  Types   Potential      Parameter       Value         Units   Cutoffs(Ang)
  1     2                                                            Min /  Max 
--------------------------------------------------------------------------------
Si   c O1   s Buckingham    Buckingham A     1315.2478    eV        0.000 16.000
                            Buckingham rho  0.31775900    Ang       
                            Buckingham C     10.141118    eV*Ang^6  
--------------------------------------------------------------------------------
Si   c O2   s Buckingham    Buckingham A     1315.2478    eV        0.000 16.000
                            Buckingham rho  0.31775900    Ang       
                            Buckingham C     10.141118    eV*Ang^6  
--------------------------------------------------------------------------------
Si   c O3   s Buckingham    Buckingham A     1315.2478    eV        0.000 16.000
                            Buckingham rho  0.31775900    Ang       
                            Buckingham C     10.141118    eV*Ang^6  
--------------------------------------------------------------------------------
Ge   c O1   s Buckingham    Buckingham A     1497.3996    eV        0.000 16.000
                            Buckingham rho  0.32564600    Ang       
                            Buckingham C     16.808599    eV*Ang^6  
--------------------------------------------------------------------------------
Ge   c O2   s Buckingham    Buckingham A     1497.3996    eV        0.000 16.000
                            Buckingham rho  0.32564600    Ang       
                            Buckingham C     16.808599    eV*Ang^6  
--------------------------------------------------------------------------------
Ge   c O3   s Buckingham    Buckingham A     1497.3996    eV        0.000 16.000
                            Buckingham rho  0.32564600    Ang       
                            Buckingham C     16.808599    eV*Ang^6  
--------------------------------------------------------------------------------
O1   s O1   s Buckingham    Buckingham A     22764.000    eV        0.000 16.000
                            Buckingham rho  0.14900000    Ang       
                            Buckingham C     10.937044    eV*Ang^6  
--------------------------------------------------------------------------------
O1   s O2   s Buckingham    Buckingham A     22764.000    eV        0.000 16.000
                            Buckingham rho  0.14900000    Ang       
                            Buckingham C     10.937044    eV*Ang^6  
--------------------------------------------------------------------------------
O1   s O3   s Buckingham    Buckingham A     22764.000    eV        0.000 16.000
                            Buckingham rho  0.14900000    Ang       
                            Buckingham C     10.937044    eV*Ang^6  
--------------------------------------------------------------------------------
O2   s O2   s Buckingham    Buckingham A     22764.000    eV        0.000 16.000
                            Buckingham rho  0.14900000    Ang       
                            Buckingham C     10.937044    eV*Ang^6  
--------------------------------------------------------------------------------
O2   s O3   s Buckingham    Buckingham A     22764.000    eV        0.000 16.000
                            Buckingham rho  0.14900000    Ang       
                            Buckingham C     10.937044    eV*Ang^6  
--------------------------------------------------------------------------------
O3   s O3   s Buckingham    Buckingham A     22764.000    eV        0.000 16.000
                            Buckingham rho  0.14900000    Ang       
                            Buckingham C     10.937044    eV*Ang^6  
--------------------------------------------------------------------------------
O1   c O1   s Spring (c-s)  Spring k 2       180.31577    eV*Ang^-2 0.000  0.800
                            Spring k 4       0.0000000    eV*Ang^-4 
--------------------------------------------------------------------------------
O2   c O2   s Spring (c-s)  Spring k 2       75.969800    eV*Ang^-2 0.000  0.800
                            Spring k 4       0.0000000    eV*Ang^-4 
--------------------------------------------------------------------------------
O3   c O3   s Spring (c-s)  Spring k 2       128.14270    eV*Ang^-2 0.000  0.800
                            Spring k 4       0.0000000    eV*Ang^-4 
--------------------------------------------------------------------------------

  General Three-body potentials :

--------------------------------------------------------------------------------
  Atoms       Potential      Parameter       Value         Units   Cutoffs(Ang)
  1 / 2 / 3                                                          Min /  Max 
--------------------------------------------------------------------------------
Si    core    Harmonic      Three-body cnst  1.2614000    eV*rad^-2 0.000  1.900
O1    shel                  Three-body angl  109.47000    degrees   0.000  1.900
O1    shel                  Three-body k4    0.0000000    eV*rad^-4 0.000  3.500
                            Three-body k3    0.0000000    eV*rad^-3 
--------------------------------------------------------------------------------
Si    core    Harmonic      Three-body cnst  1.2614000    eV*rad^-2 0.000  1.900
O1    shel                  Three-body angl  109.47000    degrees   0.000  1.900
õ(1   shel                  Three-body k4    0.0000000    eV*rad^-4 0.000  3.500
                            Three-body k3    0.0000000    eV*rad^-3 
--------------------------------------------------------------------------------
Si    core    Harmonic      Three-body cnst  1.2614000    eV*rad^-2 0.000  1.900
õ(1   shel                  Three-body angl  109.47000    degrees   0.000  1.900
õ(1   shel                  Three-body k4    0.0000000    eV*rad^-4 0.000  3.500
                            Three-body k3    0.0000000    eV*rad^-3 
--------------------------------------------------------------------------------
Si    core    Harmonic      Three-body cnst  1.2614000    eV*rad^-2 0.000  1.900
O1    shel                  Three-body angl  109.47000    degrees   0.000  1.900
O2    shel                  Three-body k4    0.0000000    eV*rad^-4 0.000  3.500
                            Three-body k3    0.0000000    eV*rad^-3 
--------------------------------------------------------------------------------
Si    core    Harmonic      Three-body cnst  1.2614000    eV*rad^-2 0.000  1.900
O1    shel                  Three-body angl  109.47000    degrees   0.000  1.900
õ(2   shel                  Three-body k4    0.0000000    eV*rad^-4 0.000  3.500
                            Three-body k3    0.0000000    eV*rad^-3 
--------------------------------------------------------------------------------
Si    core    Harmonic      Three-body cnst  1.2614000    eV*rad^-2 0.000  1.900
O2    shel                  Three-body angl  109.47000    degrees   0.000  1.900
õ(1   shel                  Three-body k4    0.0000000    eV*rad^-4 0.000  3.500
                            Three-body k3    0.0000000    eV*rad^-3 
--------------------------------------------------------------------------------
Si    core    Harmonic      Three-body cnst  1.2614000    eV*rad^-2 0.000  1.900
õ(1   shel                  Three-body angl  109.47000    degrees   0.000  1.900
õ(2   shel                  Three-body k4    0.0000000    eV*rad^-4 0.000  3.500
                            Three-body k3    0.0000000    eV*rad^-3 
--------------------------------------------------------------------------------
Si    core    Harmonic      Three-body cnst  1.2614000    eV*rad^-2 0.000  1.900
O2    shel                  Three-body angl  109.47000    degrees   0.000  1.900
O2    shel                  Three-body k4    0.0000000    eV*rad^-4 0.000  3.500
                            Three-body k3    0.0000000    eV*rad^-3 
--------------------------------------------------------------------------------
Si    core    Harmonic      Three-body cnst  1.2614000    eV*rad^-2 0.000  1.900
O2    shel                  Three-body angl  109.47000    degrees   0.000  1.900
õ(2   shel                  Three-body k4    0.0000000    eV*rad^-4 0.000  3.500
                            Three-body k3    0.0000000    eV*rad^-3 
--------------------------------------------------------------------------------
Si    core    Harmonic      Three-body cnst  1.2614000    eV*rad^-2 0.000  1.900
õ(2   shel                  Three-body angl  109.47000    degrees   0.000  1.900
õ(2   shel                  Three-body k4    0.0000000    eV*rad^-4 0.000  3.500
                            Three-body k3    0.0000000    eV*rad^-3 
--------------------------------------------------------------------------------

********************************************************************************
*  Output for configuration   1 : c00132.vasp                                  *
********************************************************************************


  Components of energy : 

--------------------------------------------------------------------------------
  Interatomic potentials     =         760.38022786 eV    
  Three-body potentials      =           0.01058718 eV    
  Monopole - monopole (real) =       -2676.00317478 eV    
  Monopole - monopole (recip)=       -1115.35404472 eV    
  Monopole - monopole (total)=       -3791.35721950 eV    
--------------------------------------------------------------------------------
  Total lattice energy       =       -3030.96640446 eV    
--------------------------------------------------------------------------------
  Total lattice energy       =         -292441.9255 kJ/(mole unit cells)
--------------------------------------------------------------------------------


  Number of variables =      363

  Maximum number of calculations  =          1000
  Maximum Hessian update interval =            10
  Maximum step size               =   0.100000000
  Maximum parameter tolerance     =   0.000010000
  Maximum function  tolerance     =   0.000010000
  Maximum gradient  tolerance     =   0.001000000
  Maximum gradient  component     =   0.010000000

  Symmetry not applied to optimisation

  Cell parameters to be optimised using strains

  Newton-Raphson optimiser to be used

  BFGS hessian update to be used

  Lower half triangular hessian to be used

  Minimiser to switch to RFO
  When gradient norm is less than     0.050000

  Dumpfile to be written after every cycle

  Start of bulk optimisation :

  Cycle:      0 Energy:     -3030.966404  Gnorm:      4.355711  CPU:    0.129
  ** Hessian calculated **
  Cycle:      1 Energy:     -3061.825632  Gnorm:      0.979133  CPU:    0.300
  ** Hessian calculated **
  Cycle:      2 Energy:     -3065.607392  Gnorm:      0.552642  CPU:    0.595
  ** Hessian calculated **
  Cycle:      3 Energy:     -3066.424414  Gnorm:      0.309190  CPU:    0.839
  Cycle:      4 Energy:     -3066.696068  Gnorm:      0.202272  CPU:    0.975
  Cycle:      5 Energy:     -3066.925750  Gnorm:      0.156441  CPU:    1.137
  Cycle:      6 Energy:     -3067.140645  Gnorm:      0.121043  CPU:    1.299
  Cycle:      7 Energy:     -3067.281268  Gnorm:      0.100535  CPU:    1.435
  Cycle:      8 Energy:     -3067.367393  Gnorm:      0.075948  CPU:    1.570
  Cycle:      9 Energy:     -3067.414678  Gnorm:      0.065574  CPU:    1.706
  Cycle:     10 Energy:     -3067.437260  Gnorm:      0.049562  CPU:    1.843
  ** Hessian has required structure
  Cycle:     11 Energy:     -3067.457072  Gnorm:      0.095787  CPU:    2.025
  ** Hessian has required structure
  Cycle:     12 Energy:     -3067.474312  Gnorm:      0.066104  CPU:    2.206
  ** Hessian has wrong structure
  ** Imaginary eigenvectors =   5
  ** Hessian has wrong structure
  ** Imaginary eigenvectors =   5
  Cycle:     13 Energy:     -3067.493350  Gnorm:      0.067429  CPU:    2.985
  ** Hessian has wrong structure
  ** Imaginary eigenvectors =   5
  Cycle:     14 Energy:     -3067.529066  Gnorm:      0.072312  CPU:    3.416
  ** Hessian has wrong structure
  ** Imaginary eigenvectors =   4
  Cycle:     15 Energy:     -3067.580856  Gnorm:      0.073689  CPU:    3.979
  ** Hessian has wrong structure
  ** Imaginary eigenvectors =   2
  Cycle:     16 Energy:     -3067.643986  Gnorm:      0.085377  CPU:    4.505
  ** Hessian has wrong structure
  ** Imaginary eigenvectors =   1
  ** Hessian has required structure
  Cycle:     17 Energy:     -3067.881502  Gnorm:      0.063161  CPU:    5.073
  ** Hessian has required structure
  Cycle:     18 Energy:     -3068.037779  Gnorm:      0.037541  CPU:    5.254
  ** Hessian has required structure
  Cycle:     19 Energy:     -3068.076469  Gnorm:      0.042284  CPU:    5.419
  ** Hessian has required structure
  Cycle:     20 Energy:     -3068.126320  Gnorm:      0.024603  CPU:    5.583
  ** Hessian has required structure
  Cycle:     21 Energy:     -3068.140406  Gnorm:      0.021716  CPU:    5.771
  ** Hessian has required structure
  Cycle:     22 Energy:     -3068.157738  Gnorm:      0.018765  CPU:    5.936
  ** Hessian has required structure
  Cycle:     23 Energy:     -3068.170066  Gnorm:      0.022470  CPU:    6.123
  ** Hessian has required structure
  Cycle:     24 Energy:     -3068.182016  Gnorm:      0.017553  CPU:    6.290
  ** Hessian has required structure
  Cycle:     25 Energy:     -3068.188281  Gnorm:      0.015351  CPU:    6.456
  ** Hessian has required structure
  Cycle:     26 Energy:     -3068.192325  Gnorm:      0.017735  CPU:    6.624
  ** Hessian has required structure
  Cycle:     27 Energy:     -3068.204281  Gnorm:      0.012858  CPU:    6.892
  ** Hessian has required structure
  Cycle:     28 Energy:     -3068.208916  Gnorm:      0.010955  CPU:    7.084
  ** Hessian has required structure
  Cycle:     29 Energy:     -3068.211706  Gnorm:      0.006624  CPU:    7.274
  ** Hessian has required structure
  Cycle:     30 Energy:     -3068.213319  Gnorm:      0.009198  CPU:    7.480
  ** Hessian has required structure
  Cycle:     31 Energy:     -3068.214554  Gnorm:      0.005047  CPU:    7.676
  ** Hessian has required structure
  Cycle:     32 Energy:     -3068.215366  Gnorm:      0.005642  CPU:    7.893
  ** Hessian has required structure
  Cycle:     33 Energy:     -3068.216320  Gnorm:      0.004494  CPU:    8.110
  ** Hessian has required structure
  Cycle:     34 Energy:     -3068.217089  Gnorm:      0.006907  CPU:    8.303
  ** Hessian has required structure
  Cycle:     35 Energy:     -3068.218449  Gnorm:      0.006879  CPU:    8.521
  ** Hessian has required structure
  Cycle:     36 Energy:     -3068.219751  Gnorm:      0.005216  CPU:    8.713
  ** Hessian has required structure
  Cycle:     37 Energy:     -3068.221633  Gnorm:      0.005182  CPU:    9.021
  ** Hessian has required structure
  Cycle:     38 Energy:     -3068.222824  Gnorm:      0.004994  CPU:    9.212
  ** Hessian has required structure
  Cycle:     39 Energy:     -3068.223410  Gnorm:      0.002599  CPU:    9.381
  ** Hessian has required structure
  Cycle:     40 Energy:     -3068.223831  Gnorm:      0.003091  CPU:    9.575
  ** Hessian has required structure
  Cycle:     41 Energy:     -3068.224192  Gnorm:      0.001884  CPU:    9.754
  ** Hessian has required structure
  Cycle:     42 Energy:     -3068.224354  Gnorm:      0.001172  CPU:    9.936
  ** Hessian has required structure
  Cycle:     43 Energy:     -3068.224432  Gnorm:      0.000680  CPU:   10.118
  ** Hessian has required structure
  Cycle:     44 Energy:     -3068.224464  Gnorm:      0.000385  CPU:   10.301
  ** Hessian has required structure
  Cycle:     45 Energy:     -3068.224474  Gnorm:      0.000205  CPU:   10.485
  ** Hessian has required structure
  Cycle:     46 Energy:     -3068.224476  Gnorm:      0.000149  CPU:   10.629
  ** Hessian has required structure
  Cycle:     47 Energy:     -3068.224478  Gnorm:      0.000120  CPU:   10.859
  ** Hessian has required structure
  Cycle:     48 Energy:     -3068.224478  Gnorm:      0.000119  CPU:   11.027
  ** Hessian has required structure
  Cycle:     49 Energy:     -3068.224478  Gnorm:      0.000119  CPU:   11.176
  ** Hessian has required structure
  Cycle:     50 Energy:     -3068.224478  Gnorm:      0.000119  CPU:   11.324
  ** Hessian has required structure
  Cycle:     51 Energy:     -3068.224478  Gnorm:      0.000118  CPU:   11.472
  ** Hessian has required structure
  Cycle:     52 Energy:     -3068.224478  Gnorm:      0.000118  CPU:   11.621
  ** Hessian has required structure
  Cycle:     53 Energy:     -3068.224478  Gnorm:      0.000118  CPU:   11.767
  ** Hessian has required structure
  Cycle:     54 Energy:     -3068.224478  Gnorm:      0.000184  CPU:   12.020
  ** Hessian has required structure
  Cycle:     55 Energy:     -3068.224479  Gnorm:      0.000147  CPU:   12.251
  ** Hessian has required structure
  Cycle:     56 Energy:     -3068.224479  Gnorm:      0.000114  CPU:   12.402
  ** Hessian has required structure
  Cycle:     57 Energy:     -3068.224480  Gnorm:      0.000086  CPU:   12.550
  ** Hessian has required structure


  **** Optimisation achieved ****


  Final energy =   -3068.22448025 eV      
  Final Gnorm  =       0.00006385

  Components of energy : 

--------------------------------------------------------------------------------
  Interatomic potentials     =         816.96489090 eV    
  Three-body potentials      =           0.23646702 eV    
  Monopole - monopole (real) =       -2207.22042070 eV    
  Monopole - monopole (recip)=       -1678.20541747 eV    
  Monopole - monopole (total)=       -3885.42583817 eV    
--------------------------------------------------------------------------------
  Total lattice energy       =       -3068.22448025 eV    
--------------------------------------------------------------------------------
  Total lattice energy       =         -296036.7602 kJ/(mole unit cells)
--------------------------------------------------------------------------------

  Final fractional coordinates of atoms :

--------------------------------------------------------------------------------
   No.  Atomic        x           y          z          Radius
        Label       (Frac)      (Frac)     (Frac)       (Angs) 
--------------------------------------------------------------------------------
     1  Ge    c     0.556730    0.000000    0.122130    0.000000
     2  Ge    c     0.061820    0.977834    0.877759    0.000000
     3  Ge    c     0.332523    0.714210    0.292480    0.000000
     4  Si    c     0.046400    0.976192    0.365955    0.000000
     5  Si    c     0.452450    0.994392    0.382347    0.000000
     6  Si    c     0.952681    0.981370    0.628358    0.000000
     7  Si    c     0.551797    0.002505    0.635625    0.000000
     8  Si    c     0.946417    0.991835    0.115838    0.000000
     9  Si    c     0.447352    0.991465    0.881829    0.000000
    10  Si    c     0.167821    0.257102    0.279801    0.000000
    11  Si    c     0.834851    0.268811    0.725887    0.000000
    12  Si    c     0.669281    0.715746    0.730016    0.000000
    13  Si    c     0.850548    0.673902    0.720746    0.000000
    14  Si    c     0.653567    0.308068    0.732932    0.000000
    15  Si    c     0.148094    0.665143    0.281582    0.000000
    16  Si    c     0.350430    0.300695    0.291148    0.000000
    17  Si    c     0.651225    0.322207    0.030051    0.000000
    18  Si    c     0.856569    0.670642    0.018715    0.000000
    19  Si    c     0.358643    0.310496    0.993681    0.000000
    20  Si    c     0.153300    0.656220    0.982890    0.000000
    21  Si    c     0.335253    0.712071    0.987869    0.000000
    22  Si    c     0.176842    0.256456    0.982703    0.000000
    23  Si    c     0.674938    0.722069    0.027386    0.000000
    24  Si    c     0.833377    0.273467    0.024891    0.000000
    25  O2    c     0.117025    0.119924    0.363716    0.000000
    26  O3    c     0.385326    0.846822    0.393459    0.000000
    27  O2    c     0.885801    0.132068    0.642703    0.000000
    28  O2    c     0.616508    0.846967    0.646395    0.000000
    29  O2    c     0.910967    0.789666    0.636772    0.000000
    30  O2    c     0.593887    0.192430    0.649510    0.000000
    31  O2    c     0.082982    0.778928    0.359652    0.000000
    32  O2    c     0.408397    0.183508    0.376620    0.000000
    33  O2    c     0.995130    0.000299    0.492683    0.000000
    34  O2    c     0.513771    0.992705    0.496991    0.000000
    35  O2    c     0.987904    0.011332    0.250265    0.000000
    36  O3    c     0.501221    0.954094    0.253595    0.000000
    37  O3    c     0.019864    0.004265    0.732108    0.000000
    38  O2    c     0.481810    0.980392    0.738881    0.000000
    39  O3    c     0.590987    0.215313    0.117961    0.000000
    40  O2    c     0.917388    0.789485    0.097566    0.000000
    41  O2    c     0.419076    0.192903    0.910416    0.000000
    42  O3    c     0.093999    0.762703    0.895774    0.000000
    43  O2    c     0.375210    0.852472    0.892239    0.000000
    44  O3    c     0.142951    0.116151    0.886650    0.000000
    45  O3    c     0.638535    0.862393    0.121850    0.000000
    46  O2    c     0.872653    0.127107    0.113968    0.000000
    47  O3    c     0.510408    0.934398    0.984696    0.000000
    48  O3    c     0.002221    0.049871    0.000312    0.000000
    49  O2    c     0.136415    0.455774    0.305454    0.000000
    50  O3    c     0.364733    0.502204    0.321690    0.000000
    51  O2    c     0.864191    0.466846    0.692966    0.000000
    52  O2    c     0.639659    0.515497    0.706766    0.000000
    53  O2    c     0.259508    0.245438    0.319083    0.000000
    54  O3    c     0.233384    0.723842    0.328202    0.000000
    55  O2    c     0.742551    0.253147    0.693053    0.000000
    56  O2    c     0.761061    0.728972    0.687980    0.000000
    57  O2    c     0.160776    0.202803    0.130974    0.000000
    58  O3    c     0.345644    0.773243    0.133839    0.000000
    59  O2    c     0.845711    0.224040    0.875451    0.000000
    60  O2    c     0.662037    0.772156    0.878222    0.000000
    61  O2    c     0.870532    0.714426    0.868719    0.000000
    62  O2    c     0.636819    0.265581    0.882149    0.000000
    63  O2    c     0.137839    0.708795    0.131314    0.000000
    64  O2    c     0.372620    0.261215    0.142188    0.000000
    65  O2    c     0.636063    0.529533    0.050995    0.000000
    66  O2    c     0.873183    0.465100    0.048591    0.000000
    67  O2    c     0.375322    0.518031    0.971199    0.000000
    68  O2    c     0.138421    0.449073    0.959678    0.000000
    69  O2    c     0.741582    0.277024    0.062848    0.000000
    70  O2    c     0.767524    0.715746    0.057341    0.000000
    71  O2    c     0.270057    0.265882    0.955366    0.000000
    72  O2    c     0.243865    0.703547    0.950145    0.000000
    73  O2    s     0.115211    0.119880    0.354682    0.000000
    74  O3    s     0.387611    0.850463    0.383941    0.000000
    75  O2    s     0.887204    0.131320    0.650606    0.000000
    76  O2    s     0.615447    0.849071    0.654566    0.000000
    77  O2    s     0.908679    0.797115    0.645192    0.000000
    78  O2    s     0.595999    0.184872    0.657281    0.000000
    79  O2    s     0.086100    0.787510    0.351996    0.000000
    80  O2    s     0.406699    0.176424    0.367850    0.000000
    81  O2    s     0.996222    0.995205    0.493602    0.000000
    82  O2    s     0.511117    0.994002    0.499866    0.000000
    83  O2    s     0.989728    0.004988    0.247550    0.000000
    84  O3    s     0.501284    0.962347    0.254711    0.000000
    85  O3    s     0.016594    0.999476    0.734373    0.000000
    86  O2    s     0.485683    0.984097    0.743540    0.000000
    87  O3    s     0.594412    0.209111    0.109312    0.000000
    88  O2    s     0.913738    0.797420    0.090723    0.000000
    89  O2    s     0.415386    0.185095    0.916655    0.000000
    90  O3    s     0.097574    0.768981    0.903403    0.000000
    91  O2    s     0.378424    0.851791    0.901649    0.000000
    92  O3    s     0.140112    0.120240    0.896294    0.000000
    93  O3    s     0.635985    0.858052    0.111596    0.000000
    94  O2    s     0.876032    0.129173    0.104134    0.000000
    95  O3    s     0.507659    0.945785    0.985406    0.000000
    96  O3    s     0.001497    0.037747    0.001852    0.000000
    97  O2    s     0.140986    0.456913    0.300202    0.000000
    98  O3    s     0.360534    0.498024    0.316001    0.000000
    99  O2    s     0.859582    0.468272    0.699465    0.000000
   100  O2    s     0.644319    0.514400    0.712047    0.000000
   101  O2    s     0.259233    0.252392    0.312004    0.000000
   102  O3    s     0.232974    0.717136    0.320548    0.000000
   103  O2    s     0.743054    0.260704    0.700820    0.000000
   104  O2    s     0.760853    0.721663    0.695910    0.000000
   105  O2    s     0.163170    0.213976    0.131427    0.000000
   106  O3    s     0.343600    0.762630    0.132299    0.000000
   107  O2    s     0.843256    0.233981    0.875210    0.000000
   108  O2    s     0.664155    0.760987    0.877705    0.000000
   109  O2    s     0.867020    0.705721    0.868865    0.000000
   110  O2    s     0.640035    0.275679    0.881530    0.000000
   111  O2    s     0.140497    0.698882    0.131642    0.000000
   112  O2    s     0.368952    0.270203    0.141830    0.000000
   113  O2    s     0.641758    0.526993    0.046252    0.000000
   114  O2    s     0.867273    0.467134    0.042923    0.000000
   115  O2    s     0.369458    0.515734    0.975286    0.000000
   116  O2    s     0.144056    0.451237    0.964601    0.000000
   117  O2    s     0.741986    0.281544    0.055101    0.000000
   118  O2    s     0.767479    0.711236    0.049643    0.000000
   119  O2    s     0.269866    0.269984    0.962728    0.000000
   120  O2    s     0.244122    0.699339    0.957798    0.000000
--------------------------------------------------------------------------------

  Final Cartesian lattice vectors (Angstroms) :

       16.957971    0.006717    0.100099
        0.002862    7.567456   -0.004126
        0.057146   -0.006134   10.436416


  Final cell parameters and derivatives :

--------------------------------------------------------------------------------
       a           16.958268 Angstrom     dE/de1(xx)     0.002794 eV/strain
       b            7.567457 Angstrom     dE/de2(yy)     0.002452 eV/strain
       c           10.436574 Angstrom     dE/de3(zz)    -0.009278 eV/strain
       alpha       90.064795 Degrees      dE/de4(yz)     0.000003 eV/strain
       beta        89.348086 Degrees      dE/de5(xz)     0.000314 eV/strain
       gamma       89.955822 Degrees      dE/de6(xy)    -0.000456 eV/strain
--------------------------------------------------------------------------------

  Primitive cell volume =          1339.247665 Angs**3

  Density of cell =      1.953773 g/cm**3

  Non-primitive cell volume =          1339.247665 Angs**3


  Final internal derivatives :

--------------------------------------------------------------------------------
   No.  Atomic          a             b             c           Radius
        Label          (eV)          (eV)          (eV)        (eV/Angs)
--------------------------------------------------------------------------------
      1 Ge    c       0.000000      0.000000      0.000000      0.000000
      2 Ge    c      -0.001671     -0.000423     -0.002278      0.000000
      3 Ge    c       0.001702      0.001047     -0.002236      0.000000
      4 Si    c       0.001529     -0.000444      0.000729      0.000000
      5 Si    c       0.004237     -0.000277     -0.000091      0.000000
      6 Si    c       0.001099     -0.000448     -0.001582      0.000000
      7 Si    c      -0.004091      0.000014     -0.001243      0.000000
      8 Si    c      -0.000188     -0.000869     -0.000191      0.000000
      9 Si    c       0.003418     -0.000267     -0.001574      0.000000
     10 Si    c      -0.001452     -0.000536     -0.002330      0.000000
     11 Si    c       0.001396     -0.000167      0.002409      0.000000
     12 Si    c      -0.000943      0.000547      0.002589      0.000000
     13 Si    c       0.002366      0.000409      0.002230      0.000000
     14 Si    c      -0.001722     -0.000458      0.002565      0.000000
     15 Si    c      -0.001968      0.000249     -0.002448      0.000000
     16 Si    c       0.001271     -0.000404     -0.002375      0.000000
     17 Si    c      -0.001852     -0.000614     -0.002283      0.000000
     18 Si    c       0.001812      0.000385     -0.002436      0.000000
     19 Si    c       0.001063     -0.000476      0.002402      0.000000
     20 Si    c      -0.001899      0.000458      0.002322      0.000000
     21 Si    c       0.001640      0.001101      0.002265      0.000000
     22 Si    c      -0.002000     -0.000812      0.002085      0.000000
     23 Si    c      -0.001498      0.000660     -0.002273      0.000000
     24 Si    c       0.001737     -0.000518     -0.002260      0.000000
     25 O2    c       0.001862      0.001036      0.000134      0.000000
     26 O3    c      -0.001889     -0.000886     -0.000184      0.000000
     27 O2    c      -0.001666      0.000857     -0.000164      0.000000
     28 O2    c       0.001174     -0.000570      0.000050      0.000000
     29 O2    c      -0.001012     -0.000734      0.000175      0.000000
     30 O2    c       0.000805      0.000461      0.000085      0.000000
     31 O2    c       0.000393     -0.000557      0.000027      0.000000
     32 O2    c      -0.000869      0.000627      0.000064      0.000000
     33 O2    c      -0.002187      0.000305      0.001695      0.000000
     34 O2    c       0.000598      0.000126      0.001408      0.000000
     35 O2    c      -0.003948      0.000474      0.001289      0.000000
     36 O3    c      -0.000479      0.000868      0.000538      0.000000
     37 O3    c       0.005759      0.000286      0.002681      0.000000
     38 O2    c      -0.000442      0.000196      0.001703      0.000000
     39 O3    c       0.001530      0.000750     -0.000212      0.000000
     40 O2    c      -0.000586     -0.001237     -0.000217      0.000000
     41 O2    c      -0.000445      0.000446      0.000032      0.000000
     42 O3    c       0.001379     -0.001327      0.000281      0.000000
     43 O2    c      -0.001328     -0.000725      0.000443      0.000000
     44 O3    c       0.002726      0.001471      0.000480      0.000000
     45 O3    c       0.002546     -0.001215     -0.000443      0.000000
     46 O2    c      -0.001962      0.001035     -0.000100      0.000000
     47 O3    c       0.000706      0.000847      0.001360      0.000000
     48 O3    c       0.002102      0.001998      0.000549      0.000000
     49 O2    c      -0.000323      0.000201      0.000389      0.000000
     50 O3    c       0.000692     -0.000402      0.000908      0.000000
     51 O2    c       0.000150     -0.000144     -0.000338      0.000000
     52 O2    c      -0.000217      0.000035     -0.000304      0.000000
     53 O2    c       0.000347     -0.000053      0.000490      0.000000
     54 O3    c      -0.001162      0.000104      0.000786      0.000000
     55 O2    c      -0.000361     -0.000084     -0.000563      0.000000
     56 O2    c      -0.000332      0.000074     -0.000489      0.000000
     57 O2    c       0.001534      0.001191      0.000122      0.000000
     58 O3    c      -0.001318     -0.001480     -0.000402      0.000000
     59 O2    c      -0.001052      0.000899      0.000098      0.000000
     60 O2    c       0.000858     -0.000997     -0.000087      0.000000
     61 O2    c      -0.001637     -0.000876      0.000204      0.000000
     62 O2    c       0.001366      0.000874     -0.000331      0.000000
     63 O2    c       0.001043     -0.000931      0.000300      0.000000
     64 O2    c      -0.001592      0.000658      0.000084      0.000000
     65 O2    c      -0.000130      0.000125      0.000238      0.000000
     66 O2    c       0.000311     -0.000053      0.000330      0.000000
     67 O2    c       0.000645     -0.000244     -0.000363      0.000000
     68 O2    c      -0.000463      0.000170     -0.000334      0.000000
     69 O2    c       0.000512     -0.000052      0.000532      0.000000
     70 O2    c       0.000235     -0.000011      0.000475      0.000000
     71 O2    c       0.000494     -0.000057     -0.000430      0.000000
     72 O2    c      -0.000516      0.000030     -0.000500      0.000000
     73 O2    s       0.002002     -0.000088     -0.001224      0.000000
     74 O3    s       0.001221      0.000524     -0.000737      0.000000
     75 O2    s      -0.001134     -0.000084      0.000830      0.000000
     76 O2    s      -0.000361      0.000194      0.000692      0.000000
     77 O2    s      -0.000872     -0.000190      0.000629      0.000000
     78 O2    s      -0.000283     -0.000134      0.000632      0.000000
     79 O2    s       0.001712     -0.000400     -0.000729      0.000000
     80 O2    s       0.000158     -0.000233     -0.000867      0.000000
     81 O2    s       0.000195     -0.000127     -0.000187      0.000000
     82 O2    s      -0.000391     -0.000130     -0.000301      0.000000
     83 O2    s      -0.000080      0.000220      0.000761      0.000000
     84 O3    s       0.000272     -0.000559     -0.000423      0.000000
     85 O3    s      -0.001844     -0.000026     -0.001398      0.000000
     86 O2    s       0.000315     -0.000085     -0.000328      0.000000
     87 O3    s      -0.000999     -0.000394     -0.000794      0.000000
     88 O2    s      -0.002134     -0.000552     -0.000876      0.000000
     89 O2    s       0.000144     -0.000163      0.000472      0.000000
     90 O3    s       0.000111      0.000245      0.000481      0.000000
     91 O2    s       0.000610      0.000311      0.000565      0.000000
     92 O3    s      -0.000131     -0.000624      0.000582      0.000000
     93 O3    s      -0.001668      0.000574     -0.000702      0.000000
     94 O2    s      -0.001986      0.000033     -0.000769      0.000000
     95 O3    s      -0.000260     -0.000567     -0.000647      0.000000
     96 O3    s       0.001246      0.000223     -0.001219      0.000000
     97 O2    s       0.000143     -0.000070     -0.000875      0.000000
     98 O3    s       0.000157      0.000133     -0.000899      0.000000
     99 O2    s       0.000077      0.000049      0.000819      0.000000
    100 O2    s      -0.000094      0.000007      0.000650      0.000000
    101 O2    s      -0.000057     -0.000280     -0.000792      0.000000
    102 O3    s       0.000293      0.000242     -0.001100      0.000000
    103 O2    s       0.000042     -0.000126      0.000969      0.000000
    104 O2    s      -0.000011      0.000167      0.000947      0.000000
    105 O2    s      -0.001494     -0.000736      0.000082      0.000000
    106 O3    s       0.000870      0.000821      0.000052      0.000000
    107 O2    s       0.000542     -0.000449     -0.000210      0.000000
    108 O2    s       0.000001      0.000258     -0.000030      0.000000
    109 O2    s       0.000621      0.000500     -0.000084      0.000000
    110 O2    s      -0.000250     -0.000244      0.000020      0.000000
    111 O2    s      -0.000040      0.000469     -0.000088      0.000000
    112 O2    s       0.000782     -0.000284     -0.000072      0.000000
    113 O2    s      -0.000396      0.000104     -0.000520      0.000000
    114 O2    s      -0.000132      0.000014     -0.000808      0.000000
    115 O2    s       0.000293      0.000098      0.000508      0.000000
    116 O2    s      -0.000097     -0.000048      0.000648      0.000000
    117 O2    s      -0.000325     -0.000172     -0.000876      0.000000
    118 O2    s      -0.000253      0.000216     -0.000912      0.000000
    119 O2    s      -0.000190     -0.000275      0.000682      0.000000
    120 O2    s      -0.000088      0.000276      0.000673      0.000000
--------------------------------------------------------------------------------
  Maximum abs         0.005759      0.001998      0.002681      0.000000
--------------------------------------------------------------------------------


  Born effective charge tensors : 

-------------------------------------------------------------------------------
  Atom             x           y             z
-------------------------------------------------------------------------------
    1 Ge    x       4.2427      0.3123     -0.1823
            y      -0.2453      3.9082     -0.0245
            z      -0.7325     -0.1312      3.7803
-------------------------------------------------------------------------------
    2 Ge    x       4.2359     -0.2956      0.3418
            y       0.2485      3.9116     -0.0146
            z       0.6231     -0.0525      3.8710
-------------------------------------------------------------------------------
    3 Ge    x       3.9429      0.3460      0.2163
            y       0.1886      4.1750      0.2331
            z       0.1768      0.0664      3.4668
-------------------------------------------------------------------------------
    4 Si    x       3.4479     -0.1716     -0.1866
            y       0.1618      3.2136      0.0117
            z      -0.4982      0.0482      3.7599
-------------------------------------------------------------------------------
    5 Si    x       3.8045     -0.0095     -0.0202
            y       0.2738      3.4038     -0.0318
            z       0.5352      0.0865      4.1199
-------------------------------------------------------------------------------
    6 Si    x       3.6947      0.1600     -0.1229
            y      -0.1215      3.2831      0.0287
            z      -0.2222     -0.0308      4.0580
-------------------------------------------------------------------------------
    7 Si    x       3.4514      0.1065      0.3067
            y      -0.1198      3.2465      0.0085
            z       0.3526      0.0244      3.7762
-------------------------------------------------------------------------------
    8 Si    x       3.6088      0.2642      0.1008
            y      -0.1787      3.3233     -0.0390
            z       0.4110     -0.0172      3.3037
-------------------------------------------------------------------------------
    9 Si    x       3.6691     -0.2487     -0.1733
            y       0.1608      3.3194     -0.0277
            z      -0.3082     -0.0175      3.3029
-------------------------------------------------------------------------------
   10 Si    x       3.2398      0.2996     -0.1424
            y       0.1448      3.4511     -0.1655
            z      -0.1002     -0.0539      2.7818
-------------------------------------------------------------------------------
   11 Si    x       3.1768     -0.2891     -0.1352
            y      -0.1704      3.4682      0.1444
            z      -0.1418      0.0894      2.8194
-------------------------------------------------------------------------------
   12 Si    x       3.2273     -0.3024      0.1309
            y      -0.1894      3.4792     -0.1752
            z       0.1274     -0.0634      2.7688
-------------------------------------------------------------------------------
   13 Si    x       3.1801      0.1951     -0.0604
            y       0.2844      3.4220     -0.1763
            z      -0.1054     -0.0926      2.8209
-------------------------------------------------------------------------------
   14 Si    x       3.1991      0.2043      0.0668
            y       0.2874      3.4484      0.2047
            z       0.0931      0.0774      2.7836
-------------------------------------------------------------------------------
   15 Si    x       3.4985     -0.1182      0.0588
            y      -0.2516      3.5608      0.2346
            z      -0.0219      0.1054      2.8642
-------------------------------------------------------------------------------
   16 Si    x       3.2915     -0.1329      0.1077
            y      -0.1786      3.7422     -0.0818
            z       0.1304     -0.0079      2.9214
-------------------------------------------------------------------------------
   17 Si    x       3.5237      0.3745     -0.3098
            y       0.4120      3.4991     -0.3225
            z      -0.3157     -0.1424      2.8729
-------------------------------------------------------------------------------
   18 Si    x       3.2171      0.2444      0.1417
            y       0.2785      3.3872      0.1460
            z       0.1876      0.0623      2.7127
-------------------------------------------------------------------------------
   19 Si    x       3.2529     -0.2392     -0.1353
            y      -0.2675      3.3907      0.1646
            z      -0.1748      0.0433      2.7021
-------------------------------------------------------------------------------
   20 Si    x       3.5263     -0.3688      0.3033
            y      -0.3997      3.5114     -0.3263
            z       0.3154     -0.1612      2.8883
-------------------------------------------------------------------------------
   21 Si    x       3.2732      0.3516     -0.1557
            y       0.0813      3.5597     -0.1075
            z      -0.0891      0.0144      3.0142
-------------------------------------------------------------------------------
   22 Si    x       3.3557      0.4822      0.3129
            y       0.1540      3.6279      0.3866
            z       0.1676      0.2301      2.9319
-------------------------------------------------------------------------------
   23 Si    x       3.3483     -0.4864     -0.2910
            y      -0.1774      3.6384      0.3818
            z      -0.1802      0.2245      2.9091
-------------------------------------------------------------------------------
   24 Si    x       3.1813     -0.3296      0.1782
            y      -0.0640      3.4389     -0.1703
            z       0.1162     -0.0841      2.7311
-------------------------------------------------------------------------------
   25 O2    x      -1.8142     -0.7200      0.3238
            y      -0.7599     -1.9075      0.3324
            z       0.3603      0.3121     -1.3421
-------------------------------------------------------------------------------
   26 O3    x      -2.1455     -0.9123     -0.3765
            y      -1.0044     -2.2832     -0.3893
            z      -0.4372     -0.3421     -1.5757
-------------------------------------------------------------------------------
   27 O2    x      -1.7377      0.6995      0.3797
            y       0.7459     -1.9582     -0.3924
            z       0.4058     -0.3710     -1.3757
-------------------------------------------------------------------------------
   28 O2    x      -1.7782      0.7256     -0.3731
            y       0.7663     -1.9480      0.3726
            z      -0.3807      0.3432     -1.3538
-------------------------------------------------------------------------------
   29 O2    x      -1.6211     -0.6638      0.3468
            y      -0.6253     -1.9982      0.3563
            z       0.3828      0.3658     -1.3871
-------------------------------------------------------------------------------
   30 O2    x      -1.6518     -0.6973     -0.3622
            y      -0.6567     -2.0038     -0.3772
            z      -0.3575     -0.3478     -1.3617
-------------------------------------------------------------------------------
   31 O2    x      -1.6272      0.6862      0.3100
            y       0.6188     -2.0345     -0.3287
            z       0.3395     -0.3136     -1.3478
-------------------------------------------------------------------------------
   32 O2    x      -1.6608      0.6294     -0.3428
            y       0.6256     -1.9044      0.3629
            z      -0.4116      0.3349     -1.4240
-------------------------------------------------------------------------------
   33 O2    x      -1.6096      0.0169      0.8222
            y       0.0013     -1.0957     -0.0109
            z       1.0303     -0.0165     -2.7696
-------------------------------------------------------------------------------
   34 O2    x      -1.6668      0.0004     -0.8204
            y       0.0052     -1.0892      0.0062
            z      -1.0342     -0.0041     -2.7040
-------------------------------------------------------------------------------
   35 O2    x      -1.6915      0.0115     -0.7260
            y       0.0298     -1.1314      0.0274
            z      -0.7033      0.0140     -2.2111
-------------------------------------------------------------------------------
   36 O3    x      -1.9651     -0.0065      0.9464
            y       0.0327     -1.2868     -0.0345
            z       0.9273     -0.0031     -2.8360
-------------------------------------------------------------------------------
   37 O3    x      -2.1280     -0.0037     -0.9995
            y      -0.0316     -1.2453      0.0013
            z      -1.0154      0.0281     -2.7432
-------------------------------------------------------------------------------
   38 O2    x      -1.7292     -0.0059      0.7030
            y      -0.0379     -1.1172      0.0163
            z       0.6726      0.0017     -2.1781
-------------------------------------------------------------------------------
   39 O3    x      -2.0258     -0.9048      0.5265
            y      -0.7831     -2.3712      0.5094
            z       0.5610      0.4985     -1.4996
-------------------------------------------------------------------------------
   40 O2    x      -1.6334     -0.6500     -0.3583
            y      -0.5279     -2.0327     -0.3950
            z      -0.3799     -0.3804     -1.2494
-------------------------------------------------------------------------------
   41 O2    x      -1.6415      0.6520      0.3952
            y       0.5094     -2.0238     -0.4409
            z       0.3687     -0.4016     -1.2835
-------------------------------------------------------------------------------
   42 O3    x      -2.0152      0.9059     -0.5763
            y       0.7656     -2.3797      0.5743
            z      -0.5699      0.5472     -1.5323
-------------------------------------------------------------------------------
   43 O2    x      -1.7551     -0.6900      0.3907
            y      -0.6376     -1.9072      0.3896
            z       0.3457      0.3524     -1.2790
-------------------------------------------------------------------------------
   44 O3    x      -2.0839     -0.8902     -0.5303
            y      -0.8574     -2.2684     -0.6242
            z      -0.4824     -0.5580     -1.5822
-------------------------------------------------------------------------------
   45 O3    x      -2.0946      0.8931      0.4577
            y       0.8841     -2.2698     -0.5729
            z       0.4703     -0.5140     -1.5383
-------------------------------------------------------------------------------
   46 O2    x      -1.7445      0.6811     -0.3503
            y       0.6494     -1.8980      0.3693
            z      -0.3473      0.3452     -1.2643
-------------------------------------------------------------------------------
   47 O3    x      -2.1668      0.0811     -0.8531
            y       0.0840     -1.3817      0.0444
            z      -0.4719      0.0068     -2.0291
-------------------------------------------------------------------------------
   48 O3    x      -2.1506     -0.0326      0.8474
            y      -0.0364     -1.3836      0.0455
            z       0.4851      0.0138     -2.0324
-------------------------------------------------------------------------------
   49 O2    x      -1.1756      0.1138      0.0555
            y       0.1939     -2.5787     -0.0026
            z       0.0621      0.0039     -1.0659
-------------------------------------------------------------------------------
   50 O3    x      -1.3077      0.0359     -0.0889
            y       0.1141     -3.2094     -0.0683
            z      -0.0943     -0.0967     -1.2108
-------------------------------------------------------------------------------
   51 O2    x      -1.1576     -0.0700      0.0653
            y      -0.1259     -2.5485      0.0283
            z       0.0785      0.0003     -1.0759
-------------------------------------------------------------------------------
   52 O2    x      -1.1691     -0.0712     -0.0546
            y      -0.1279     -2.5821      0.0111
            z      -0.0640      0.0238     -1.0487
-------------------------------------------------------------------------------
   53 O2    x      -2.4573     -0.1136     -0.0497
            y      -0.0489     -1.2442      0.0608
            z      -0.0670      0.0315     -1.0808
-------------------------------------------------------------------------------
   54 O3    x      -2.9802     -0.2391     -0.1430
            y      -0.1600     -1.4306     -0.1185
            z      -0.1204     -0.0802     -1.2212
-------------------------------------------------------------------------------
   55 O2    x      -2.3856      0.1227      0.0268
            y       0.0563     -1.2600     -0.0727
            z       0.0054     -0.0479     -1.0599
-------------------------------------------------------------------------------
   56 O2    x      -2.3910      0.1317      0.0297
            y       0.0691     -1.2555      0.0683
            z       0.0416      0.0421     -1.0656
-------------------------------------------------------------------------------
   57 O2    x      -1.2040     -0.1377      0.0374
            y      -0.0848     -1.3079      0.0256
            z       0.0426      0.0052     -2.0357
-------------------------------------------------------------------------------
   58 O3    x      -1.3137     -0.1496      0.0260
            y      -0.0979     -1.4890     -0.1313
            z       0.0004     -0.0755     -2.5959
-------------------------------------------------------------------------------
   59 O2    x      -1.1624      0.1230     -0.0426
            y       0.0796     -1.2928     -0.0318
            z      -0.0128     -0.0061     -2.0777
-------------------------------------------------------------------------------
   60 O2    x      -1.1966      0.1360     -0.0205
            y       0.0878     -1.3130      0.0139
            z      -0.0345     -0.0061     -2.0219
-------------------------------------------------------------------------------
   61 O2    x      -1.2100     -0.1254     -0.0616
            y      -0.1320     -1.2692      0.0019
            z      -0.0792      0.0172     -2.0760
-------------------------------------------------------------------------------
   62 O2    x      -1.2281     -0.1377      0.0136
            y      -0.1351     -1.2932     -0.0316
            z       0.0325     -0.0432     -2.0293
-------------------------------------------------------------------------------
   63 O2    x      -1.2198      0.1268      0.0468
            y       0.1266     -1.3045     -0.0266
            z       0.0290     -0.0280     -2.0498
-------------------------------------------------------------------------------
   64 O2    x      -1.2473      0.1226      0.0611
            y       0.1253     -1.2630      0.0439
            z       0.0814      0.0595     -2.0854
-------------------------------------------------------------------------------
   65 O2    x      -1.2710     -0.0842      0.0958
            y      -0.1683     -2.4067      0.0071
            z       0.1100      0.0130     -1.0333
-------------------------------------------------------------------------------
   66 O2    x      -1.2377     -0.0908     -0.0904
            y      -0.1863     -2.4717      0.0354
            z      -0.1086      0.0081     -1.0192
-------------------------------------------------------------------------------
   67 O2    x      -1.2658      0.0918      0.0702
            y       0.1882     -2.5193      0.0602
            z       0.0895      0.0418     -1.0034
-------------------------------------------------------------------------------
   68 O2    x      -1.2733      0.0958     -0.0969
            y       0.1646     -2.4142     -0.0044
            z      -0.1056      0.0132     -1.0391
-------------------------------------------------------------------------------
   69 O2    x      -2.3990      0.1587      0.0045
            y       0.1042     -1.2571      0.0668
            z       0.0053      0.0340     -1.0470
-------------------------------------------------------------------------------
   70 O2    x      -2.3697      0.1225     -0.0030
            y       0.0810     -1.2522     -0.0637
            z       0.0030     -0.0387     -1.0408
-------------------------------------------------------------------------------
   71 O2    x      -2.4060     -0.1376     -0.0226
            y      -0.0757     -1.2498     -0.0653
            z      -0.0130     -0.0353     -1.0374
-------------------------------------------------------------------------------
   72 O2    x      -2.4228     -0.1786      0.0096
            y      -0.1198     -1.2776      0.0699
            z       0.0136      0.0347     -1.0405
-------------------------------------------------------------------------------




  Elastic Constant Matrix: (Units=GPa)

-------------------------------------------------------------------------------
  Indices      1         2         3         4         5         6    
-------------------------------------------------------------------------------
       1     46.4298   22.6426   24.8369   -1.6920    2.6778   -3.1842
       2     22.6426   69.7503   18.9624   -2.0300    2.1920   -1.7478
       3     24.8369   18.9624   39.2295   -0.5504    3.3832   -2.8190
       4     -1.6920   -2.0300   -0.5504   12.3945   -0.0441    0.3165
       5      2.6778    2.1920    3.3832   -0.0441   25.6285   -0.8633
       6     -3.1842   -1.7478   -2.8190    0.3165   -0.8633   28.1057
-------------------------------------------------------------------------------


  Elastic Compliance Matrix: (Units=1/GPa)

-------------------------------------------------------------------------------
  Indices      1         2         3         4         5         6    
-------------------------------------------------------------------------------
       1    0.034864 -0.006022 -0.018956  0.002888 -0.000566  0.001624
       2   -0.006022  0.017619 -0.004661  0.001858 -0.000262 -0.000083
       3   -0.018956 -0.004661  0.040079 -0.001620 -0.002863  0.001513
       4    0.002888  0.001858 -0.001620  0.081323 -0.000128 -0.000640
       5   -0.000566 -0.000262 -0.002863 -0.000128  0.039507  0.000847
       6    0.001624 -0.000083  0.001513 -0.000640  0.000847  0.035944
-------------------------------------------------------------------------------

  Mechanical properties :

-------------------------------------------------------------------------------
  Convention :                    Reuss         Voigt         Hill
-------------------------------------------------------------------------------
  Bulk  Modulus (GPa)     =      30.04536      32.03258      31.03897
  Shear Modulus (GPa)     =      15.63922      19.15694      17.39808
-------------------------------------------------------------------------------
  Velocity S-wave (km/s)  =       2.82924       3.13131       2.98410
  Velocity P-wave (km/s)  =       5.10401       5.42851       5.26876
-------------------------------------------------------------------------------
  Compressibility (1/GPa) =    0.03328301
-------------------------------------------------------------------------------
  Stress axis :                     x             y             z
-------------------------------------------------------------------------------
  Youngs Moduli (GPa)     =      28.68276      56.75649      24.95093
-------------------------------------------------------------------------------
  Poissons Ratio (x)      =                     0.34177       0.47298
  Poissons Ratio (y)      =       0.17272                     0.11631
  Poissons Ratio (z)      =       0.54372       0.26456
-------------------------------------------------------------------------------


  Piezoelectric Strain Matrix: (Units=C/m**2)

-------------------------------------------------------------------------------
  Indices      1         2         3         4         5         6    
-------------------------------------------------------------------------------
       x    -0.03590   0.67219  -0.99483   0.43256   0.22957   0.07649
       y    -0.17681  -0.45321  -0.23808  -0.01516   0.68895   0.54382
       z    -0.32074   0.04664  -1.85102   0.15989   0.35022   0.05861
-------------------------------------------------------------------------------


  Piezoelectric Stress Matrix: (Units=10**-11 C/N)

-------------------------------------------------------------------------------
  Indices      1         2         3         4         5         6    
-------------------------------------------------------------------------------
       x     1.48026   1.74340  -4.35668   3.78554   1.17715   0.10484
       y     0.15276  -0.60644  -0.52032  -0.26357   2.85814   1.95306
       z     2.39841   1.15820  -6.94968   1.50799   1.93342  -0.10235
-------------------------------------------------------------------------------


  Static dielectric constant tensor : 

-------------------------------------------------------------------------------
              x         y         z
-------------------------------------------------------------------------------
       x     4.08580   0.03790   0.06160
       y     0.03790   4.05963   0.00267
       z     0.06160   0.00267   3.32326
--------------------------------------------------------------------------------

  High frequency dielectric constant tensor : 

-------------------------------------------------------------------------------
              x         y         z
-------------------------------------------------------------------------------
       x     1.67752  -0.00046   0.00078
       y    -0.00046   1.68574   0.00008
       z     0.00078   0.00008   1.61895
-------------------------------------------------------------------------------

  Static refractive indices : 

-------------------------------------------------------------------------------
    1 =    1.82163      2 =    2.00852      3 =    2.02885
-------------------------------------------------------------------------------

  High frequency refractive indices : 

-------------------------------------------------------------------------------
    1 =    1.27238      2 =    1.29518      3 =    1.29837
-------------------------------------------------------------------------------


  Time to end of optimisation =      12.9037 seconds


  Peak dynamic memory used =       5.01 MB 


  Timing analysis for GULP :

--------------------------------------------------------------------------------
  Task / Subroutine                                          Time (Seconds)
--------------------------------------------------------------------------------
  Calculation of reciprocal space energy and derivatives          0.6408
  Calculation of real space energy and derivatives                8.6132
  Calculation of three-body energy and derivatives                0.6347
  Calculation and manipulation of Hessian matrix                  3.8675
  Calculation of matrix inversion                                 0.0244
  Global summation overhead                                       0.0002
--------------------------------------------------------------------------------
  Total CPU time                                                 12.9037
--------------------------------------------------------------------------------


  Dump file written as c00132.vasp.grs
  CIF file written as c00132.vasp.cif


  Job Finished at 11:49.28  7th October    2025                               

