********************************************************************************
*                       GENERAL UTILITY LATTICE PROGRAM                        *
*                                 Julian Gale                                  *
*                       Curtin Institute for Computation                       *
*                    School of Molecular and Life Sciences                     *
*                    Curtin University, Western Australia                      *
********************************************************************************
* Version = 6.1.2 * Last modified =   3rd November 2022                        *
********************************************************************************
*  optimise     - perform optimisation run                                     *
*  conp         - constant pressure calculation                                *
*  property     - calculate properties for final geometry                      *
********************************************************************************

  Job Started  at 11:44.29  7th October    2025                               

  Number of CPUs =     1


  Total number of configurations input =      1

********************************************************************************
*  Input for Configuration =   1 : c00103.vasp                                 *
********************************************************************************

  Formula = Ge3Si21O48                                                  

  Number of irreducible atoms/shells =     120


  Total number atoms/shells =     120

  Dimensionality = 3               :  Bulk   



  Cartesian lattice vectors (Angstroms) :

       17.182800    0.000000    0.000000
        0.000000    7.513760    0.000000
        0.000000    0.000000   10.447700

  Cell parameters (Angstroms/Degrees):

  a =      17.1828    alpha =  90.0000
  b =       7.5138    beta  =  90.0000
  c =      10.4477    gamma =  90.0000

  Initial cell volume =        1348.875752 Angs**3

  Temperature of configuration =   0.00     K 

  Pressure of configuration =         0.000 GPa 

  Fractional coordinates of asymmetric unit :

--------------------------------------------------------------------------------
   No.  Atomic       x           y          z         Charge      Occupancy
        Label      (Frac)      (Frac)     (Frac)        (e)         (Frac)  
--------------------------------------------------------------------------------
      1 Ge    c    0.052090    0.000000    0.372270     4.00000    1.000000    
      2 Ge    c    0.660190 *  0.706090 *  0.726560 *   4.00000    1.000000    
      3 Ge    c    0.160660 *  0.294090 *  0.982560 *   4.00000    1.000000    
      4 Si    c    0.447910 *  0.000000 *  0.372270 *   4.00000    1.000000    
      5 Si    c    0.947910 *  0.000000 *  0.627730 *   4.00000    1.000000    
      6 Si    c    0.552090 *  0.000000 *  0.627730 *   4.00000    1.000000    
      7 Si    c    0.556730 *  0.000000 *  0.122130 *   4.00000    1.000000    
      8 Si    c    0.943270 *  0.000000 *  0.122130 *   4.00000    1.000000    
      9 Si    c    0.443270 *  0.000000 *  0.877870 *   4.00000    1.000000    
     10 Si    c    0.056730 *  0.000000 *  0.877870 *   4.00000    1.000000    
     11 Si    c    0.160190 *  0.293910 *  0.273440 *   4.00000    1.000000    
     12 Si    c    0.339810 *  0.706090 *  0.273440 *   4.00000    1.000000    
     13 Si    c    0.839810 *  0.293910 *  0.726560 *   4.00000    1.000000    
     14 Si    c    0.839810 *  0.706090 *  0.726560 *   4.00000    1.000000    
     15 Si    c    0.660190 *  0.293910 *  0.726560 *   4.00000    1.000000    
     16 Si    c    0.160190 *  0.706090 *  0.273440 *   4.00000    1.000000    
     17 Si    c    0.339810 *  0.293910 *  0.273440 *   4.00000    1.000000    
     18 Si    c    0.660660 *  0.294090 *  0.017440 *   4.00000    1.000000    
     19 Si    c    0.839340 *  0.705910 *  0.017440 *   4.00000    1.000000    
     20 Si    c    0.339340 *  0.294090 *  0.982560 *   4.00000    1.000000    
     21 Si    c    0.160660 *  0.705910 *  0.982560 *   4.00000    1.000000    
     22 Si    c    0.339340 *  0.705910 *  0.982560 *   4.00000    1.000000    
     23 Si    c    0.660660 *  0.705910 *  0.017440 *   4.00000    1.000000    
     24 Si    c    0.839340 *  0.294090 *  0.017440 *   4.00000    1.000000    
     25 O3    c    0.106570 *  0.174340 *  0.366200 *   1.33043    1.000000    
     26 O2    c    0.393430 *  0.825660 *  0.366200 *   0.87073    1.000000    
     27 O2    c    0.893430 *  0.174340 *  0.633800 *   0.87073    1.000000    
     28 O3    c    0.606570 *  0.825660 *  0.633800 *   1.33043    1.000000    
     29 O2    c    0.893430 *  0.825660 *  0.633800 *   0.87073    1.000000    
     30 O2    c    0.606570 *  0.174340 *  0.633800 *   0.87073    1.000000    
     31 O3    c    0.106570 *  0.825660 *  0.366200 *   1.33043    1.000000    
     32 O2    c    0.393430 *  0.174340 *  0.366200 *   0.87073    1.000000    
     33 O3    c    0.000000 *  0.000000 *  0.500000 *   1.33043    1.000000    
     34 O2    c    0.500000 *  0.000000 *  0.500000 *   0.87073    1.000000    
     35 O3    c    0.994520 *  0.000000 *  0.250840 *   1.33043    1.000000    
     36 O2    c    0.505480 *  0.000000 *  0.250840 *   0.87073    1.000000    
     37 O2    c    0.005480 *  0.000000 *  0.749160 *   0.87073    1.000000    
     38 O2    c    0.494520 *  0.000000 *  0.749160 *   0.87073    1.000000    
     39 O2    c    0.610230 *  0.175520 *  0.115390 *   0.87073    1.000000    
     40 O2    c    0.889770 *  0.824480 *  0.115390 *   0.87073    1.000000    
     41 O2    c    0.389770 *  0.175520 *  0.884610 *   0.87073    1.000000    
     42 O2    c    0.110230 *  0.824480 *  0.884610 *   0.87073    1.000000    
     43 O2    c    0.389770 *  0.824480 *  0.884610 *   0.87073    1.000000    
     44 O3    c    0.110230 *  0.175520 *  0.884610 *   1.33043    1.000000    
     45 O2    c    0.610230 *  0.824480 *  0.115390 *   0.87073    1.000000    
     46 O2    c    0.889770 *  0.175520 *  0.115390 *   0.87073    1.000000    
     47 O2    c    0.500000 *  0.000000 *  0.000000 *   0.87073    1.000000    
     48 O2    c    0.000000 *  0.000000 *  0.000000 *   0.87073    1.000000    
     49 O2    c    0.151750 *  0.500000 *  0.313330 *   0.87073    1.000000    
     50 O2    c    0.348250 *  0.500000 *  0.313330 *   0.87073    1.000000    
     51 O2    c    0.848250 *  0.500000 *  0.686670 *   0.87073    1.000000    
     52 O3    c    0.651750 *  0.500000 *  0.686670 *   1.33043    1.000000    
     53 O2    c    0.250000 *  0.234950 *  0.285720 *   0.87073    1.000000    
     54 O2    c    0.250000 *  0.765050 *  0.285720 *   0.87073    1.000000    
     55 O2    c    0.750000 *  0.234950 *  0.714280 *   0.87073    1.000000    
     56 O3    c    0.750000 *  0.765050 *  0.714280 *   1.33043    1.000000    
     57 O3    c    0.131410 *  0.268650 *  0.127790 *   1.33043    1.000000    
     58 O2    c    0.368590 *  0.731350 *  0.127790 *   0.87073    1.000000    
     59 O2    c    0.868590 *  0.268650 *  0.872210 *   0.87073    1.000000    
     60 O3    c    0.631410 *  0.731350 *  0.872210 *   1.33043    1.000000    
     61 O2    c    0.868590 *  0.731350 *  0.872210 *   0.87073    1.000000    
     62 O2    c    0.631410 *  0.268650 *  0.872210 *   0.87073    1.000000    
     63 O2    c    0.131410 *  0.731350 *  0.127790 *   0.87073    1.000000    
     64 O2    c    0.368590 *  0.268650 *  0.127790 *   0.87073    1.000000    
     65 O2    c    0.653920 *  0.500000 *  0.058200 *   0.87073    1.000000    
     66 O2    c    0.846080 *  0.500000 *  0.058200 *   0.87073    1.000000    
     67 O2    c    0.346080 *  0.500000 *  0.941800 *   0.87073    1.000000    
     68 O3    c    0.153920 *  0.500000 *  0.941800 *   1.33043    1.000000    
     69 O2    c    0.750000 *  0.231060 *  0.027050 *   0.87073    1.000000    
     70 O2    c    0.750000 *  0.768940 *  0.027050 *   0.87073    1.000000    
     71 O3    c    0.250000 *  0.231060 *  0.972950 *   1.33043    1.000000    
     72 O2    c    0.250000 *  0.768940 *  0.972950 *   0.87073    1.000000    
     73 O3    s    0.106570 *  0.174340 *  0.366200 *  -3.33043    1.000000    
     74 O2    s    0.393430 *  0.825660 *  0.366200 *  -2.87073    1.000000    
     75 O2    s    0.893430 *  0.174340 *  0.633800 *  -2.87073    1.000000    
     76 O3    s    0.606570 *  0.825660 *  0.633800 *  -3.33043    1.000000    
     77 O2    s    0.893430 *  0.825660 *  0.633800 *  -2.87073    1.000000    
     78 O2    s    0.606570 *  0.174340 *  0.633800 *  -2.87073    1.000000    
     79 O3    s    0.106570 *  0.825660 *  0.366200 *  -3.33043    1.000000    
     80 O2    s    0.393430 *  0.174340 *  0.366200 *  -2.87073    1.000000    
     81 O3    s    0.000000 *  0.000000 *  0.500000 *  -3.33043    1.000000    
     82 O2    s    0.500000 *  0.000000 *  0.500000 *  -2.87073    1.000000    
     83 O3    s    0.994520 *  0.000000 *  0.250840 *  -3.33043    1.000000    
     84 O2    s    0.505480 *  0.000000 *  0.250840 *  -2.87073    1.000000    
     85 O2    s    0.005480 *  0.000000 *  0.749160 *  -2.87073    1.000000    
     86 O2    s    0.494520 *  0.000000 *  0.749160 *  -2.87073    1.000000    
     87 O2    s    0.610230 *  0.175520 *  0.115390 *  -2.87073    1.000000    
     88 O2    s    0.889770 *  0.824480 *  0.115390 *  -2.87073    1.000000    
     89 O2    s    0.389770 *  0.175520 *  0.884610 *  -2.87073    1.000000    
     90 O2    s    0.110230 *  0.824480 *  0.884610 *  -2.87073    1.000000    
     91 O2    s    0.389770 *  0.824480 *  0.884610 *  -2.87073    1.000000    
     92 O3    s    0.110230 *  0.175520 *  0.884610 *  -3.33043    1.000000    
     93 O2    s    0.610230 *  0.824480 *  0.115390 *  -2.87073    1.000000    
     94 O2    s    0.889770 *  0.175520 *  0.115390 *  -2.87073    1.000000    
     95 O2    s    0.500000 *  0.000000 *  0.000000 *  -2.87073    1.000000    
     96 O2    s    0.000000 *  0.000000 *  0.000000 *  -2.87073    1.000000    
     97 O2    s    0.151750 *  0.500000 *  0.313330 *  -2.87073    1.000000    
     98 O2    s    0.348250 *  0.500000 *  0.313330 *  -2.87073    1.000000    
     99 O2    s    0.848250 *  0.500000 *  0.686670 *  -2.87073    1.000000    
    100 O3    s    0.651750 *  0.500000 *  0.686670 *  -3.33043    1.000000    
    101 O2    s    0.250000 *  0.234950 *  0.285720 *  -2.87073    1.000000    
    102 O2    s    0.250000 *  0.765050 *  0.285720 *  -2.87073    1.000000    
    103 O2    s    0.750000 *  0.234950 *  0.714280 *  -2.87073    1.000000    
    104 O3    s    0.750000 *  0.765050 *  0.714280 *  -3.33043    1.000000    
    105 O3    s    0.131410 *  0.268650 *  0.127790 *  -3.33043    1.000000    
    106 O2    s    0.368590 *  0.731350 *  0.127790 *  -2.87073    1.000000    
    107 O2    s    0.868590 *  0.268650 *  0.872210 *  -2.87073    1.000000    
    108 O3    s    0.631410 *  0.731350 *  0.872210 *  -3.33043    1.000000    
    109 O2    s    0.868590 *  0.731350 *  0.872210 *  -2.87073    1.000000    
    110 O2    s    0.631410 *  0.268650 *  0.872210 *  -2.87073    1.000000    
    111 O2    s    0.131410 *  0.731350 *  0.127790 *  -2.87073    1.000000    
    112 O2    s    0.368590 *  0.268650 *  0.127790 *  -2.87073    1.000000    
    113 O2    s    0.653920 *  0.500000 *  0.058200 *  -2.87073    1.000000    
    114 O2    s    0.846080 *  0.500000 *  0.058200 *  -2.87073    1.000000    
    115 O2    s    0.346080 *  0.500000 *  0.941800 *  -2.87073    1.000000    
    116 O3    s    0.153920 *  0.500000 *  0.941800 *  -3.33043    1.000000    
    117 O2    s    0.750000 *  0.231060 *  0.027050 *  -2.87073    1.000000    
    118 O2    s    0.750000 *  0.768940 *  0.027050 *  -2.87073    1.000000    
    119 O3    s    0.250000 *  0.231060 *  0.972950 *  -3.33043    1.000000    
    120 O2    s    0.250000 *  0.768940 *  0.972950 *  -2.87073    1.000000    
--------------------------------------------------------------------------------



********************************************************************************
*  General input information                                                   *
********************************************************************************

  Species output for all configurations : 

--------------------------------------------------------------------------------
  Species    Type    Atomic    Atomic    Charge       Radii (Angs)     Library
                     Number     Mass       (e)     Cova   Ionic  VDW   Symbol
--------------------------------------------------------------------------------
    Ge       Core       32      72.61   4.000000   1.170  0.000  1.750 Ge       
    Si       Core       14      28.09   4.000000   1.200  0.000  2.100 Si       
    O1       Core        8      16.00   1.733957   0.730  0.000  0.000 O1       
    O2       Core        8      16.00   0.870733   0.730  0.000  1.360 O2       
    O3       Core        8      16.00   1.330431   0.730  0.000  1.360 O3       
    O1       Shell       8       0.00  -3.733957   0.730  0.000  0.000 O1       
    O2       Shell       8       0.00  -2.870733   0.730  0.000  0.000 O2       
    O3       Shell       8       0.00  -3.330431   0.730  0.000  0.000 O3       
--------------------------------------------------------------------------------


  Lattice summation method               =    Ewald          (3-D)
                                         =    Parry          (2-D)
                                         =    Saunders et al (1-D)
  Accuracy factor for lattice sums       =   12.000


  Analytic derivatives to be used

  Time limit = Infinity

  Maximum range for interatomic potentials =    100000.000000 Angstroms

  General interatomic potentials :

--------------------------------------------------------------------------------
Atom  Types   Potential      Parameter       Value         Units   Cutoffs(Ang)
  1     2                                                            Min /  Max 
--------------------------------------------------------------------------------
Si   c O1   s Buckingham    Buckingham A     1315.2478    eV        0.000 16.000
                            Buckingham rho  0.31775900    Ang       
                            Buckingham C     10.141118    eV*Ang^6  
--------------------------------------------------------------------------------
Si   c O2   s Buckingham    Buckingham A     1315.2478    eV        0.000 16.000
                            Buckingham rho  0.31775900    Ang       
                            Buckingham C     10.141118    eV*Ang^6  
--------------------------------------------------------------------------------
Si   c O3   s Buckingham    Buckingham A     1315.2478    eV        0.000 16.000
                            Buckingham rho  0.31775900    Ang       
                            Buckingham C     10.141118    eV*Ang^6  
--------------------------------------------------------------------------------
Ge   c O1   s Buckingham    Buckingham A     1497.3996    eV        0.000 16.000
                            Buckingham rho  0.32564600    Ang       
                            Buckingham C     16.808599    eV*Ang^6  
--------------------------------------------------------------------------------
Ge   c O2   s Buckingham    Buckingham A     1497.3996    eV        0.000 16.000
                            Buckingham rho  0.32564600    Ang       
                            Buckingham C     16.808599    eV*Ang^6  
--------------------------------------------------------------------------------
Ge   c O3   s Buckingham    Buckingham A     1497.3996    eV        0.000 16.000
                            Buckingham rho  0.32564600    Ang       
                            Buckingham C     16.808599    eV*Ang^6  
--------------------------------------------------------------------------------
O1   s O1   s Buckingham    Buckingham A     22764.000    eV        0.000 16.000
                            Buckingham rho  0.14900000    Ang       
                            Buckingham C     10.937044    eV*Ang^6  
--------------------------------------------------------------------------------
O1   s O2   s Buckingham    Buckingham A     22764.000    eV        0.000 16.000
                            Buckingham rho  0.14900000    Ang       
                            Buckingham C     10.937044    eV*Ang^6  
--------------------------------------------------------------------------------
O1   s O3   s Buckingham    Buckingham A     22764.000    eV        0.000 16.000
                            Buckingham rho  0.14900000    Ang       
                            Buckingham C     10.937044    eV*Ang^6  
--------------------------------------------------------------------------------
O2   s O2   s Buckingham    Buckingham A     22764.000    eV        0.000 16.000
                            Buckingham rho  0.14900000    Ang       
                            Buckingham C     10.937044    eV*Ang^6  
--------------------------------------------------------------------------------
O2   s O3   s Buckingham    Buckingham A     22764.000    eV        0.000 16.000
                            Buckingham rho  0.14900000    Ang       
                            Buckingham C     10.937044    eV*Ang^6  
--------------------------------------------------------------------------------
O3   s O3   s Buckingham    Buckingham A     22764.000    eV        0.000 16.000
                            Buckingham rho  0.14900000    Ang       
                            Buckingham C     10.937044    eV*Ang^6  
--------------------------------------------------------------------------------
O1   c O1   s Spring (c-s)  Spring k 2       180.31577    eV*Ang^-2 0.000  0.800
                            Spring k 4       0.0000000    eV*Ang^-4 
--------------------------------------------------------------------------------
O2   c O2   s Spring (c-s)  Spring k 2       75.969800    eV*Ang^-2 0.000  0.800
                            Spring k 4       0.0000000    eV*Ang^-4 
--------------------------------------------------------------------------------
O3   c O3   s Spring (c-s)  Spring k 2       128.14270    eV*Ang^-2 0.000  0.800
                            Spring k 4       0.0000000    eV*Ang^-4 
--------------------------------------------------------------------------------

  General Three-body potentials :

--------------------------------------------------------------------------------
  Atoms       Potential      Parameter       Value         Units   Cutoffs(Ang)
  1 / 2 / 3                                                          Min /  Max 
--------------------------------------------------------------------------------
Si    core    Harmonic      Three-body cnst  1.2614000    eV*rad^-2 0.000  1.900
O1    shel                  Three-body angl  109.47000    degrees   0.000  1.900
O1    shel                  Three-body k4    0.0000000    eV*rad^-4 0.000  3.500
                            Three-body k3    0.0000000    eV*rad^-3 
--------------------------------------------------------------------------------
Si    core    Harmonic      Three-body cnst  1.2614000    eV*rad^-2 0.000  1.900
O1    shel                  Three-body angl  109.47000    degrees   0.000  1.900
õ(1   shel                  Three-body k4    0.0000000    eV*rad^-4 0.000  3.500
                            Three-body k3    0.0000000    eV*rad^-3 
--------------------------------------------------------------------------------
Si    core    Harmonic      Three-body cnst  1.2614000    eV*rad^-2 0.000  1.900
õ(1   shel                  Three-body angl  109.47000    degrees   0.000  1.900
õ(1   shel                  Three-body k4    0.0000000    eV*rad^-4 0.000  3.500
                            Three-body k3    0.0000000    eV*rad^-3 
--------------------------------------------------------------------------------
Si    core    Harmonic      Three-body cnst  1.2614000    eV*rad^-2 0.000  1.900
O1    shel                  Three-body angl  109.47000    degrees   0.000  1.900
O2    shel                  Three-body k4    0.0000000    eV*rad^-4 0.000  3.500
                            Three-body k3    0.0000000    eV*rad^-3 
--------------------------------------------------------------------------------
Si    core    Harmonic      Three-body cnst  1.2614000    eV*rad^-2 0.000  1.900
O1    shel                  Three-body angl  109.47000    degrees   0.000  1.900
õ(2   shel                  Three-body k4    0.0000000    eV*rad^-4 0.000  3.500
                            Three-body k3    0.0000000    eV*rad^-3 
--------------------------------------------------------------------------------
Si    core    Harmonic      Three-body cnst  1.2614000    eV*rad^-2 0.000  1.900
O2    shel                  Three-body angl  109.47000    degrees   0.000  1.900
õ(1   shel                  Three-body k4    0.0000000    eV*rad^-4 0.000  3.500
                            Three-body k3    0.0000000    eV*rad^-3 
--------------------------------------------------------------------------------
Si    core    Harmonic      Three-body cnst  1.2614000    eV*rad^-2 0.000  1.900
õ(1   shel                  Three-body angl  109.47000    degrees   0.000  1.900
õ(2   shel                  Three-body k4    0.0000000    eV*rad^-4 0.000  3.500
                            Three-body k3    0.0000000    eV*rad^-3 
--------------------------------------------------------------------------------
Si    core    Harmonic      Three-body cnst  1.2614000    eV*rad^-2 0.000  1.900
O2    shel                  Three-body angl  109.47000    degrees   0.000  1.900
O2    shel                  Three-body k4    0.0000000    eV*rad^-4 0.000  3.500
                            Three-body k3    0.0000000    eV*rad^-3 
--------------------------------------------------------------------------------
Si    core    Harmonic      Three-body cnst  1.2614000    eV*rad^-2 0.000  1.900
O2    shel                  Three-body angl  109.47000    degrees   0.000  1.900
õ(2   shel                  Three-body k4    0.0000000    eV*rad^-4 0.000  3.500
                            Three-body k3    0.0000000    eV*rad^-3 
--------------------------------------------------------------------------------
Si    core    Harmonic      Three-body cnst  1.2614000    eV*rad^-2 0.000  1.900
õ(2   shel                  Three-body angl  109.47000    degrees   0.000  1.900
õ(2   shel                  Three-body k4    0.0000000    eV*rad^-4 0.000  3.500
                            Three-body k3    0.0000000    eV*rad^-3 
--------------------------------------------------------------------------------

********************************************************************************
*  Output for configuration   1 : c00103.vasp                                  *
********************************************************************************


  Components of energy : 

--------------------------------------------------------------------------------
  Interatomic potentials     =         760.30861002 eV    
  Three-body potentials      =           0.01389215 eV    
  Monopole - monopole (real) =       -2676.00317478 eV    
  Monopole - monopole (recip)=       -1115.35404472 eV    
  Monopole - monopole (total)=       -3791.35721950 eV    
--------------------------------------------------------------------------------
  Total lattice energy       =       -3031.03471734 eV    
--------------------------------------------------------------------------------
  Total lattice energy       =         -292448.5166 kJ/(mole unit cells)
--------------------------------------------------------------------------------


  Number of variables =      363

  Maximum number of calculations  =          1000
  Maximum Hessian update interval =            10
  Maximum step size               =   0.100000000
  Maximum parameter tolerance     =   0.000010000
  Maximum function  tolerance     =   0.000010000
  Maximum gradient  tolerance     =   0.001000000
  Maximum gradient  component     =   0.010000000

  Symmetry not applied to optimisation

  Cell parameters to be optimised using strains

  Newton-Raphson optimiser to be used

  BFGS hessian update to be used

  Lower half triangular hessian to be used

  Minimiser to switch to RFO
  When gradient norm is less than     0.050000

  Dumpfile to be written after every cycle

  Start of bulk optimisation :

  Cycle:      0 Energy:     -3031.034717  Gnorm:      4.405261  CPU:    0.109
  ** Hessian calculated **
  Cycle:      1 Energy:     -3061.962123  Gnorm:      0.979125  CPU:    0.237
  ** Hessian calculated **
  Cycle:      2 Energy:     -3065.149104  Gnorm:      0.628464  CPU:    0.439
  ** Hessian calculated **
  Cycle:      3 Energy:     -3067.001722  Gnorm:      0.402928  CPU:    0.625
  Cycle:      4 Energy:     -3067.739801  Gnorm:      0.209798  CPU:    0.725
  ** Hessian calculated **
  Cycle:      5 Energy:     -3068.029540  Gnorm:      0.123955  CPU:    0.913
  Cycle:      6 Energy:     -3068.145572  Gnorm:      0.056101  CPU:    1.031
  Cycle:      7 Energy:     -3068.177078  Gnorm:      0.040798  CPU:    1.129
  ** Hessian has wrong structure
  ** Imaginary eigenvectors =   2
  Cycle:      8 Energy:     -3068.185336  Gnorm:      0.056696  CPU:    1.393
  ** Hessian has wrong structure
  ** Imaginary eigenvectors =   2
  ** Hessian has wrong structure
  ** Imaginary eigenvectors =   1
  Cycle:      9 Energy:     -3068.206742  Gnorm:      0.063359  CPU:    1.837
  ** Hessian has required structure
  Cycle:     10 Energy:     -3068.278972  Gnorm:      0.043037  CPU:    2.002
  ** Hessian has required structure
  Cycle:     11 Energy:     -3068.316350  Gnorm:      0.030842  CPU:    2.153
  ** Hessian has required structure
  Cycle:     12 Energy:     -3068.350585  Gnorm:      0.028262  CPU:    2.302
  ** Hessian has required structure
  Cycle:     13 Energy:     -3068.364993  Gnorm:      0.024370  CPU:    2.451
  ** Hessian has required structure
  Cycle:     14 Energy:     -3068.375621  Gnorm:      0.019923  CPU:    2.599
  ** Hessian has required structure
  Cycle:     15 Energy:     -3068.380095  Gnorm:      0.014926  CPU:    2.748
  ** Hessian has required structure
  Cycle:     16 Energy:     -3068.381894  Gnorm:      0.008913  CPU:    2.896
  ** Hessian has required structure
  Cycle:     17 Energy:     -3068.383106  Gnorm:      0.005858  CPU:    3.051
  ** Hessian has required structure
  Cycle:     18 Energy:     -3068.383821  Gnorm:      0.004190  CPU:    3.188
  ** Hessian has required structure
  Cycle:     19 Energy:     -3068.384263  Gnorm:      0.003762  CPU:    3.454
  ** Hessian has required structure
  Cycle:     20 Energy:     -3068.384746  Gnorm:      0.003593  CPU:    3.622
  ** Hessian has required structure
  Cycle:     21 Energy:     -3068.385599  Gnorm:      0.003620  CPU:    3.788
  ** Hessian has required structure
  Cycle:     22 Energy:     -3068.386055  Gnorm:      0.002237  CPU:    3.936
  ** Hessian has required structure
  Cycle:     23 Energy:     -3068.386294  Gnorm:      0.004284  CPU:    4.103
  ** Hessian has required structure
  Cycle:     24 Energy:     -3068.386615  Gnorm:      0.005364  CPU:    4.274
  ** Hessian has required structure
  Cycle:     25 Energy:     -3068.387184  Gnorm:      0.006244  CPU:    4.440
  ** Hessian has required structure
  Cycle:     26 Energy:     -3068.388145  Gnorm:      0.006932  CPU:    4.606
  ** Hessian has required structure
  Cycle:     27 Energy:     -3068.389651  Gnorm:      0.006680  CPU:    4.771
  ** Hessian has required structure
  Cycle:     28 Energy:     -3068.391377  Gnorm:      0.006518  CPU:    4.936
  ** Hessian has required structure
  Cycle:     29 Energy:     -3068.393461  Gnorm:      0.004718  CPU:    5.184
  ** Hessian has required structure
  Cycle:     30 Energy:     -3068.394293  Gnorm:      0.003300  CPU:    5.351
  ** Hessian has required structure
  Cycle:     31 Energy:     -3068.394713  Gnorm:      0.001813  CPU:    5.517
  ** Hessian has required structure
  Cycle:     32 Energy:     -3068.394897  Gnorm:      0.001693  CPU:    5.681
  ** Hessian has required structure
  Cycle:     33 Energy:     -3068.394980  Gnorm:      0.000205  CPU:    5.829
  ** Hessian has required structure
  Cycle:     34 Energy:     -3068.395003  Gnorm:      0.000219  CPU:    5.977
  ** Hessian has required structure
  Cycle:     35 Energy:     -3068.395007  Gnorm:      0.000167  CPU:    6.108
  ** Hessian has required structure
  Cycle:     36 Energy:     -3068.395009  Gnorm:      0.000123  CPU:    6.239
  ** Hessian has required structure
  Cycle:     37 Energy:     -3068.395009  Gnorm:      0.000135  CPU:    6.370
  ** Hessian has required structure
  Cycle:     38 Energy:     -3068.395009  Gnorm:      0.000135  CPU:    6.520
  ** Hessian has required structure
  Cycle:     39 Energy:     -3068.395009  Gnorm:      0.000135  CPU:    6.792
  ** Hessian calculated **


  **** Optimisation achieved ****


  Final energy =   -3068.39500911 eV      
  Final Gnorm  =       0.00013484

  Components of energy : 

--------------------------------------------------------------------------------
  Interatomic potentials     =         815.60785697 eV    
  Three-body potentials      =           0.18941883 eV    
  Monopole - monopole (real) =       -2208.32613629 eV    
  Monopole - monopole (recip)=       -1675.86614861 eV    
  Monopole - monopole (total)=       -3884.19228490 eV    
--------------------------------------------------------------------------------
  Total lattice energy       =       -3068.39500911 eV    
--------------------------------------------------------------------------------
  Total lattice energy       =         -296053.2137 kJ/(mole unit cells)
--------------------------------------------------------------------------------

  Final fractional coordinates of atoms :

--------------------------------------------------------------------------------
   No.  Atomic        x           y          z          Radius
        Label       (Frac)      (Frac)     (Frac)       (Angs) 
--------------------------------------------------------------------------------
     1  Ge    c     0.052090    0.000000    0.372270    0.000000
     2  Ge    c     0.658457    0.703887    0.703219    0.000000
     3  Ge    c     0.166813    0.300903    0.962281    0.000000
     4  Si    c     0.451614    0.018591    0.365499    0.000000
     5  Si    c     0.948986    0.997427    0.634526    0.000000
     6  Si    c     0.546785    0.999384    0.625905    0.000000
     7  Si    c     0.560486    0.007523    0.123520    0.000000
     8  Si    c     0.943987    0.014333    0.121137    0.000000
     9  Si    c     0.445939    0.019149    0.884097    0.000000
    10  Si    c     0.055238    0.008609    0.883855    0.000000
    11  Si    c     0.169605    0.291609    0.271183    0.000000
    12  Si    c     0.339606    0.721737    0.274095    0.000000
    13  Si    c     0.838908    0.294471    0.711532    0.000000
    14  Si    c     0.840247    0.695485    0.699305    0.000000
    15  Si    c     0.658514    0.293992    0.713412    0.000000
    16  Si    c     0.161234    0.700917    0.275587    0.000000
    17  Si    c     0.346305    0.320905    0.268020    0.000000
    18  Si    c     0.659718    0.312192    0.018164    0.000000
    19  Si    c     0.842335    0.706405    0.008529    0.000000
    20  Si    c     0.347623    0.332097    0.958279    0.000000
    21  Si    c     0.156070    0.705818    0.973855    0.000000
    22  Si    c     0.336318    0.725893    0.967765    0.000000
    23  Si    c     0.664078    0.714795    0.015298    0.000000
    24  Si    c     0.839387    0.308491    0.017274    0.000000
    25  O3    c     0.114917    0.175251    0.360685    0.000000
    26  O2    c     0.393009    0.854022    0.356512    0.000000
    27  O2    c     0.890534    0.161986    0.627447    0.000000
    28  O3    c     0.595477    0.823994    0.610165    0.000000
    29  O2    c     0.899163    0.818206    0.618239    0.000000
    30  O2    c     0.608380    0.158757    0.628409    0.000000
    31  O3    c     0.103172    0.806711    0.365194    0.000000
    32  O2    c     0.406798    0.198957    0.341931    0.000000
    33  O3    c     0.014235    0.012897    0.527626    0.000000
    34  O2    c     0.485658    0.025088    0.510687    0.000000
    35  O3    c     0.973888    0.005065    0.267894    0.000000
    36  O2    c     0.523274    0.999655    0.266651    0.000000
    37  O2    c     0.989370    0.995069    0.776134    0.000000
    38  O2    c     0.499650    0.991993    0.760534    0.000000
    39  O2    c     0.607649    0.189766    0.110488    0.000000
    40  O2    c     0.899149    0.834890    0.086279    0.000000
    41  O2    c     0.408397    0.211763    0.880707    0.000000
    42  O2    c     0.104162    0.829847    0.884236    0.000000
    43  O2    c     0.378508    0.871773    0.880782    0.000000
    44  O3    c     0.113241    0.168650    0.859785    0.000000
    45  O2    c     0.616673    0.841825    0.110506    0.000000
    46  O2    c     0.887781    0.180774    0.109047    0.000000
    47  O2    c     0.493424    0.993395    0.016598    0.000000
    48  O2    c     0.017267    0.041670    0.026403    0.000000
    49  O2    c     0.144932    0.494210    0.283535    0.000000
    50  O2    c     0.366496    0.523091    0.300850    0.000000
    51  O2    c     0.862751    0.492945    0.675224    0.000000
    52  O3    c     0.632972    0.487849    0.681588    0.000000
    53  O2    c     0.259478    0.274314    0.315673    0.000000
    54  O2    c     0.250151    0.743260    0.316772    0.000000
    55  O2    c     0.748670    0.264902    0.677659    0.000000
    56  O3    c     0.753418    0.730175    0.653179    0.000000
    57  O3    c     0.161521    0.228326    0.121884    0.000000
    58  O2    c     0.348111    0.768358    0.121106    0.000000
    59  O2    c     0.852550    0.258311    0.865520    0.000000
    60  O3    c     0.650816    0.766834    0.865527    0.000000
    61  O2    c     0.846830    0.740794    0.853646    0.000000
    62  O2    c     0.645548    0.255611    0.867848    0.000000
    63  O2    c     0.146988    0.763438    0.125902    0.000000
    64  O2    c     0.350953    0.287660    0.112664    0.000000
    65  O2    c     0.636214    0.514267    0.037851    0.000000
    66  O2    c     0.867415    0.508030    0.041563    0.000000
    67  O2    c     0.371132    0.535001    0.934652    0.000000
    68  O3    c     0.129536    0.508839    0.952002    0.000000
    69  O2    c     0.749459    0.287238    0.055087    0.000000
    70  O2    c     0.754257    0.736049    0.054187    0.000000
    71  O3    c     0.261454    0.297406    0.908180    0.000000
    72  O2    c     0.245806    0.726366    0.931731    0.000000
    73  O3    s     0.115473    0.172963    0.352153    0.000000
    74  O2    s     0.393345    0.856992    0.348182    0.000000
    75  O2    s     0.890906    0.159520    0.637490    0.000000
    76  O3    s     0.595836    0.831615    0.619469    0.000000
    77  O2    s     0.897991    0.823610    0.628604    0.000000
    78  O2    s     0.607391    0.156876    0.637748    0.000000
    79  O3    s     0.105164    0.811176    0.356288    0.000000
    80  O2    s     0.404842    0.192933    0.336067    0.000000
    81  O3    s     0.010238    0.010072    0.526186    0.000000
    82  O2    s     0.488805    0.021333    0.507259    0.000000
    83  O3    s     0.977304    0.005606    0.261157    0.000000
    84  O2    s     0.519546    0.002644    0.261381    0.000000
    85  O2    s     0.992673    0.996965    0.773239    0.000000
    86  O2    s     0.498555    0.996105    0.760147    0.000000
    87  O2    s     0.608408    0.183954    0.101569    0.000000
    88  O2    s     0.897504    0.839659    0.081091    0.000000
    89  O2    s     0.405787    0.204392    0.889491    0.000000
    90  O2    s     0.104721    0.835051    0.894208    0.000000
    91  O2    s     0.380974    0.871216    0.890920    0.000000
    92  O3    s     0.111832    0.163538    0.870662    0.000000
    93  O2    s     0.615813    0.845802    0.101288    0.000000
    94  O2    s     0.888346    0.177336    0.099923    0.000000
    95  O2    s     0.495681    0.997926    0.013743    0.000000
    96  O2    s     0.013332    0.035325    0.021779    0.000000
    97  O2    s     0.149340    0.495291    0.281367    0.000000
    98  O2    s     0.361507    0.522728    0.294546    0.000000
    99  O2    s     0.857848    0.493103    0.681624    0.000000
   100  O3    s     0.637768    0.485487    0.686705    0.000000
   101  O2    s     0.259411    0.281062    0.306071    0.000000
   102  O2    s     0.250408    0.736543    0.307974    0.000000
   103  O2    s     0.748884    0.271231    0.685166    0.000000
   104  O3    s     0.754504    0.724571    0.661866    0.000000
   105  O3    s     0.162731    0.240306    0.123611    0.000000
   106  O2    s     0.345914    0.758792    0.121084    0.000000
   107  O2    s     0.849693    0.267479    0.865443    0.000000
   108  O3    s     0.652751    0.756629    0.867481    0.000000
   109  O2    s     0.845634    0.732238    0.854253    0.000000
   110  O2    s     0.648403    0.265537    0.867883    0.000000
   111  O2    s     0.149372    0.751228    0.125575    0.000000
   112  O2    s     0.350091    0.295988    0.113127    0.000000
   113  O2    s     0.641629    0.513566    0.033397    0.000000
   114  O2    s     0.861828    0.507763    0.035512    0.000000
   115  O2    s     0.365067    0.533848    0.940585    0.000000
   116  O3    s     0.135324    0.512312    0.955095    0.000000
   117  O2    s     0.749474    0.292378    0.046884    0.000000
   118  O2    s     0.754185    0.730484    0.045062    0.000000
   119  O3    s     0.262537    0.301227    0.917690    0.000000
   120  O2    s     0.246196    0.724040    0.940233    0.000000
--------------------------------------------------------------------------------

  Final Cartesian lattice vectors (Angstroms) :

       17.248193   -0.069571   -0.006216
       -0.030677    7.646979   -0.012046
       -0.005063   -0.017452   10.197341


  Final cell parameters and derivatives :

--------------------------------------------------------------------------------
       a           17.248334 Angstrom     dE/de1(xx)     0.012715 eV/strain
       b            7.647050 Angstrom     dE/de2(yy)     0.014164 eV/strain
       c           10.197357 Angstrom     dE/de3(zz)     0.008684 eV/strain
       alpha       90.188199 Degrees      dE/de4(yz)    -0.000025 eV/strain
       beta        90.048698 Degrees      dE/de5(xz)     0.000523 eV/strain
       gamma       90.460920 Degrees      dE/de6(xy)     0.000468 eV/strain
--------------------------------------------------------------------------------

  Primitive cell volume =          1344.968590 Angs**3

  Density of cell =      1.945463 g/cm**3

  Non-primitive cell volume =          1344.968590 Angs**3


  Final internal derivatives :

--------------------------------------------------------------------------------
   No.  Atomic          a             b             c           Radius
        Label          (eV)          (eV)          (eV)        (eV/Angs)
--------------------------------------------------------------------------------
      1 Ge    c       0.000000      0.000000      0.000000      0.000000
      2 Ge    c      -0.002629      0.000574     -0.001003      0.000000
      3 Ge    c       0.002975      0.000628      0.005560      0.000000
      4 Si    c       0.001400      0.000392      0.000664      0.000000
      5 Si    c       0.001442      0.000181      0.001445      0.000000
      6 Si    c       0.003035      0.000213     -0.000407      0.000000
      7 Si    c       0.003354      0.000309      0.002095      0.000000
      8 Si    c      -0.000448     -0.000164     -0.000529      0.000000
      9 Si    c      -0.004561     -0.000677      0.001953      0.000000
     10 Si    c      -0.009043     -0.002430      0.003938      0.000000
     11 Si    c      -0.001280     -0.000798     -0.002841      0.000000
     12 Si    c       0.001440      0.001504     -0.001286      0.000000
     13 Si    c       0.000624     -0.000648      0.000087      0.000000
     14 Si    c      -0.000283      0.000233     -0.000537      0.000000
     15 Si    c       0.000350     -0.000352      0.000196      0.000000
     16 Si    c      -0.001930      0.000529     -0.000703      0.000000
     17 Si    c       0.001508     -0.001524      0.000056      0.000000
     18 Si    c       0.001391     -0.000084      0.000525      0.000000
     19 Si    c      -0.001229      0.000032      0.001324      0.000000
     20 Si    c       0.002249     -0.002325     -0.001080      0.000000
     21 Si    c      -0.000168      0.000357      0.002067      0.000000
     22 Si    c       0.002685      0.002481      0.000940      0.000000
     23 Si    c      -0.000717      0.000037      0.001034      0.000000
     24 Si    c       0.000781     -0.000559      0.000168      0.000000
     25 O3    c       0.003463      0.003208      0.001481      0.000000
     26 O2    c      -0.004030     -0.003194      0.000564      0.000000
     27 O2    c       0.000345     -0.000437      0.000045      0.000000
     28 O3    c       0.000412     -0.000421     -0.000089      0.000000
     29 O2    c       0.000297      0.000381      0.000120      0.000000
     30 O2    c      -0.000891      0.000018     -0.000245      0.000000
     31 O3    c       0.000561     -0.001839      0.000566      0.000000
     32 O2    c      -0.002942      0.002700     -0.000823      0.000000
     33 O3    c       0.004818     -0.000064     -0.001730      0.000000
     34 O2    c      -0.004110      0.000664     -0.000590      0.000000
     35 O3    c      -0.010503     -0.000305     -0.005328      0.000000
     36 O2    c       0.004598     -0.000210     -0.002067      0.000000
     37 O2    c      -0.010049     -0.001218     -0.005929      0.000000
     38 O2    c       0.007905     -0.000438     -0.005267      0.000000
     39 O2    c      -0.001504     -0.000513     -0.000389      0.000000
     40 O2    c       0.001602      0.001254      0.000074      0.000000
     41 O2    c      -0.005713      0.004894      0.000134      0.000000
     42 O2    c       0.011053     -0.006319     -0.002452      0.000000
     43 O2    c      -0.002659     -0.001386     -0.000174      0.000000
     44 O3    c       0.008217      0.010099     -0.009538      0.000000
     45 O2    c       0.001855     -0.001092     -0.000198      0.000000
     46 O2    c      -0.001195      0.000034     -0.000655      0.000000
     47 O2    c      -0.002961     -0.000359      0.002216      0.000000
     48 O2    c      -0.000933      0.001052      0.004251      0.000000
     49 O2    c      -0.001263      0.001437      0.000493      0.000000
     50 O2    c       0.002600     -0.000944      0.001089      0.000000
     51 O2    c       0.000321      0.000556     -0.000439      0.000000
     52 O3    c      -0.000943     -0.001031     -0.001340      0.000000
     53 O2    c       0.002211     -0.000355      0.001528      0.000000
     54 O2    c      -0.000587      0.000492      0.000995      0.000000
     55 O2    c      -0.003877     -0.000082      0.000071      0.000000
     56 O3    c       0.007024      0.000273     -0.000652      0.000000
     57 O3    c       0.000780     -0.000144      0.000468      0.000000
     58 O2    c       0.001044      0.000075     -0.000008      0.000000
     59 O2    c       0.000033     -0.000000     -0.000016      0.000000
     60 O3    c      -0.000786      0.000181      0.000851      0.000000
     61 O2    c       0.000700      0.000017     -0.000721      0.000000
     62 O2    c      -0.000547      0.000145     -0.000084      0.000000
     63 O2    c      -0.000305     -0.000028     -0.000098      0.000000
     64 O2    c      -0.000936      0.000028     -0.000309      0.000000
     65 O2    c      -0.000486     -0.001427      0.000361      0.000000
     66 O2    c      -0.000137      0.001313     -0.000089      0.000000
     67 O2    c       0.003522      0.000018     -0.000741      0.000000
     68 O3    c      -0.002899      0.000161     -0.001165      0.000000
     69 O2    c      -0.004419      0.000067     -0.000155      0.000000
     70 O2    c       0.004373      0.000081     -0.000017      0.000000
     71 O3    c       0.003075      0.000714     -0.002066      0.000000
     72 O2    c       0.000311     -0.000265     -0.001309      0.000000
     73 O3    s      -0.001883     -0.000846      0.000186      0.000000
     74 O2    s       0.000289     -0.000123      0.000131      0.000000
     75 O2    s       0.001353     -0.000048      0.000073      0.000000
     76 O3    s       0.000621     -0.000078      0.000090      0.000000
     77 O2    s      -0.000517     -0.000330      0.000222      0.000000
     78 O2    s       0.003190      0.000007      0.000200      0.000000
     79 O3    s       0.001899     -0.000017     -0.000002      0.000000
     80 O2    s      -0.001246      0.000835     -0.000294      0.000000
     81 O3    s      -0.004505      0.000089      0.001806      0.000000
     82 O2    s       0.002830      0.000322      0.000795      0.000000
     83 O3    s       0.000923     -0.000627      0.002107      0.000000
     84 O2    s       0.002790      0.000929      0.001109      0.000000
     85 O2    s      -0.008496      0.000430     -0.000060      0.000000
     86 O2    s       0.002520     -0.001525     -0.000360      0.000000
     87 O2    s       0.002195      0.000794      0.000592      0.000000
     88 O2    s       0.000011     -0.000560     -0.000226      0.000000
     89 O2    s      -0.004046      0.000262      0.001332      0.000000
     90 O2    s       0.003882     -0.003420      0.000462      0.000000
     91 O2    s      -0.003295     -0.000848     -0.001854      0.000000
     92 O3    s      -0.001023      0.002186     -0.001196      0.000000
     93 O2    s       0.000616      0.000182     -0.000483      0.000000
     94 O2    s       0.002157     -0.000577     -0.000316      0.000000
     95 O2    s       0.004654      0.000919      0.002019      0.000000
     96 O2    s      -0.012243     -0.001843      0.002879      0.000000
     97 O2    s       0.000034      0.000222     -0.000220      0.000000
     98 O2    s       0.000176     -0.000437      0.000231      0.000000
     99 O2    s       0.000691      0.000398     -0.000331      0.000000
    100 O3    s       0.000136     -0.000152     -0.000138      0.000000
    101 O2    s       0.001324     -0.000350      0.000182      0.000000
    102 O2    s      -0.001160      0.000141     -0.000072      0.000000
    103 O2    s       0.000119     -0.000517     -0.000214      0.000000
    104 O3    s      -0.002458      0.000607      0.000158      0.000000
    105 O3    s      -0.000581      0.000245      0.000148      0.000000
    106 O2    s      -0.001080      0.000464      0.000012      0.000000
    107 O2    s       0.001383     -0.000332      0.000144      0.000000
    108 O3    s      -0.002540      0.001087     -0.000255      0.000000
    109 O2    s       0.000385     -0.000045      0.000301      0.000000
    110 O2    s       0.000711     -0.000245      0.000369      0.000000
    111 O2    s       0.000110     -0.000162      0.000129      0.000000
    112 O2    s       0.000347     -0.001013     -0.000020      0.000000
    113 O2    s      -0.000384     -0.000355      0.000280      0.000000
    114 O2    s       0.000937      0.000415      0.000517      0.000000
    115 O2    s       0.000356     -0.000508     -0.000348      0.000000
    116 O3    s       0.001103      0.000245      0.001301      0.000000
    117 O2    s       0.000196     -0.000405      0.000279      0.000000
    118 O2    s       0.000641      0.000486      0.000073      0.000000
    119 O3    s      -0.000302     -0.001301      0.000683      0.000000
    120 O2    s      -0.000160      0.000655      0.000249      0.000000
--------------------------------------------------------------------------------
  Maximum abs         0.012243      0.010099      0.009538      0.000000
--------------------------------------------------------------------------------


  Born effective charge tensors : 

-------------------------------------------------------------------------------
  Atom             x           y             z
-------------------------------------------------------------------------------
    1 Ge    x       4.2912     -0.0970     -0.3719
            y       0.0396      3.9130     -0.0096
            z      -0.3329      0.0716      4.6167
-------------------------------------------------------------------------------
    2 Ge    x       3.9587     -0.3362      0.1288
            y      -0.3221      4.1831     -0.2456
            z       0.1900     -0.0425      3.4393
-------------------------------------------------------------------------------
    3 Ge    x       4.0372      0.4185      0.1866
            y       0.1858      4.1540      0.3103
            z       0.2112      0.0270      3.2795
-------------------------------------------------------------------------------
    4 Si    x       3.4189     -0.0514      0.3022
            y       0.0686      3.2734     -0.0559
            z       0.2687      0.0448      3.8004
-------------------------------------------------------------------------------
    5 Si    x       3.7065      0.0437     -0.1907
            y      -0.0378      3.2785     -0.0043
            z      -0.9636     -0.0901      3.9515
-------------------------------------------------------------------------------
    6 Si    x       3.5875     -0.2314      0.0274
            y      -0.1414      3.4606      0.0787
            z       0.6295     -0.1149      3.8136
-------------------------------------------------------------------------------
    7 Si    x       3.5132      0.0716     -0.2870
            y      -0.0485      3.2680      0.0039
            z      -0.4034     -0.0364      3.1320
-------------------------------------------------------------------------------
    8 Si    x       3.6036      0.0161      0.5064
            y      -0.0882      3.3342      0.0317
            z       0.4946     -0.0718      3.5780
-------------------------------------------------------------------------------
    9 Si    x       3.4588     -0.1425     -0.0816
            y       0.1424      3.2503     -0.0036
            z      -0.5567      0.0667      3.0614
-------------------------------------------------------------------------------
   10 Si    x       3.7345      0.1145     -0.0233
            y       0.2206      3.4490     -0.0962
            z       0.6140      0.0271      2.9646
-------------------------------------------------------------------------------
   11 Si    x       3.4806      0.4402     -0.2042
            y       0.3631      3.6660     -0.2725
            z      -0.2807     -0.0918      3.2660
-------------------------------------------------------------------------------
   12 Si    x       3.1867      0.2908      0.0937
            y       0.2197      3.4605      0.1532
            z       0.1205      0.0736      2.8110
-------------------------------------------------------------------------------
   13 Si    x       3.1878     -0.2823     -0.1128
            y      -0.1976      3.4198      0.1448
            z      -0.0782      0.0598      2.8050
-------------------------------------------------------------------------------
   14 Si    x       3.5139      0.2082      0.0327
            y       0.1964      3.5103     -0.1912
            z      -0.0215     -0.0833      2.8729
-------------------------------------------------------------------------------
   15 Si    x       3.2841      0.2020      0.1278
            y       0.0738      3.7396      0.0792
            z       0.1293      0.0093      2.9006
-------------------------------------------------------------------------------
   16 Si    x       3.4654     -0.3709     -0.2445
            y      -0.4099      3.5211      0.3653
            z      -0.2861      0.1489      2.9776
-------------------------------------------------------------------------------
   17 Si    x       3.1665     -0.2459      0.0420
            y      -0.2883      3.4597     -0.1443
            z       0.1550     -0.0923      2.8031
-------------------------------------------------------------------------------
   18 Si    x       3.2667      0.2808     -0.1610
            y       0.2171      3.4151     -0.2011
            z      -0.1500     -0.0444      2.7204
-------------------------------------------------------------------------------
   19 Si    x       3.2513      0.2788      0.0878
            y       0.2245      3.4309      0.1464
            z       0.1675      0.0817      2.7322
-------------------------------------------------------------------------------
   20 Si    x       3.5847     -0.2385      0.0150
            y      -0.2199      3.4964      0.2003
            z      -0.0946      0.0802      2.7983
-------------------------------------------------------------------------------
   21 Si    x       3.3716     -0.2197      0.1838
            y      -0.0782      3.7136     -0.1590
            z       0.1929      0.0179      2.7516
-------------------------------------------------------------------------------
   22 Si    x       3.2080      0.3699     -0.1498
            y       0.1030      3.4113     -0.1565
            z      -0.1124     -0.0752      2.7313
-------------------------------------------------------------------------------
   23 Si    x       3.3068     -0.3221     -0.1211
            y      -0.1894      3.5506      0.1278
            z      -0.1119     -0.0088      3.0322
-------------------------------------------------------------------------------
   24 Si    x       3.2331     -0.2763      0.1432
            y      -0.1603      3.4289     -0.1922
            z       0.1036     -0.0692      2.7342
-------------------------------------------------------------------------------
   25 O3    x      -2.1355     -0.9705      0.5394
            y      -0.9894     -2.3109      0.5322
            z       0.5829      0.5236     -1.6205
-------------------------------------------------------------------------------
   26 O2    x      -1.7202     -0.7378     -0.3396
            y      -0.7508     -1.9855     -0.3390
            z      -0.3552     -0.3506     -1.3482
-------------------------------------------------------------------------------
   27 O2    x      -1.7072      0.7372      0.2421
            y       0.7182     -1.9842     -0.2840
            z       0.3305     -0.2759     -1.3292
-------------------------------------------------------------------------------
   28 O3    x      -2.0320      0.9554     -0.3070
            y       0.9912     -2.4574      0.3025
            z      -0.4149      0.2915     -1.5361
-------------------------------------------------------------------------------
   29 O2    x      -1.6542     -0.7007      0.2160
            y      -0.6687     -1.9939      0.2338
            z       0.3122      0.2395     -1.3386
-------------------------------------------------------------------------------
   30 O2    x      -1.7513     -0.6798     -0.2997
            y      -0.7048     -1.8722     -0.3292
            z      -0.3707     -0.2911     -1.3733
-------------------------------------------------------------------------------
   31 O3    x      -2.0932      0.9694      0.5529
            y       0.9349     -2.2988     -0.5074
            z       0.5834     -0.5109     -1.6440
-------------------------------------------------------------------------------
   32 O2    x      -1.6820      0.7336     -0.3477
            y       0.7166     -2.0303      0.3801
            z      -0.3624      0.3601     -1.3339
-------------------------------------------------------------------------------
   33 O3    x      -2.1163     -0.0235      1.1413
            y      -0.0264     -1.2101      0.0205
            z       1.4489      0.0236     -3.3102
-------------------------------------------------------------------------------
   34 O2    x      -1.6090      0.0481     -0.7800
            y       0.0092     -1.0895      0.0229
            z      -0.9742      0.0524     -2.7219
-------------------------------------------------------------------------------
   35 O3    x      -2.0322      0.0480     -0.9410
            y       0.0442     -1.2192      0.0464
            z      -0.9475      0.0803     -2.8719
-------------------------------------------------------------------------------
   36 O2    x      -1.7691      0.0246      0.6990
            y       0.0238     -1.1068     -0.0125
            z       0.7050     -0.0154     -2.1839
-------------------------------------------------------------------------------
   37 O2    x      -1.7737     -0.0016     -0.6951
            y      -0.0047     -1.1317      0.0087
            z      -0.6798      0.0054     -2.1024
-------------------------------------------------------------------------------
   38 O2    x      -1.6788      0.0613      0.7126
            y       0.0003     -1.1327     -0.0348
            z       0.6936     -0.0471     -2.2585
-------------------------------------------------------------------------------
   39 O2    x      -1.6796     -0.7206      0.3830
            y      -0.6412     -1.9934      0.3944
            z       0.3634      0.3642     -1.2794
-------------------------------------------------------------------------------
   40 O2    x      -1.7025     -0.7187     -0.3773
            y      -0.6611     -2.0381     -0.4139
            z      -0.3698     -0.3789     -1.2567
-------------------------------------------------------------------------------
   41 O2    x      -1.6532      0.7075      0.2659
            y       0.6147     -2.0478     -0.2863
            z       0.3321     -0.2878     -1.2030
-------------------------------------------------------------------------------
   42 O2    x      -1.7395      0.6932     -0.3111
            y       0.6439     -1.9069      0.3373
            z      -0.3728      0.2901     -1.2401
-------------------------------------------------------------------------------
   43 O2    x      -1.7370     -0.7233      0.2708
            y      -0.6827     -1.9384      0.3239
            z       0.3235      0.3170     -1.2334
-------------------------------------------------------------------------------
   44 O3    x      -2.1379     -0.9868     -0.2643
            y      -0.9567     -2.3543     -0.2909
            z      -0.3553     -0.2631     -1.3909
-------------------------------------------------------------------------------
   45 O2    x      -1.7219      0.7287      0.3736
            y       0.6757     -1.9742     -0.3835
            z       0.3524     -0.3459     -1.2660
-------------------------------------------------------------------------------
   46 O2    x      -1.7082      0.7160     -0.3669
            y       0.6738     -1.9728      0.3664
            z      -0.3386      0.3500     -1.2794
-------------------------------------------------------------------------------
   47 O2    x      -1.8341      0.0195     -0.6240
            y      -0.0053     -1.1588      0.0340
            z      -0.3607      0.0295     -1.7248
-------------------------------------------------------------------------------
   48 O2    x      -1.8666     -0.0028      0.5439
            y      -0.0138     -1.1961     -0.0327
            z       0.2739     -0.0464     -1.6817
-------------------------------------------------------------------------------
   49 O2    x      -1.2097      0.0350      0.0420
            y       0.0675     -2.5271      0.0077
            z       0.0697      0.0223     -1.0691
-------------------------------------------------------------------------------
   50 O2    x      -1.1569      0.0406     -0.0507
            y       0.0626     -2.5627     -0.0283
            z      -0.0789     -0.0141     -1.0704
-------------------------------------------------------------------------------
   51 O2    x      -1.1570     -0.0321      0.0639
            y      -0.0357     -2.5455      0.0547
            z       0.0725      0.0385     -1.0846
-------------------------------------------------------------------------------
   52 O3    x      -1.3269      0.0775     -0.0876
            y       0.0866     -3.1936      0.1181
            z      -0.1088      0.1215     -1.2017
-------------------------------------------------------------------------------
   53 O2    x      -2.3456     -0.0634      0.0268
            y      -0.0318     -1.2614      0.0770
            z       0.0365      0.0549     -1.1012
-------------------------------------------------------------------------------
   54 O2    x      -2.3821     -0.0755     -0.0051
            y      -0.0450     -1.2435     -0.0770
            z       0.0200     -0.0432     -1.0972
-------------------------------------------------------------------------------
   55 O2    x      -2.4350     -0.0227      0.0139
            y      -0.0367     -1.2304     -0.0574
            z      -0.0124     -0.0366     -1.0781
-------------------------------------------------------------------------------
   56 O3    x      -2.9894      0.0825     -0.0653
            y       0.0743     -1.3769      0.0992
            z      -0.1011      0.0644     -1.2492
-------------------------------------------------------------------------------
   57 O3    x      -1.3385     -0.1577     -0.1254
            y      -0.1055     -1.5000     -0.1016
            z      -0.0769     -0.0657     -2.5334
-------------------------------------------------------------------------------
   58 O2    x      -1.1772     -0.1326      0.0065
            y      -0.0879     -1.2730      0.0121
            z       0.0011      0.0195     -2.0707
-------------------------------------------------------------------------------
   59 O2    x      -1.1867      0.1296     -0.0185
            y       0.0989     -1.2716     -0.0418
            z      -0.0185     -0.0305     -2.0631
-------------------------------------------------------------------------------
   60 O3    x      -1.3232      0.1558     -0.0556
            y       0.1255     -1.4663      0.0832
            z      -0.0529      0.0303     -2.5975
-------------------------------------------------------------------------------
   61 O2    x      -1.1769     -0.1130      0.0184
            y      -0.0918     -1.2847     -0.0195
            z      -0.0001     -0.0217     -2.0909
-------------------------------------------------------------------------------
   62 O2    x      -1.2145     -0.1310      0.0161
            y      -0.1077     -1.2710     -0.0527
            z       0.0254     -0.0659     -2.0645
-------------------------------------------------------------------------------
   63 O2    x      -1.2334      0.1450     -0.0663
            y       0.1218     -1.3048      0.0521
            z      -0.0660      0.0535     -2.0125
-------------------------------------------------------------------------------
   64 O2    x      -1.1767      0.1079      0.0548
            y       0.0994     -1.2842      0.0157
            z       0.0545      0.0265     -2.0989
-------------------------------------------------------------------------------
   65 O2    x      -1.2327     -0.0059      0.0716
            y      -0.0363     -2.5638     -0.0109
            z       0.0891     -0.0156     -1.0101
-------------------------------------------------------------------------------
   66 O2    x      -1.2223     -0.0184     -0.0729
            y      -0.0273     -2.5291      0.0465
            z      -0.0934      0.0133     -1.0247
-------------------------------------------------------------------------------
   67 O2    x      -1.2305      0.0716      0.0825
            y       0.1253     -2.4804     -0.0320
            z       0.1050     -0.0272     -1.0393
-------------------------------------------------------------------------------
   68 O3    x      -1.4215     -0.0532     -0.0967
            y       0.0158     -3.1403     -0.1006
            z      -0.1219     -0.0849     -1.1143
-------------------------------------------------------------------------------
   69 O2    x      -2.4434      0.0127      0.0110
            y       0.0047     -1.2270      0.0659
            z       0.0165      0.0306     -1.0405
-------------------------------------------------------------------------------
   70 O2    x      -2.4201      0.0230      0.0614
            y       0.0289     -1.2481     -0.0659
            z       0.0565     -0.0401     -1.0492
-------------------------------------------------------------------------------
   71 O3    x      -3.0198     -0.1396     -0.0686
            y      -0.1138     -1.3738     -0.0986
            z      -0.0993     -0.0502     -1.2273
-------------------------------------------------------------------------------
   72 O2    x      -2.4623     -0.0332      0.0269
            y      -0.0055     -1.2250      0.0558
            z      -0.0017      0.0190     -1.0566
-------------------------------------------------------------------------------




  Elastic Constant Matrix: (Units=GPa)

-------------------------------------------------------------------------------
  Indices      1         2         3         4         5         6    
-------------------------------------------------------------------------------
       1     62.1917   41.0149   23.1686   -0.4939    5.2830   -6.0509
       2     41.0149   93.1947   23.0799   -0.2159    6.0472   -8.5685
       3     23.1686   23.0799   25.4320   -0.0961    0.3194   -0.3924
       4     -0.4939   -0.2159   -0.0961   10.7524    0.1112   -0.0710
       5      5.2830    6.0472    0.3194    0.1112   22.6654   -3.4439
       6     -6.0509   -8.5685   -0.3924   -0.0710   -3.4439   18.0506
-------------------------------------------------------------------------------


  Elastic Compliance Matrix: (Units=1/GPa)

-------------------------------------------------------------------------------
  Indices      1         2         3         4         5         6    
-------------------------------------------------------------------------------
       1    0.028999 -0.007129 -0.019817  0.001085 -0.003795  0.005186
       2   -0.007129  0.016521 -0.008400 -0.000019 -0.001882  0.004911
       3   -0.019817 -0.008400  0.064806 -0.000603  0.004684 -0.008330
       4    0.001085 -0.000019 -0.000603  0.093057 -0.000606  0.000592
       5   -0.003795 -0.001882  0.004684 -0.000606  0.046477  0.006801
       6    0.005186  0.004911 -0.008330  0.000592  0.006801  0.060589
-------------------------------------------------------------------------------

  Mechanical properties :

-------------------------------------------------------------------------------
  Convention :                    Reuss         Voigt         Hill
-------------------------------------------------------------------------------
  Bulk  Modulus (GPa)     =      25.22925      39.48281      32.35603
  Shear Modulus (GPa)     =      12.67904      16.53068      14.60486
-------------------------------------------------------------------------------
  Velocity S-wave (km/s)  =       2.55289       2.91497       2.73992
  Velocity P-wave (km/s)  =       4.65380       5.62354       5.16150
-------------------------------------------------------------------------------
  Compressibility (1/GPa) =    0.03963654
-------------------------------------------------------------------------------
  Stress axis :                     x             y             z
-------------------------------------------------------------------------------
  Youngs Moduli (GPa)     =      34.48404      60.52722      15.43056
-------------------------------------------------------------------------------
  Poissons Ratio (x)      =                     0.43151       0.30578
  Poissons Ratio (y)      =       0.24584                     0.12961
  Poissons Ratio (z)      =       0.68335       0.50840
-------------------------------------------------------------------------------


  Piezoelectric Strain Matrix: (Units=C/m**2)

-------------------------------------------------------------------------------
  Indices      1         2         3         4         5         6    
-------------------------------------------------------------------------------
       x    -0.42864  -0.70597  -0.36704   0.28920  -0.37276   0.25304
       y     0.14148   0.32642   0.11033  -0.21203   0.37380   0.56173
       z    -0.27272  -0.40023   1.61203   0.13084  -0.25133   0.14512
-------------------------------------------------------------------------------


  Piezoelectric Stress Matrix: (Units=10**-11 C/N)

-------------------------------------------------------------------------------
  Indices      1         2         3         4         5         6    
-------------------------------------------------------------------------------
       x     0.29173  -0.35863  -1.33911   2.70570  -1.45433   1.03343
       y     0.08539   0.55171  -0.11961  -1.95437   2.06879   3.78694
       z    -3.51517  -1.70254  11.07714   1.11534  -0.14343  -0.96480
-------------------------------------------------------------------------------


  Static dielectric constant tensor : 

-------------------------------------------------------------------------------
              x         y         z
-------------------------------------------------------------------------------
       x     3.95961  -0.02076  -0.04103
       y    -0.02076   4.10962  -0.02008
       z    -0.04103  -0.02008   3.27121
--------------------------------------------------------------------------------

  High frequency dielectric constant tensor : 

-------------------------------------------------------------------------------
              x         y         z
-------------------------------------------------------------------------------
       x     1.67616  -0.00063  -0.00007
       y    -0.00063   1.68318  -0.00045
       z    -0.00007  -0.00045   1.61490
-------------------------------------------------------------------------------

  Static refractive indices : 

-------------------------------------------------------------------------------
    1 =    1.80783      2 =    1.98985      3 =    2.02798
-------------------------------------------------------------------------------

  High frequency refractive indices : 

-------------------------------------------------------------------------------
    1 =    1.27079      2 =    1.29464      3 =    1.29740
-------------------------------------------------------------------------------


  Time to end of optimisation =       7.1977 seconds


  Peak dynamic memory used =       5.01 MB 


  Timing analysis for GULP :

--------------------------------------------------------------------------------
  Task / Subroutine                                          Time (Seconds)
--------------------------------------------------------------------------------
  Calculation of reciprocal space energy and derivatives          0.4492
  Calculation of real space energy and derivatives                4.4005
  Calculation of three-body energy and derivatives                0.4076
  Calculation and manipulation of Hessian matrix                  2.0513
  Calculation of matrix inversion                                 0.0344
  Global summation overhead                                       0.0001
--------------------------------------------------------------------------------
  Total CPU time                                                  7.1978
--------------------------------------------------------------------------------


  Dump file written as c00103.vasp.grs
  CIF file written as c00103.vasp.cif


  Job Finished at 11:44.36  7th October    2025                               

