********************************************************************************
*                       GENERAL UTILITY LATTICE PROGRAM                        *
*                                 Julian Gale                                  *
*                       Curtin Institute for Computation                       *
*                    School of Molecular and Life Sciences                     *
*                    Curtin University, Western Australia                      *
********************************************************************************
* Version = 6.1.2 * Last modified =   3rd November 2022                        *
********************************************************************************
*  optimise     - perform optimisation run                                     *
*  conp         - constant pressure calculation                                *
*  property     - calculate properties for final geometry                      *
********************************************************************************

  Job Started  at 11:56.48  7th October    2025                               

  Number of CPUs =     1


  Total number of configurations input =      1

********************************************************************************
*  Input for Configuration =   1 : c00172.vasp                                 *
********************************************************************************

  Formula = Ge3Si21O48                                                  

  Number of irreducible atoms/shells =     120


  Total number atoms/shells =     120

  Dimensionality = 3               :  Bulk   



  Cartesian lattice vectors (Angstroms) :

       17.182800    0.000000    0.000000
        0.000000    7.513760    0.000000
        0.000000    0.000000   10.447700

  Cell parameters (Angstroms/Degrees):

  a =      17.1828    alpha =  90.0000
  b =       7.5138    beta  =  90.0000
  c =      10.4477    gamma =  90.0000

  Initial cell volume =        1348.875752 Angs**3

  Temperature of configuration =   0.00     K 

  Pressure of configuration =         0.000 GPa 

  Fractional coordinates of asymmetric unit :

--------------------------------------------------------------------------------
   No.  Atomic       x           y          z         Charge      Occupancy
        Label      (Frac)      (Frac)     (Frac)        (e)         (Frac)  
--------------------------------------------------------------------------------
      1 Ge    c    0.556730    0.000000    0.122130     4.00000    1.000000    
      2 Ge    c    0.839810 *  0.293910 *  0.726560 *   4.00000    1.000000    
      3 Ge    c    0.660660 *  0.705910 *  0.017440 *   4.00000    1.000000    
      4 Si    c    0.052090 *  0.000000 *  0.372270 *   4.00000    1.000000    
      5 Si    c    0.447910 *  0.000000 *  0.372270 *   4.00000    1.000000    
      6 Si    c    0.947910 *  0.000000 *  0.627730 *   4.00000    1.000000    
      7 Si    c    0.552090 *  0.000000 *  0.627730 *   4.00000    1.000000    
      8 Si    c    0.943270 *  0.000000 *  0.122130 *   4.00000    1.000000    
      9 Si    c    0.443270 *  0.000000 *  0.877870 *   4.00000    1.000000    
     10 Si    c    0.056730 *  0.000000 *  0.877870 *   4.00000    1.000000    
     11 Si    c    0.160190 *  0.293910 *  0.273440 *   4.00000    1.000000    
     12 Si    c    0.339810 *  0.706090 *  0.273440 *   4.00000    1.000000    
     13 Si    c    0.660190 *  0.706090 *  0.726560 *   4.00000    1.000000    
     14 Si    c    0.839810 *  0.706090 *  0.726560 *   4.00000    1.000000    
     15 Si    c    0.660190 *  0.293910 *  0.726560 *   4.00000    1.000000    
     16 Si    c    0.160190 *  0.706090 *  0.273440 *   4.00000    1.000000    
     17 Si    c    0.339810 *  0.293910 *  0.273440 *   4.00000    1.000000    
     18 Si    c    0.660660 *  0.294090 *  0.017440 *   4.00000    1.000000    
     19 Si    c    0.839340 *  0.705910 *  0.017440 *   4.00000    1.000000    
     20 Si    c    0.339340 *  0.294090 *  0.982560 *   4.00000    1.000000    
     21 Si    c    0.160660 *  0.705910 *  0.982560 *   4.00000    1.000000    
     22 Si    c    0.339340 *  0.705910 *  0.982560 *   4.00000    1.000000    
     23 Si    c    0.160660 *  0.294090 *  0.982560 *   4.00000    1.000000    
     24 Si    c    0.839340 *  0.294090 *  0.017440 *   4.00000    1.000000    
     25 O2    c    0.106570 *  0.174340 *  0.366200 *   0.87073    1.000000    
     26 O2    c    0.393430 *  0.825660 *  0.366200 *   0.87073    1.000000    
     27 O3    c    0.893430 *  0.174340 *  0.633800 *   1.33043    1.000000    
     28 O2    c    0.606570 *  0.825660 *  0.633800 *   0.87073    1.000000    
     29 O2    c    0.893430 *  0.825660 *  0.633800 *   0.87073    1.000000    
     30 O2    c    0.606570 *  0.174340 *  0.633800 *   0.87073    1.000000    
     31 O2    c    0.106570 *  0.825660 *  0.366200 *   0.87073    1.000000    
     32 O2    c    0.393430 *  0.174340 *  0.366200 *   0.87073    1.000000    
     33 O2    c    0.000000 *  0.000000 *  0.500000 *   0.87073    1.000000    
     34 O2    c    0.500000 *  0.000000 *  0.500000 *   0.87073    1.000000    
     35 O2    c    0.994520 *  0.000000 *  0.250840 *   0.87073    1.000000    
     36 O3    c    0.505480 *  0.000000 *  0.250840 *   1.33043    1.000000    
     37 O2    c    0.005480 *  0.000000 *  0.749160 *   0.87073    1.000000    
     38 O2    c    0.494520 *  0.000000 *  0.749160 *   0.87073    1.000000    
     39 O3    c    0.610230 *  0.175520 *  0.115390 *   1.33043    1.000000    
     40 O2    c    0.889770 *  0.824480 *  0.115390 *   0.87073    1.000000    
     41 O2    c    0.389770 *  0.175520 *  0.884610 *   0.87073    1.000000    
     42 O2    c    0.110230 *  0.824480 *  0.884610 *   0.87073    1.000000    
     43 O2    c    0.389770 *  0.824480 *  0.884610 *   0.87073    1.000000    
     44 O2    c    0.110230 *  0.175520 *  0.884610 *   0.87073    1.000000    
     45 O1    c    0.610230 *  0.824480 *  0.115390 *   1.73396    1.000000    
     46 O2    c    0.889770 *  0.175520 *  0.115390 *   0.87073    1.000000    
     47 O3    c    0.500000 *  0.000000 *  0.000000 *   1.33043    1.000000    
     48 O2    c    0.000000 *  0.000000 *  0.000000 *   0.87073    1.000000    
     49 O2    c    0.151750 *  0.500000 *  0.313330 *   0.87073    1.000000    
     50 O2    c    0.348250 *  0.500000 *  0.313330 *   0.87073    1.000000    
     51 O3    c    0.848250 *  0.500000 *  0.686670 *   1.33043    1.000000    
     52 O2    c    0.651750 *  0.500000 *  0.686670 *   0.87073    1.000000    
     53 O2    c    0.250000 *  0.234950 *  0.285720 *   0.87073    1.000000    
     54 O2    c    0.250000 *  0.765050 *  0.285720 *   0.87073    1.000000    
     55 O3    c    0.750000 *  0.234950 *  0.714280 *   1.33043    1.000000    
     56 O2    c    0.750000 *  0.765050 *  0.714280 *   0.87073    1.000000    
     57 O2    c    0.131410 *  0.268650 *  0.127790 *   0.87073    1.000000    
     58 O2    c    0.368590 *  0.731350 *  0.127790 *   0.87073    1.000000    
     59 O3    c    0.868590 *  0.268650 *  0.872210 *   1.33043    1.000000    
     60 O3    c    0.631410 *  0.731350 *  0.872210 *   1.33043    1.000000    
     61 O2    c    0.868590 *  0.731350 *  0.872210 *   0.87073    1.000000    
     62 O2    c    0.631410 *  0.268650 *  0.872210 *   0.87073    1.000000    
     63 O2    c    0.131410 *  0.731350 *  0.127790 *   0.87073    1.000000    
     64 O2    c    0.368590 *  0.268650 *  0.127790 *   0.87073    1.000000    
     65 O3    c    0.653920 *  0.500000 *  0.058200 *   1.33043    1.000000    
     66 O2    c    0.846080 *  0.500000 *  0.058200 *   0.87073    1.000000    
     67 O2    c    0.346080 *  0.500000 *  0.941800 *   0.87073    1.000000    
     68 O2    c    0.153920 *  0.500000 *  0.941800 *   0.87073    1.000000    
     69 O2    c    0.750000 *  0.231060 *  0.027050 *   0.87073    1.000000    
     70 O3    c    0.750000 *  0.768940 *  0.027050 *   1.33043    1.000000    
     71 O2    c    0.250000 *  0.231060 *  0.972950 *   0.87073    1.000000    
     72 O2    c    0.250000 *  0.768940 *  0.972950 *   0.87073    1.000000    
     73 O2    s    0.106570 *  0.174340 *  0.366200 *  -2.87073    1.000000    
     74 O2    s    0.393430 *  0.825660 *  0.366200 *  -2.87073    1.000000    
     75 O3    s    0.893430 *  0.174340 *  0.633800 *  -3.33043    1.000000    
     76 O2    s    0.606570 *  0.825660 *  0.633800 *  -2.87073    1.000000    
     77 O2    s    0.893430 *  0.825660 *  0.633800 *  -2.87073    1.000000    
     78 O2    s    0.606570 *  0.174340 *  0.633800 *  -2.87073    1.000000    
     79 O2    s    0.106570 *  0.825660 *  0.366200 *  -2.87073    1.000000    
     80 O2    s    0.393430 *  0.174340 *  0.366200 *  -2.87073    1.000000    
     81 O2    s    0.000000 *  0.000000 *  0.500000 *  -2.87073    1.000000    
     82 O2    s    0.500000 *  0.000000 *  0.500000 *  -2.87073    1.000000    
     83 O2    s    0.994520 *  0.000000 *  0.250840 *  -2.87073    1.000000    
     84 O3    s    0.505480 *  0.000000 *  0.250840 *  -3.33043    1.000000    
     85 O2    s    0.005480 *  0.000000 *  0.749160 *  -2.87073    1.000000    
     86 O2    s    0.494520 *  0.000000 *  0.749160 *  -2.87073    1.000000    
     87 O3    s    0.610230 *  0.175520 *  0.115390 *  -3.33043    1.000000    
     88 O2    s    0.889770 *  0.824480 *  0.115390 *  -2.87073    1.000000    
     89 O2    s    0.389770 *  0.175520 *  0.884610 *  -2.87073    1.000000    
     90 O2    s    0.110230 *  0.824480 *  0.884610 *  -2.87073    1.000000    
     91 O2    s    0.389770 *  0.824480 *  0.884610 *  -2.87073    1.000000    
     92 O2    s    0.110230 *  0.175520 *  0.884610 *  -2.87073    1.000000    
     93 O1    s    0.610230 *  0.824480 *  0.115390 *  -3.73396    1.000000    
     94 O2    s    0.889770 *  0.175520 *  0.115390 *  -2.87073    1.000000    
     95 O3    s    0.500000 *  0.000000 *  0.000000 *  -3.33043    1.000000    
     96 O2    s    0.000000 *  0.000000 *  0.000000 *  -2.87073    1.000000    
     97 O2    s    0.151750 *  0.500000 *  0.313330 *  -2.87073    1.000000    
     98 O2    s    0.348250 *  0.500000 *  0.313330 *  -2.87073    1.000000    
     99 O3    s    0.848250 *  0.500000 *  0.686670 *  -3.33043    1.000000    
    100 O2    s    0.651750 *  0.500000 *  0.686670 *  -2.87073    1.000000    
    101 O2    s    0.250000 *  0.234950 *  0.285720 *  -2.87073    1.000000    
    102 O2    s    0.250000 *  0.765050 *  0.285720 *  -2.87073    1.000000    
    103 O3    s    0.750000 *  0.234950 *  0.714280 *  -3.33043    1.000000    
    104 O2    s    0.750000 *  0.765050 *  0.714280 *  -2.87073    1.000000    
    105 O2    s    0.131410 *  0.268650 *  0.127790 *  -2.87073    1.000000    
    106 O2    s    0.368590 *  0.731350 *  0.127790 *  -2.87073    1.000000    
    107 O3    s    0.868590 *  0.268650 *  0.872210 *  -3.33043    1.000000    
    108 O3    s    0.631410 *  0.731350 *  0.872210 *  -3.33043    1.000000    
    109 O2    s    0.868590 *  0.731350 *  0.872210 *  -2.87073    1.000000    
    110 O2    s    0.631410 *  0.268650 *  0.872210 *  -2.87073    1.000000    
    111 O2    s    0.131410 *  0.731350 *  0.127790 *  -2.87073    1.000000    
    112 O2    s    0.368590 *  0.268650 *  0.127790 *  -2.87073    1.000000    
    113 O3    s    0.653920 *  0.500000 *  0.058200 *  -3.33043    1.000000    
    114 O2    s    0.846080 *  0.500000 *  0.058200 *  -2.87073    1.000000    
    115 O2    s    0.346080 *  0.500000 *  0.941800 *  -2.87073    1.000000    
    116 O2    s    0.153920 *  0.500000 *  0.941800 *  -2.87073    1.000000    
    117 O2    s    0.750000 *  0.231060 *  0.027050 *  -2.87073    1.000000    
    118 O3    s    0.750000 *  0.768940 *  0.027050 *  -3.33043    1.000000    
    119 O2    s    0.250000 *  0.231060 *  0.972950 *  -2.87073    1.000000    
    120 O2    s    0.250000 *  0.768940 *  0.972950 *  -2.87073    1.000000    
--------------------------------------------------------------------------------



********************************************************************************
*  General input information                                                   *
********************************************************************************

  Species output for all configurations : 

--------------------------------------------------------------------------------
  Species    Type    Atomic    Atomic    Charge       Radii (Angs)     Library
                     Number     Mass       (e)     Cova   Ionic  VDW   Symbol
--------------------------------------------------------------------------------
    Ge       Core       32      72.61   4.000000   1.170  0.000  1.750 Ge       
    Si       Core       14      28.09   4.000000   1.200  0.000  2.100 Si       
    O1       Core        8      16.00   1.733957   0.730  0.000  1.360 O1       
    O2       Core        8      16.00   0.870733   0.730  0.000  1.360 O2       
    O3       Core        8      16.00   1.330431   0.730  0.000  1.360 O3       
    O1       Shell       8       0.00  -3.733957   0.730  0.000  0.000 O1       
    O2       Shell       8       0.00  -2.870733   0.730  0.000  0.000 O2       
    O3       Shell       8       0.00  -3.330431   0.730  0.000  0.000 O3       
--------------------------------------------------------------------------------


  Lattice summation method               =    Ewald          (3-D)
                                         =    Parry          (2-D)
                                         =    Saunders et al (1-D)
  Accuracy factor for lattice sums       =   12.000


  Analytic derivatives to be used

  Time limit = Infinity

  Maximum range for interatomic potentials =    100000.000000 Angstroms

  General interatomic potentials :

--------------------------------------------------------------------------------
Atom  Types   Potential      Parameter       Value         Units   Cutoffs(Ang)
  1     2                                                            Min /  Max 
--------------------------------------------------------------------------------
Si   c O1   s Buckingham    Buckingham A     1315.2478    eV        0.000 16.000
                            Buckingham rho  0.31775900    Ang       
                            Buckingham C     10.141118    eV*Ang^6  
--------------------------------------------------------------------------------
Si   c O2   s Buckingham    Buckingham A     1315.2478    eV        0.000 16.000
                            Buckingham rho  0.31775900    Ang       
                            Buckingham C     10.141118    eV*Ang^6  
--------------------------------------------------------------------------------
Si   c O3   s Buckingham    Buckingham A     1315.2478    eV        0.000 16.000
                            Buckingham rho  0.31775900    Ang       
                            Buckingham C     10.141118    eV*Ang^6  
--------------------------------------------------------------------------------
Ge   c O1   s Buckingham    Buckingham A     1497.3996    eV        0.000 16.000
                            Buckingham rho  0.32564600    Ang       
                            Buckingham C     16.808599    eV*Ang^6  
--------------------------------------------------------------------------------
Ge   c O2   s Buckingham    Buckingham A     1497.3996    eV        0.000 16.000
                            Buckingham rho  0.32564600    Ang       
                            Buckingham C     16.808599    eV*Ang^6  
--------------------------------------------------------------------------------
Ge   c O3   s Buckingham    Buckingham A     1497.3996    eV        0.000 16.000
                            Buckingham rho  0.32564600    Ang       
                            Buckingham C     16.808599    eV*Ang^6  
--------------------------------------------------------------------------------
O1   s O1   s Buckingham    Buckingham A     22764.000    eV        0.000 16.000
                            Buckingham rho  0.14900000    Ang       
                            Buckingham C     10.937044    eV*Ang^6  
--------------------------------------------------------------------------------
O1   s O2   s Buckingham    Buckingham A     22764.000    eV        0.000 16.000
                            Buckingham rho  0.14900000    Ang       
                            Buckingham C     10.937044    eV*Ang^6  
--------------------------------------------------------------------------------
O1   s O3   s Buckingham    Buckingham A     22764.000    eV        0.000 16.000
                            Buckingham rho  0.14900000    Ang       
                            Buckingham C     10.937044    eV*Ang^6  
--------------------------------------------------------------------------------
O2   s O2   s Buckingham    Buckingham A     22764.000    eV        0.000 16.000
                            Buckingham rho  0.14900000    Ang       
                            Buckingham C     10.937044    eV*Ang^6  
--------------------------------------------------------------------------------
O2   s O3   s Buckingham    Buckingham A     22764.000    eV        0.000 16.000
                            Buckingham rho  0.14900000    Ang       
                            Buckingham C     10.937044    eV*Ang^6  
--------------------------------------------------------------------------------
O3   s O3   s Buckingham    Buckingham A     22764.000    eV        0.000 16.000
                            Buckingham rho  0.14900000    Ang       
                            Buckingham C     10.937044    eV*Ang^6  
--------------------------------------------------------------------------------
O1   c O1   s Spring (c-s)  Spring k 2       180.31577    eV*Ang^-2 0.000  0.800
                            Spring k 4       0.0000000    eV*Ang^-4 
--------------------------------------------------------------------------------
O2   c O2   s Spring (c-s)  Spring k 2       75.969800    eV*Ang^-2 0.000  0.800
                            Spring k 4       0.0000000    eV*Ang^-4 
--------------------------------------------------------------------------------
O3   c O3   s Spring (c-s)  Spring k 2       128.14270    eV*Ang^-2 0.000  0.800
                            Spring k 4       0.0000000    eV*Ang^-4 
--------------------------------------------------------------------------------

  General Three-body potentials :

--------------------------------------------------------------------------------
  Atoms       Potential      Parameter       Value         Units   Cutoffs(Ang)
  1 / 2 / 3                                                          Min /  Max 
--------------------------------------------------------------------------------
Si    core    Harmonic      Three-body cnst  1.2614000    eV*rad^-2 0.000  1.900
O1    shel                  Three-body angl  109.47000    degrees   0.000  1.900
O1    shel                  Three-body k4    0.0000000    eV*rad^-4 0.000  3.500
                            Three-body k3    0.0000000    eV*rad^-3 
--------------------------------------------------------------------------------
Si    core    Harmonic      Three-body cnst  1.2614000    eV*rad^-2 0.000  1.900
O1    shel                  Three-body angl  109.47000    degrees   0.000  1.900
õ(1   shel                  Three-body k4    0.0000000    eV*rad^-4 0.000  3.500
                            Three-body k3    0.0000000    eV*rad^-3 
--------------------------------------------------------------------------------
Si    core    Harmonic      Three-body cnst  1.2614000    eV*rad^-2 0.000  1.900
õ(1   shel                  Three-body angl  109.47000    degrees   0.000  1.900
õ(1   shel                  Three-body k4    0.0000000    eV*rad^-4 0.000  3.500
                            Three-body k3    0.0000000    eV*rad^-3 
--------------------------------------------------------------------------------
Si    core    Harmonic      Three-body cnst  1.2614000    eV*rad^-2 0.000  1.900
O1    shel                  Three-body angl  109.47000    degrees   0.000  1.900
O2    shel                  Three-body k4    0.0000000    eV*rad^-4 0.000  3.500
                            Three-body k3    0.0000000    eV*rad^-3 
--------------------------------------------------------------------------------
Si    core    Harmonic      Three-body cnst  1.2614000    eV*rad^-2 0.000  1.900
O1    shel                  Three-body angl  109.47000    degrees   0.000  1.900
õ(2   shel                  Three-body k4    0.0000000    eV*rad^-4 0.000  3.500
                            Three-body k3    0.0000000    eV*rad^-3 
--------------------------------------------------------------------------------
Si    core    Harmonic      Three-body cnst  1.2614000    eV*rad^-2 0.000  1.900
O2    shel                  Three-body angl  109.47000    degrees   0.000  1.900
õ(1   shel                  Three-body k4    0.0000000    eV*rad^-4 0.000  3.500
                            Three-body k3    0.0000000    eV*rad^-3 
--------------------------------------------------------------------------------
Si    core    Harmonic      Three-body cnst  1.2614000    eV*rad^-2 0.000  1.900
õ(1   shel                  Three-body angl  109.47000    degrees   0.000  1.900
õ(2   shel                  Three-body k4    0.0000000    eV*rad^-4 0.000  3.500
                            Three-body k3    0.0000000    eV*rad^-3 
--------------------------------------------------------------------------------
Si    core    Harmonic      Three-body cnst  1.2614000    eV*rad^-2 0.000  1.900
O2    shel                  Three-body angl  109.47000    degrees   0.000  1.900
O2    shel                  Three-body k4    0.0000000    eV*rad^-4 0.000  3.500
                            Three-body k3    0.0000000    eV*rad^-3 
--------------------------------------------------------------------------------
Si    core    Harmonic      Three-body cnst  1.2614000    eV*rad^-2 0.000  1.900
O2    shel                  Three-body angl  109.47000    degrees   0.000  1.900
õ(2   shel                  Three-body k4    0.0000000    eV*rad^-4 0.000  3.500
                            Three-body k3    0.0000000    eV*rad^-3 
--------------------------------------------------------------------------------
Si    core    Harmonic      Three-body cnst  1.2614000    eV*rad^-2 0.000  1.900
õ(2   shel                  Three-body angl  109.47000    degrees   0.000  1.900
õ(2   shel                  Three-body k4    0.0000000    eV*rad^-4 0.000  3.500
                            Three-body k3    0.0000000    eV*rad^-3 
--------------------------------------------------------------------------------

********************************************************************************
*  Output for configuration   1 : c00172.vasp                                  *
********************************************************************************


  Components of energy : 

--------------------------------------------------------------------------------
  Interatomic potentials     =         760.34908818 eV    
  Three-body potentials      =           0.01425103 eV    
  Monopole - monopole (real) =       -2676.00317478 eV    
  Monopole - monopole (recip)=       -1115.35404472 eV    
  Monopole - monopole (total)=       -3791.35721950 eV    
--------------------------------------------------------------------------------
  Total lattice energy       =       -3030.99388029 eV    
--------------------------------------------------------------------------------
  Total lattice energy       =         -292444.5765 kJ/(mole unit cells)
--------------------------------------------------------------------------------


  Number of variables =      363

  Maximum number of calculations  =          1000
  Maximum Hessian update interval =            10
  Maximum step size               =   0.100000000
  Maximum parameter tolerance     =   0.000010000
  Maximum function  tolerance     =   0.000010000
  Maximum gradient  tolerance     =   0.001000000
  Maximum gradient  component     =   0.010000000

  Symmetry not applied to optimisation

  Cell parameters to be optimised using strains

  Newton-Raphson optimiser to be used

  BFGS hessian update to be used

  Lower half triangular hessian to be used

  Minimiser to switch to RFO
  When gradient norm is less than     0.050000

  Dumpfile to be written after every cycle

  Start of bulk optimisation :

  Cycle:      0 Energy:     -3030.993880  Gnorm:      4.409603  CPU:    0.120
  ** Hessian calculated **
  Cycle:      1 Energy:     -3061.756257  Gnorm:      0.967162  CPU:    0.258
  ** Hessian calculated **
  Cycle:      2 Energy:     -3065.481192  Gnorm:      0.544712  CPU:    0.507
  ** Hessian calculated **
  Cycle:      3 Energy:     -3066.290892  Gnorm:      0.302969  CPU:    0.722
  Cycle:      4 Energy:     -3066.548181  Gnorm:      0.191993  CPU:    0.831
  Cycle:      5 Energy:     -3066.748016  Gnorm:      0.148702  CPU:    0.960
  Cycle:      6 Energy:     -3066.939530  Gnorm:      0.119380  CPU:    1.090
  Cycle:      7 Energy:     -3067.097509  Gnorm:      0.102829  CPU:    1.219
  Cycle:      8 Energy:     -3067.169202  Gnorm:      0.075902  CPU:    1.328
  Cycle:      9 Energy:     -3067.210541  Gnorm:      0.060346  CPU:    1.437
  Cycle:     10 Energy:     -3067.234705  Gnorm:      0.047615  CPU:    1.566
  ** Hessian has required structure
  Cycle:     11 Energy:     -3067.251307  Gnorm:      0.094530  CPU:    1.727
  ** Hessian has required structure
  Cycle:     12 Energy:     -3067.269769  Gnorm:      0.075875  CPU:    1.908
  ** Hessian has wrong structure
  ** Imaginary eigenvectors =   3
  ** Hessian has wrong structure
  ** Imaginary eigenvectors =   4
  Cycle:     13 Energy:     -3067.297411  Gnorm:      0.076233  CPU:    2.502
  ** Hessian has wrong structure
  ** Imaginary eigenvectors =   4
  Cycle:     14 Energy:     -3067.344813  Gnorm:      0.078111  CPU:    2.839
  ** Hessian has wrong structure
  ** Imaginary eigenvectors =   2
  ** Hessian has wrong structure
  ** Imaginary eigenvectors =   1
  Cycle:     15 Energy:     -3067.409735  Gnorm:      0.081489  CPU:    3.450
  ** Hessian has wrong structure
  ** Imaginary eigenvectors =   1
  ** Hessian has wrong structure
  ** Imaginary eigenvectors =   1
  Cycle:     16 Energy:     -3067.437382  Gnorm:      0.085241  CPU:    4.057
  ** Hessian has wrong structure
  ** Imaginary eigenvectors =   1
  ** Hessian has required structure
  Cycle:     17 Energy:     -3067.592825  Gnorm:      0.074550  CPU:    4.626
  ** Hessian has required structure
  Cycle:     18 Energy:     -3067.743980  Gnorm:      0.059260  CPU:    4.816
  ** Hessian has required structure
  Cycle:     19 Energy:     -3067.877610  Gnorm:      0.032930  CPU:    4.987
  ** Hessian has required structure
  Cycle:     20 Energy:     -3067.925793  Gnorm:      0.046069  CPU:    5.158
  ** Hessian has required structure
  Cycle:     21 Energy:     -3067.978201  Gnorm:      0.032284  CPU:    5.328
  ** Hessian has required structure
  Cycle:     22 Energy:     -3068.009388  Gnorm:      0.029659  CPU:    5.516
  ** Hessian has required structure
  Cycle:     23 Energy:     -3068.035691  Gnorm:      0.025759  CPU:    5.686
  ** Hessian has required structure
  Cycle:     24 Energy:     -3068.063620  Gnorm:      0.031295  CPU:    5.876
  ** Hessian has required structure
  Cycle:     25 Energy:     -3068.084130  Gnorm:      0.027207  CPU:    6.044
  ** Hessian has required structure
  Cycle:     26 Energy:     -3068.100550  Gnorm:      0.019527  CPU:    6.215
  ** Hessian has required structure
  Cycle:     27 Energy:     -3068.131613  Gnorm:      0.017984  CPU:    6.499
  ** Hessian has required structure
  Cycle:     28 Energy:     -3068.139413  Gnorm:      0.016717  CPU:    6.652
  ** Hessian has required structure
  Cycle:     29 Energy:     -3068.150670  Gnorm:      0.009241  CPU:    6.824
  ** Hessian has required structure
  Cycle:     30 Energy:     -3068.152788  Gnorm:      0.009651  CPU:    6.997
  ** Hessian has required structure
  Cycle:     31 Energy:     -3068.154709  Gnorm:      0.003690  CPU:    7.181
  ** Hessian has required structure
  Cycle:     32 Energy:     -3068.155333  Gnorm:      0.003132  CPU:    7.384
  ** Hessian has required structure
  Cycle:     33 Energy:     -3068.155670  Gnorm:      0.002644  CPU:    7.586
  ** Hessian has required structure
  Cycle:     34 Energy:     -3068.155896  Gnorm:      0.001868  CPU:    7.790
  ** Hessian has required structure
  Cycle:     35 Energy:     -3068.156021  Gnorm:      0.001406  CPU:    7.973
  ** Hessian has required structure
  Cycle:     36 Energy:     -3068.156111  Gnorm:      0.001165  CPU:    8.157
  ** Hessian has required structure
  Cycle:     37 Energy:     -3068.156161  Gnorm:      0.000705  CPU:    8.433
  ** Hessian has required structure
  Cycle:     38 Energy:     -3068.156184  Gnorm:      0.000361  CPU:    8.635
  ** Hessian has required structure
  Cycle:     39 Energy:     -3068.156189  Gnorm:      0.000218  CPU:    8.816
  ** Hessian has required structure
  Cycle:     40 Energy:     -3068.156190  Gnorm:      0.000153  CPU:    8.978
  ** Hessian has required structure
  Cycle:     41 Energy:     -3068.156192  Gnorm:      0.000107  CPU:    9.140
  ** Hessian has required structure


  **** Optimisation achieved ****


  Final energy =   -3068.15619202 eV      
  Final Gnorm  =       0.00007529

  Components of energy : 

--------------------------------------------------------------------------------
  Interatomic potentials     =         816.96654389 eV    
  Three-body potentials      =           0.24181646 eV    
  Monopole - monopole (real) =       -2202.12747272 eV    
  Monopole - monopole (recip)=       -1683.23707965 eV    
  Monopole - monopole (total)=       -3885.36455236 eV    
--------------------------------------------------------------------------------
  Total lattice energy       =       -3068.15619202 eV    
--------------------------------------------------------------------------------
  Total lattice energy       =         -296030.1715 kJ/(mole unit cells)
--------------------------------------------------------------------------------

  Final fractional coordinates of atoms :

--------------------------------------------------------------------------------
   No.  Atomic        x           y          z          Radius
        Label       (Frac)      (Frac)     (Frac)       (Angs) 
--------------------------------------------------------------------------------
     1  Ge    c     0.556730    0.000000    0.122130    0.000000
     2  Ge    c     0.853122    0.363716    0.698285    0.000000
     3  Ge    c     0.646328    0.673781    0.022614    0.000000
     4  Si    c     0.048341    0.025010    0.359779    0.000000
     5  Si    c     0.450875    0.027609    0.370956    0.000000
     6  Si    c     0.954150    0.055722    0.619250    0.000000
     7  Si    c     0.548269    0.031732    0.628255    0.000000
     8  Si    c     0.943052    0.025626    0.108224    0.000000
     9  Si    c     0.445062    0.044152    0.880808    0.000000
    10  Si    c     0.056854    0.038136    0.871185    0.000000
    11  Si    c     0.153520    0.337301    0.274345    0.000000
    12  Si    c     0.346791    0.721381    0.272161    0.000000
    13  Si    c     0.650653    0.722148    0.716452    0.000000
    14  Si    c     0.830611    0.772526    0.719174    0.000000
    15  Si    c     0.668534    0.316267    0.697940    0.000000
    16  Si    c     0.165226    0.744252    0.272322    0.000000
    17  Si    c     0.334379    0.313886    0.272016    0.000000
    18  Si    c     0.673036    0.275111    0.999702    0.000000
    19  Si    c     0.829530    0.736264    0.023297    0.000000
    20  Si    c     0.332947    0.322968    0.969903    0.000000
    21  Si    c     0.166985    0.752421    0.970717    0.000000
    22  Si    c     0.349010    0.723546    0.971336    0.000000
    23  Si    c     0.151536    0.351679    0.972551    0.000000
    24  Si    c     0.855083    0.344798    0.003816    0.000000
    25  O2    c     0.093599    0.214700    0.358210    0.000000
    26  O2    c     0.407383    0.837874    0.353516    0.000000
    27  O3    c     0.921308    0.252026    0.608415    0.000000
    28  O2    c     0.591054    0.843038    0.633086    0.000000
    29  O2    c     0.877256    0.932193    0.647236    0.000000
    30  O2    c     0.613483    0.189287    0.612163    0.000000
    31  O2    c     0.113058    0.871356    0.357788    0.000000
    32  O2    c     0.387180    0.181977    0.355787    0.000000
    33  O2    c     0.996778    0.001826    0.488276    0.000000
    34  O2    c     0.486918    0.035017    0.512478    0.000000
    35  O2    c     0.990535    0.007261    0.239648    0.000000
    36  O3    c     0.522336    0.052797    0.271794    0.000000
    37  O2    c     0.017504    0.029745    0.732443    0.000000
    38  O2    c     0.498469    0.067128    0.755871    0.000000
    39  O3    c     0.645107    0.109534    0.084804    0.000000
    40  O2    c     0.873751    0.878333    0.111314    0.000000
    41  O2    c     0.375944    0.188612    0.877460    0.000000
    42  O2    c     0.125586    0.894145    0.877839    0.000000
    43  O2    c     0.407567    0.845660    0.885202    0.000000
    44  O2    c     0.092846    0.234772    0.888081    0.000000
    45  O1    c     0.578764    0.781509    0.113384    0.000000
    46  O2    c     0.907703    0.221788    0.097421    0.000000
    47  O3    c     0.493367    0.082792    0.008002    0.000000
    48  O2    c     0.996391    0.985623    0.984718    0.000000
    49  O2    c     0.138531    0.542041    0.303064    0.000000
    50  O2    c     0.361482    0.514570    0.300510    0.000000
    51  O3    c     0.869066    0.588737    0.683643    0.000000
    52  O2    c     0.635286    0.515330    0.688913    0.000000
    53  O2    c     0.242880    0.287754    0.310869    0.000000
    54  O2    c     0.257216    0.769369    0.307146    0.000000
    55  O3    c     0.757925    0.316965    0.649701    0.000000
    56  O2    c     0.739865    0.773758    0.673110    0.000000
    57  O2    c     0.138117    0.301196    0.123433    0.000000
    58  O2    c     0.365134    0.767135    0.121418    0.000000
    59  O3    c     0.871661    0.297264    0.856558    0.000000
    60  O3    c     0.636357    0.757639    0.865996    0.000000
    61  O2    c     0.829816    0.800739    0.873179    0.000000
    62  O2    c     0.666736    0.242287    0.845945    0.000000
    63  O2    c     0.153598    0.795089    0.121237    0.000000
    64  O2    c     0.344698    0.271343    0.120987    0.000000
    65  O3    c     0.625141    0.450646    0.032135    0.000000
    66  O2    c     0.875331    0.549486    0.032432    0.000000
    67  O2    c     0.367819    0.520505    0.943630    0.000000
    68  O2    c     0.132658    0.556686    0.943733    0.000000
    69  O2    c     0.763315    0.316056    0.034347    0.000000
    70  O3    c     0.741459    0.715477    0.074263    0.000000
    71  O2    c     0.241200    0.314486    0.934279    0.000000
    72  O2    c     0.259126    0.763303    0.937043    0.000000
    73  O2    s     0.095434    0.208225    0.349151    0.000000
    74  O2    s     0.405163    0.844799    0.346185    0.000000
    75  O3    s     0.919101    0.241530    0.616634    0.000000
    76  O2    s     0.592866    0.850248    0.641430    0.000000
    77  O2    s     0.880211    0.927586    0.652349    0.000000
    78  O2    s     0.612571    0.186345    0.622935    0.000000
    79  O2    s     0.112009    0.873529    0.348366    0.000000
    80  O2    s     0.388039    0.180272    0.347833    0.000000
    81  O2    s     0.997885    0.010622    0.488316    0.000000
    82  O2    s     0.489854    0.033744    0.509427    0.000000
    83  O2    s     0.991640    0.011475    0.238020    0.000000
    84  O3    s     0.517968    0.045720    0.269147    0.000000
    85  O2    s     0.015060    0.033619    0.736166    0.000000
    86  O2    s     0.497776    0.060332    0.756311    0.000000
    87  O3    s     0.641219    0.118404    0.078692    0.000000
    88  O2    s     0.876417    0.878776    0.101315    0.000000
    89  O2    s     0.378370    0.188478    0.888215    0.000000
    90  O2    s     0.122866    0.893630    0.887697    0.000000
    91  O2    s     0.404964    0.852616    0.894352    0.000000
    92  O2    s     0.095566    0.226906    0.895790    0.000000
    93  O1    s     0.582208    0.790160    0.107143    0.000000
    94  O2    s     0.905830    0.214119    0.088461    0.000000
    95  O3    s     0.493641    0.071798    0.004232    0.000000
    96  O2    s     0.997302    0.995921    0.985589    0.000000
    97  O2    s     0.143042    0.541504    0.296655    0.000000
    98  O2    s     0.356978    0.515619    0.294394    0.000000
    99  O3    s     0.863930    0.588742    0.688339    0.000000
   100  O2    s     0.640407    0.516394    0.692768    0.000000
   101  O2    s     0.243163    0.295873    0.302814    0.000000
   102  O2    s     0.257013    0.761518    0.299698    0.000000
   103  O3    s     0.756607    0.320635    0.658381    0.000000
   104  O2    s     0.740111    0.768205    0.682478    0.000000
   105  O2    s     0.141184    0.310340    0.123387    0.000000
   106  O2    s     0.361601    0.757954    0.121555    0.000000
   107  O3    s     0.868568    0.307140    0.858656    0.000000
   108  O3    s     0.638547    0.747561    0.863278    0.000000
   109  O2    s     0.829854    0.790942    0.872594    0.000000
   110  O2    s     0.667568    0.253318    0.846434    0.000000
   111  O2    s     0.156265    0.785210    0.121305    0.000000
   112  O2    s     0.342341    0.281304    0.121117    0.000000
   113  O3    s     0.631345    0.452008    0.028368    0.000000
   114  O2    s     0.868572    0.546987    0.028477    0.000000
   115  O2    s     0.362090    0.521670    0.949447    0.000000
   116  O2    s     0.138334    0.555420    0.949714    0.000000
   117  O2    s     0.763595    0.314913    0.027110    0.000000
   118  O3    s     0.742886    0.714271    0.064950    0.000000
   119  O2    s     0.241429    0.319598    0.942464    0.000000
   120  O2    s     0.258958    0.757580    0.944635    0.000000
--------------------------------------------------------------------------------

  Final Cartesian lattice vectors (Angstroms) :

       16.992200   -0.143597    0.028731
       -0.061524    7.568160    0.093579
        0.018768    0.129980   10.331590


  Final cell parameters and derivatives :

--------------------------------------------------------------------------------
       a           16.992831 Angstrom     dE/de1(xx)    -0.000361 eV/strain
       b            7.568989 Angstrom     dE/de2(yy)    -0.001469 eV/strain
       c           10.332425 Angstrom     dE/de3(zz)     0.001691 eV/strain
       alpha       88.571690 Degrees      dE/de4(yz)    -0.000377 eV/strain
       beta        89.805154 Degrees      dE/de5(xz)     0.000265 eV/strain
       gamma       90.948677 Degrees      dE/de6(xy)     0.000113 eV/strain
--------------------------------------------------------------------------------

  Primitive cell volume =          1328.336751 Angs**3

  Density of cell =      1.969821 g/cm**3

  Non-primitive cell volume =          1328.336751 Angs**3


  Final internal derivatives :

--------------------------------------------------------------------------------
   No.  Atomic          a             b             c           Radius
        Label          (eV)          (eV)          (eV)        (eV/Angs)
--------------------------------------------------------------------------------
      1 Ge    c       0.000000      0.000000      0.000000      0.000000
      2 Ge    c      -0.003203      0.000590      0.002054      0.000000
      3 Ge    c      -0.002477      0.000280      0.000820      0.000000
      4 Si    c       0.000526      0.000165     -0.000655      0.000000
      5 Si    c      -0.004675     -0.000422     -0.001287      0.000000
      6 Si    c      -0.000139      0.000091     -0.000692      0.000000
      7 Si    c       0.008409     -0.000968     -0.000653      0.000000
      8 Si    c       0.000700      0.000040     -0.000331      0.000000
      9 Si    c      -0.006621     -0.000975      0.001731      0.000000
     10 Si    c       0.000583      0.000138     -0.000268      0.000000
     11 Si    c       0.000117      0.000001      0.000051      0.000000
     12 Si    c       0.000226     -0.000184      0.000210      0.000000
     13 Si    c      -0.000248     -0.000418     -0.001149      0.000000
     14 Si    c       0.000450     -0.001020     -0.001913      0.000000
     15 Si    c       0.004913      0.000135      0.001644      0.000000
     16 Si    c      -0.000025      0.000000      0.000060      0.000000
     17 Si    c       0.000292      0.000276      0.000053      0.000000
     18 Si    c       0.001569      0.001267     -0.000512      0.000000
     19 Si    c       0.001264      0.000588      0.000469      0.000000
     20 Si    c       0.001424      0.000225      0.000134      0.000000
     21 Si    c      -0.000556     -0.000189     -0.000115      0.000000
     22 Si    c       0.000550     -0.000202     -0.000307      0.000000
     23 Si    c      -0.000183      0.000237     -0.000279      0.000000
     24 Si    c       0.000128      0.000848     -0.002209      0.000000
     25 O2    c       0.000304      0.000286     -0.000129      0.000000
     26 O2    c       0.000004     -0.000291     -0.000079      0.000000
     27 O3    c       0.000578     -0.000283      0.000158      0.000000
     28 O2    c      -0.000555     -0.000083     -0.000144      0.000000
     29 O2    c      -0.000736     -0.000216      0.000809      0.000000
     30 O2    c      -0.000088      0.000647     -0.000448      0.000000
     31 O2    c       0.000627     -0.000291     -0.000110      0.000000
     32 O2    c      -0.001255      0.000665      0.000334      0.000000
     33 O2    c      -0.001230      0.000020      0.001630      0.000000
     34 O2    c      -0.004276      0.000240     -0.000270      0.000000
     35 O2    c       0.000810     -0.000141      0.001200      0.000000
     36 O3    c       0.008319      0.001225     -0.001607      0.000000
     37 O2    c       0.000352     -0.000014      0.000210      0.000000
     38 O2    c      -0.001780      0.001749     -0.002133      0.000000
     39 O3    c       0.000610      0.000153      0.000837      0.000000
     40 O2    c      -0.000325     -0.000342     -0.000027      0.000000
     41 O2    c      -0.001089      0.000639     -0.000125      0.000000
     42 O2    c       0.000632     -0.000159      0.000081      0.000000
     43 O2    c      -0.000729     -0.002020      0.000208      0.000000
     44 O2    c      -0.000122      0.000271      0.000110      0.000000
     45 O1    c      -0.001685     -0.000742      0.000262      0.000000
     46 O2    c      -0.000178      0.000364      0.000402      0.000000
     47 O3    c       0.001159      0.004733      0.000015      0.000000
     48 O2    c      -0.000606     -0.000407      0.000745      0.000000
     49 O2    c      -0.000194     -0.000166      0.000050      0.000000
     50 O2    c       0.000240      0.000200     -0.000001      0.000000
     51 O3    c      -0.003326      0.000457      0.002723      0.000000
     52 O2    c       0.001105     -0.000282      0.000534      0.000000
     53 O2    c      -0.000829      0.000059      0.000134      0.000000
     54 O2    c       0.000331     -0.000022      0.000057      0.000000
     55 O3    c      -0.003368      0.001425      0.002969      0.000000
     56 O2    c       0.000829     -0.000262      0.000800      0.000000
     57 O2    c      -0.000337     -0.000077      0.000359      0.000000
     58 O2    c      -0.000001     -0.000069     -0.000153      0.000000
     59 O3    c      -0.006601      0.001554     -0.000003      0.000000
     60 O3    c      -0.000622     -0.000179     -0.000958      0.000000
     61 O2    c       0.000590      0.000224     -0.000403      0.000000
     62 O2    c       0.002650      0.001679     -0.001793      0.000000
     63 O2    c      -0.000164      0.000073     -0.000117      0.000000
     64 O2    c       0.000435     -0.000050     -0.000625      0.000000
     65 O3    c       0.001620     -0.002119     -0.001135      0.000000
     66 O2    c      -0.000270     -0.002468     -0.000749      0.000000
     67 O2    c       0.000272      0.000048     -0.000019      0.000000
     68 O2    c      -0.000187     -0.000146      0.000087      0.000000
     69 O2    c      -0.001867     -0.001024     -0.001606      0.000000
     70 O3    c       0.001112      0.000315      0.000128      0.000000
     71 O2    c      -0.000295     -0.000089     -0.000140      0.000000
     72 O2    c       0.001274     -0.000083     -0.000112      0.000000
     73 O2    s       0.000341      0.000133      0.000011      0.000000
     74 O2    s      -0.001924     -0.000643      0.000165      0.000000
     75 O3    s      -0.001058      0.000133      0.000550      0.000000
     76 O2    s       0.003834     -0.001157      0.000335      0.000000
     77 O2    s       0.000518     -0.000589     -0.000043      0.000000
     78 O2    s       0.006240      0.000729      0.001163      0.000000
     79 O2    s       0.000041      0.000002      0.000094      0.000000
     80 O2    s      -0.002473      0.000067      0.000048      0.000000
     81 O2    s      -0.000052     -0.000090     -0.000125      0.000000
     82 O2    s      -0.000502     -0.000381     -0.000334      0.000000
     83 O2    s      -0.000748     -0.000091     -0.000246      0.000000
     84 O3    s      -0.001557     -0.000405      0.000166      0.000000
     85 O2    s      -0.000885     -0.000020     -0.000536      0.000000
     86 O2    s       0.000777      0.000132     -0.001452      0.000000
     87 O3    s       0.003328      0.000431     -0.002583      0.000000
     88 O2    s      -0.000758      0.000008     -0.000419      0.000000
     89 O2    s      -0.004348      0.000533     -0.000493      0.000000
     90 O2    s       0.000304      0.000076     -0.000050      0.000000
     91 O2    s      -0.004090     -0.001027      0.000139      0.000000
     92 O2    s       0.000341     -0.000007     -0.000176      0.000000
     93 O1    s       0.002682     -0.000375     -0.000052      0.000000
     94 O2    s      -0.001453      0.000383     -0.001858      0.000000
     95 O3    s       0.002699     -0.000910      0.002743      0.000000
     96 O2    s      -0.000341      0.000096     -0.000433      0.000000
     97 O2    s      -0.000041     -0.000103      0.000116      0.000000
     98 O2    s      -0.000131      0.000127      0.000041      0.000000
     99 O3    s      -0.001006     -0.000133      0.000699      0.000000
    100 O2    s       0.002906     -0.000677      0.001999      0.000000
    101 O2    s      -0.000283     -0.000051      0.000211      0.000000
    102 O2    s      -0.000006      0.000063      0.000243      0.000000
    103 O3    s      -0.000933      0.000425      0.000836      0.000000
    104 O2    s       0.000721     -0.001249      0.001164      0.000000
    105 O2    s       0.000085      0.000036      0.000072      0.000000
    106 O2    s       0.000152      0.000262      0.000027      0.000000
    107 O3    s       0.000520      0.000551      0.001610      0.000000
    108 O3    s       0.002409     -0.000383     -0.000026      0.000000
    109 O2    s      -0.001312     -0.001427     -0.001098      0.000000
    110 O2    s       0.000307      0.000824      0.001108      0.000000
    111 O2    s      -0.000345      0.000112      0.000031      0.000000
    112 O2    s       0.000210     -0.000144      0.000493      0.000000
    113 O3    s       0.004089      0.000505     -0.001645      0.000000
    114 O2    s      -0.003658     -0.000147     -0.001628      0.000000
    115 O2    s      -0.000433      0.000327      0.000296      0.000000
    116 O2    s      -0.000104      0.000030     -0.000093      0.000000
    117 O2    s       0.000130      0.001672     -0.001345      0.000000
    118 O3    s      -0.000425     -0.000821     -0.001226      0.000000
    119 O2    s      -0.000146      0.000100     -0.000275      0.000000
    120 O2    s      -0.000200     -0.000027     -0.000145      0.000000
--------------------------------------------------------------------------------
  Maximum abs         0.008409      0.004733      0.002969      0.000000
--------------------------------------------------------------------------------


  Born effective charge tensors : 

-------------------------------------------------------------------------------
  Atom             x           y             z
-------------------------------------------------------------------------------
    1 Ge    x       4.2153     -0.4614     -0.4233
            y       0.2283      3.9278     -0.0745
            z      -0.5250      0.1335      3.8864
-------------------------------------------------------------------------------
    2 Ge    x       3.9601     -0.3013     -0.0266
            y      -0.3968      4.2278      0.2908
            z      -0.1157      0.0713      3.4390
-------------------------------------------------------------------------------
    3 Ge    x       4.1480     -0.3521     -0.1941
            y      -0.3364      4.1955      0.3131
            z      -0.3113      0.0609      3.3709
-------------------------------------------------------------------------------
    4 Si    x       3.4348      0.1074     -0.1469
            y      -0.1264      3.2299      0.0419
            z      -0.5065     -0.0338      3.7885
-------------------------------------------------------------------------------
    5 Si    x       3.6757      0.1084      0.2229
            y      -0.1154      3.2920      0.0392
            z       0.1822      0.0279      4.0012
-------------------------------------------------------------------------------
    6 Si    x       3.5579     -0.4159     -0.2403
            y       0.0442      3.4470     -0.0751
            z      -0.4044      0.2319      3.9089
-------------------------------------------------------------------------------
    7 Si    x       3.4755     -0.1345      0.0893
            y       0.1012      3.1987     -0.0097
            z       0.6031      0.0796      3.6833
-------------------------------------------------------------------------------
    8 Si    x       3.4472     -0.1499      0.1916
            y       0.1796      3.2139     -0.0263
            z       0.5212     -0.0295      3.1009
-------------------------------------------------------------------------------
    9 Si    x       3.6092      0.1972     -0.0355
            y      -0.1377      3.2990      0.0481
            z      -0.4857      0.0169      3.3081
-------------------------------------------------------------------------------
   10 Si    x       3.4330      0.1462      0.2481
            y      -0.1757      3.2525      0.0287
            z       0.4673      0.0178      3.1507
-------------------------------------------------------------------------------
   11 Si    x       3.1798      0.2134     -0.0754
            y       0.2903      3.4386     -0.1620
            z      -0.0969     -0.0725      2.8108
-------------------------------------------------------------------------------
   12 Si    x       3.1934      0.1964      0.0641
            y       0.2837      3.4216      0.1671
            z       0.1148      0.0912      2.8291
-------------------------------------------------------------------------------
   13 Si    x       3.3055     -0.2660      0.0182
            y      -0.2967      3.5285     -0.1362
            z       0.0835      0.0004      3.0984
-------------------------------------------------------------------------------
   14 Si    x       3.3002      0.2740     -0.0803
            y      -0.0315      3.7476     -0.0261
            z      -0.1776     -0.0240      2.8702
-------------------------------------------------------------------------------
   15 Si    x       3.6127      0.3279      0.0310
            y       0.1524      3.5038      0.2082
            z       0.0433      0.0291      2.8236
-------------------------------------------------------------------------------
   16 Si    x       3.2014     -0.2795     -0.1330
            y      -0.2006      3.4638      0.1622
            z      -0.1027      0.0693      2.8075
-------------------------------------------------------------------------------
   17 Si    x       3.1817     -0.2649      0.1244
            y      -0.1914      3.4643     -0.1463
            z       0.1488     -0.0807      2.8321
-------------------------------------------------------------------------------
   18 Si    x       3.4040      0.4713     -0.2257
            y      -0.0437      3.9209     -0.2543
            z      -0.1733     -0.1770      2.9456
-------------------------------------------------------------------------------
   19 Si    x       3.5903      0.4181      0.0332
            y       0.0899      3.4993      0.2108
            z       0.0839      0.0644      2.7980
-------------------------------------------------------------------------------
   20 Si    x       3.2084     -0.3039     -0.1812
            y      -0.0944      3.4230      0.1910
            z      -0.1259      0.0788      2.7390
-------------------------------------------------------------------------------
   21 Si    x       3.2125     -0.3254      0.1832
            y      -0.1047      3.4398     -0.1718
            z       0.1061     -0.0725      2.7327
-------------------------------------------------------------------------------
   22 Si    x       3.2401      0.2317     -0.1255
            y       0.2440      3.3724     -0.1441
            z      -0.1467     -0.0449      2.7092
-------------------------------------------------------------------------------
   23 Si    x       3.2456      0.2357      0.1431
            y       0.2569      3.3998      0.1809
            z       0.1712      0.0730      2.7236
-------------------------------------------------------------------------------
   24 Si    x       3.3143     -0.3499      0.1159
            y      -0.2664      3.4608     -0.0988
            z       0.1237      0.0383      3.0056
-------------------------------------------------------------------------------
   25 O2    x      -1.6414     -0.6922      0.3027
            y      -0.6725     -2.0008      0.3072
            z       0.3552      0.3022     -1.3498
-------------------------------------------------------------------------------
   26 O2    x      -1.6385     -0.6643     -0.3702
            y      -0.6411     -2.0005     -0.4021
            z      -0.3875     -0.3993     -1.4016
-------------------------------------------------------------------------------
   27 O3    x      -1.8972      0.8750      0.3588
            y       0.8184     -2.5494     -0.3042
            z       0.4231     -0.3371     -1.5564
-------------------------------------------------------------------------------
   28 O2    x      -1.6863      0.7316     -0.2843
            y       0.6688     -2.0207      0.3066
            z      -0.3623      0.2992     -1.3219
-------------------------------------------------------------------------------
   29 O2    x      -1.8601     -0.6393      0.3575
            y      -0.7196     -1.8578      0.3567
            z       0.3877      0.2949     -1.3468
-------------------------------------------------------------------------------
   30 O2    x      -1.7736     -0.7043     -0.2640
            y      -0.7215     -1.8939     -0.2799
            z      -0.3220     -0.2675     -1.3560
-------------------------------------------------------------------------------
   31 O2    x      -1.7579      0.7070      0.3242
            y       0.7651     -1.9285     -0.3486
            z       0.3696     -0.3183     -1.3544
-------------------------------------------------------------------------------
   32 O2    x      -1.7382      0.7063     -0.3946
            y       0.7473     -1.9492      0.3775
            z      -0.4097      0.3650     -1.3713
-------------------------------------------------------------------------------
   33 O2    x      -1.5759      0.0646      0.7878
            y       0.0288     -1.1067     -0.0713
            z       0.9925     -0.1367     -2.7591
-------------------------------------------------------------------------------
   34 O2    x      -1.6714     -0.0077     -0.8248
            y      -0.0009     -1.0863     -0.0130
            z      -1.0449     -0.0392     -2.6761
-------------------------------------------------------------------------------
   35 O2    x      -1.7125      0.0109     -0.7530
            y      -0.0138     -1.1167     -0.0067
            z      -0.7294      0.0117     -2.2419
-------------------------------------------------------------------------------
   36 O3    x      -2.0817      0.0495      0.8853
            y      -0.0159     -1.2459     -0.0668
            z       0.8974     -0.1406     -2.6490
-------------------------------------------------------------------------------
   37 O2    x      -1.6747      0.0149     -0.7129
            y       0.0058     -1.1091      0.0021
            z      -0.7100     -0.0082     -2.2913
-------------------------------------------------------------------------------
   38 O2    x      -1.7313      0.0088      0.7301
            y       0.0132     -1.1362     -0.0389
            z       0.7188     -0.0510     -2.1871
-------------------------------------------------------------------------------
   39 O3    x      -2.0870     -0.7966      0.5447
            y      -0.7562     -2.2458      0.6411
            z       0.4582      0.5285     -1.5357
-------------------------------------------------------------------------------
   40 O2    x      -1.7469     -0.6982     -0.2989
            y      -0.6557     -1.9049     -0.3402
            z      -0.3218     -0.3192     -1.2589
-------------------------------------------------------------------------------
   41 O2    x      -1.7422      0.6836      0.3384
            y       0.6638     -1.8938     -0.3669
            z       0.3486     -0.3244     -1.2688
-------------------------------------------------------------------------------
   42 O2    x      -1.7469      0.6986     -0.3481
            y       0.6755     -1.9037      0.3649
            z      -0.3320      0.3330     -1.2629
-------------------------------------------------------------------------------
   43 O2    x      -1.6329     -0.6537      0.3257
            y      -0.5634     -2.0074      0.3453
            z       0.3641      0.3297     -1.2443
-------------------------------------------------------------------------------
   44 O2    x      -1.6386     -0.6662     -0.3669
            y      -0.5809     -2.0149     -0.3977
            z      -0.3800     -0.3761     -1.2612
-------------------------------------------------------------------------------
   45 O1    x      -2.0926      0.8899      0.5331
            y       0.6991     -2.6367     -0.4810
            z       0.5433     -0.4813     -1.5695
-------------------------------------------------------------------------------
   46 O2    x      -1.6178      0.6817     -0.3267
            y       0.5487     -2.0238      0.3604
            z      -0.3430      0.3413     -1.2423
-------------------------------------------------------------------------------
   47 O3    x      -2.0939      0.0541     -0.8112
            y       0.0047     -1.3476      0.0200
            z      -0.4941      0.0475     -2.1221
-------------------------------------------------------------------------------
   48 O2    x      -1.7908     -0.0167      0.6068
            y      -0.0082     -1.1974      0.0017
            z       0.3337      0.0080     -1.6938
-------------------------------------------------------------------------------
   49 O2    x      -1.1501     -0.0402      0.0624
            y      -0.0879     -2.5635     -0.0048
            z       0.0699     -0.0168     -1.0684
-------------------------------------------------------------------------------
   50 O2    x      -1.1573     -0.0491     -0.0600
            y      -0.0921     -2.5686     -0.0211
            z      -0.0764     -0.0038     -1.0727
-------------------------------------------------------------------------------
   51 O3    x      -1.3843      0.2035      0.0933
            y       0.3094     -3.1344     -0.1979
            z       0.1299     -0.1370     -1.2141
-------------------------------------------------------------------------------
   52 O2    x      -1.1966      0.0594     -0.0454
            y       0.1259     -2.5803     -0.0659
            z      -0.0602     -0.0618     -1.0592
-------------------------------------------------------------------------------
   53 O2    x      -2.3758      0.0826      0.0070
            y       0.0364     -1.2529      0.0658
            z       0.0030      0.0471     -1.0707
-------------------------------------------------------------------------------
   54 O2    x      -2.3936      0.0823      0.0015
            y       0.0413     -1.2536     -0.0685
            z      -0.0210     -0.0480     -1.0643
-------------------------------------------------------------------------------
   55 O3    x      -3.0357     -0.1578      0.0759
            y      -0.0682     -1.3750     -0.0892
            z       0.1203     -0.0320     -1.2446
-------------------------------------------------------------------------------
   56 O2    x      -2.4030     -0.1787     -0.0591
            y      -0.0999     -1.2690      0.0530
            z      -0.0550      0.0265     -1.0922
-------------------------------------------------------------------------------
   57 O2    x      -1.1912     -0.1207     -0.0345
            y      -0.1234     -1.2732      0.0107
            z      -0.0449      0.0229     -2.0674
-------------------------------------------------------------------------------
   58 O2    x      -1.2219     -0.1306      0.0281
            y      -0.1361     -1.2741     -0.0041
            z       0.0438     -0.0086     -2.0683
-------------------------------------------------------------------------------
   59 O3    x      -1.3672      0.1819      0.0232
            y       0.1601     -1.4476     -0.0537
            z      -0.0201     -0.0261     -2.5913
-------------------------------------------------------------------------------
   60 O3    x      -1.3575      0.1495      0.0806
            y       0.1332     -1.4631      0.0395
            z       0.0889      0.0812     -2.5920
-------------------------------------------------------------------------------
   61 O2    x      -1.1935     -0.1097     -0.0811
            y      -0.0373     -1.3021      0.0941
            z      -0.0503      0.0872     -2.0836
-------------------------------------------------------------------------------
   62 O2    x      -1.2186     -0.1251     -0.0748
            y      -0.0511     -1.3179      0.0587
            z      -0.0722      0.0845     -2.0398
-------------------------------------------------------------------------------
   63 O2    x      -1.1757      0.1295     -0.0196
            y       0.0943     -1.2879     -0.0113
            z      -0.0100      0.0102     -2.0624
-------------------------------------------------------------------------------
   64 O2    x      -1.1643      0.1183      0.0175
            y       0.0834     -1.2906      0.0182
            z       0.0077     -0.0001     -2.0827
-------------------------------------------------------------------------------
   65 O3    x      -1.5456      0.2366      0.1360
            y       0.3178     -2.9295     -0.1805
            z       0.1674     -0.1517     -1.1660
-------------------------------------------------------------------------------
   66 O2    x      -1.2818      0.0835     -0.0704
            y       0.1718     -2.4629     -0.0751
            z      -0.0984     -0.0430     -1.0141
-------------------------------------------------------------------------------
   67 O2    x      -1.2282     -0.0590      0.0869
            y      -0.1233     -2.4837     -0.0284
            z       0.1003     -0.0130     -1.0190
-------------------------------------------------------------------------------
   68 O2    x      -1.2219     -0.0492     -0.0894
            y      -0.1139     -2.4980     -0.0084
            z      -0.1000     -0.0182     -1.0189
-------------------------------------------------------------------------------
   69 O2    x      -2.3991     -0.2106     -0.0868
            y      -0.1216     -1.2899      0.0280
            z      -0.0530      0.0082     -1.0477
-------------------------------------------------------------------------------
   70 O3    x      -3.0340     -0.2486      0.0894
            y      -0.1688     -1.3909     -0.0719
            z       0.0934     -0.0129     -1.2342
-------------------------------------------------------------------------------
   71 O2    x      -2.4034      0.0936      0.0065
            y       0.0503     -1.2401     -0.0681
            z      -0.0022     -0.0382     -1.0390
-------------------------------------------------------------------------------
   72 O2    x      -2.4155      0.0981     -0.0040
            y       0.0578     -1.2416      0.0580
            z       0.0057      0.0322     -1.0289
-------------------------------------------------------------------------------




  Elastic Constant Matrix: (Units=GPa)

-------------------------------------------------------------------------------
  Indices      1         2         3         4         5         6    
-------------------------------------------------------------------------------
       1     52.0401   26.2260   26.7445    3.1193    6.6000   -2.3183
       2     26.2260   70.2272   20.0665    1.8340    6.1483   -3.4638
       3     26.7445   20.0665   36.7376    1.8190    3.1941   -5.0396
       4      3.1193    1.8340    1.8190   12.0528   -1.4494   -0.3466
       5      6.6000    6.1483    3.1941   -1.4494   23.1733    3.5772
       6     -2.3183   -3.4638   -5.0396   -0.3466    3.5772   28.6091
-------------------------------------------------------------------------------


  Elastic Compliance Matrix: (Units=1/GPa)

-------------------------------------------------------------------------------
  Indices      1         2         3         4         5         6    
-------------------------------------------------------------------------------
       1    0.033954 -0.006195 -0.020747 -0.005386 -0.005342 -0.001051
       2   -0.006195  0.018305 -0.005070 -0.000698 -0.002613  0.001139
       3   -0.020747 -0.005070  0.045919 -0.000624 -0.000007  0.005787
       4   -0.005386 -0.000698 -0.000624  0.085417  0.007225 -0.000500
       5   -0.005342 -0.002613 -0.000007  0.007225  0.046827 -0.006518
       6   -0.001051  0.001139  0.005787 -0.000500 -0.006518  0.036835
-------------------------------------------------------------------------------

  Mechanical properties :

-------------------------------------------------------------------------------
  Convention :                    Reuss         Voigt         Hill
-------------------------------------------------------------------------------
  Bulk  Modulus (GPa)     =      29.28078      33.89768      31.58923
  Shear Modulus (GPa)     =      14.59144      18.49821      16.54482
-------------------------------------------------------------------------------
  Velocity S-wave (km/s)  =       2.72167       3.06444       2.89813
  Velocity P-wave (km/s)  =       4.97407       5.45248       5.21876
-------------------------------------------------------------------------------
  Compressibility (1/GPa) =    0.03415210
-------------------------------------------------------------------------------
  Stress axis :                     x             y             z
-------------------------------------------------------------------------------
  Youngs Moduli (GPa)     =      29.45154      54.62975      21.77765
-------------------------------------------------------------------------------
  Poissons Ratio (x)      =                     0.33844       0.45183
  Poissons Ratio (y)      =       0.18246                     0.11042
  Poissons Ratio (z)      =       0.61104       0.27699
-------------------------------------------------------------------------------


  Piezoelectric Strain Matrix: (Units=C/m**2)

-------------------------------------------------------------------------------
  Indices      1         2         3         4         5         6    
-------------------------------------------------------------------------------
       x    -0.07674   0.54683  -0.42889   0.02005  -0.09035  -0.06006
       y     0.41987  -0.35229  -0.94527  -0.52827  -0.58257   0.03371
       z    -0.29261  -0.20941   0.50730  -0.09546  -0.06930  -0.00444
-------------------------------------------------------------------------------


  Piezoelectric Stress Matrix: (Units=10**-11 C/N)

-------------------------------------------------------------------------------
  Indices      1         2         3         4         5         6    
-------------------------------------------------------------------------------
       x     0.33428   1.28134  -2.12341   0.13889  -0.47101  -0.34118
       y     4.19726  -0.23276  -4.98019  -5.07748  -3.26318  -0.10101
       z    -1.82741  -0.43499   3.04615  -0.72465  -0.17994   0.33407
-------------------------------------------------------------------------------


  Static dielectric constant tensor : 

-------------------------------------------------------------------------------
              x         y         z
-------------------------------------------------------------------------------
       x     3.95406  -0.06548  -0.07384
       y    -0.06548   4.21198   0.02821
       z    -0.07384   0.02821   3.21113
--------------------------------------------------------------------------------

  High frequency dielectric constant tensor : 

-------------------------------------------------------------------------------
              x         y         z
-------------------------------------------------------------------------------
       x     1.68296  -0.00059   0.00233
       y    -0.00059   1.69124   0.00219
       z     0.00233   0.00219   1.62488
-------------------------------------------------------------------------------

  Static refractive indices : 

-------------------------------------------------------------------------------
    1 =    1.78980      2 =    1.98599      3 =    2.05661
-------------------------------------------------------------------------------

  High frequency refractive indices : 

-------------------------------------------------------------------------------
    1 =    1.27464      2 =    1.29731      3 =    1.30052
-------------------------------------------------------------------------------


  Time to end of optimisation =       9.5117 seconds


  Peak dynamic memory used =       5.01 MB 


  Timing analysis for GULP :

--------------------------------------------------------------------------------
  Task / Subroutine                                          Time (Seconds)
--------------------------------------------------------------------------------
  Calculation of reciprocal space energy and derivatives          0.6004
  Calculation of real space energy and derivatives                5.8363
  Calculation of three-body energy and derivatives                0.5589
  Calculation and manipulation of Hessian matrix                  3.1437
  Calculation of matrix inversion                                 0.0240
  Global summation overhead                                       0.0001
--------------------------------------------------------------------------------
  Total CPU time                                                  9.5118
--------------------------------------------------------------------------------


  Dump file written as c00172.vasp.grs
  CIF file written as c00172.vasp.cif


  Job Finished at 11:56.58  7th October    2025                               

