********************************************************************************
*                       GENERAL UTILITY LATTICE PROGRAM                        *
*                                 Julian Gale                                  *
*                       Curtin Institute for Computation                       *
*                    School of Molecular and Life Sciences                     *
*                    Curtin University, Western Australia                      *
********************************************************************************
* Version = 6.1.2 * Last modified =   3rd November 2022                        *
********************************************************************************
*  optimise     - perform optimisation run                                     *
*  conp         - constant pressure calculation                                *
*  property     - calculate properties for final geometry                      *
********************************************************************************

  Job Started  at 11:59.47  7th October    2025                               

  Number of CPUs =     1


  Total number of configurations input =      1

********************************************************************************
*  Input for Configuration =   1 : c00188.vasp                                 *
********************************************************************************

  Formula = Ge3Si21O48                                                  

  Number of irreducible atoms/shells =     120


  Total number atoms/shells =     120

  Dimensionality = 3               :  Bulk   



  Cartesian lattice vectors (Angstroms) :

       17.182800    0.000000    0.000000
        0.000000    7.513760    0.000000
        0.000000    0.000000   10.447700

  Cell parameters (Angstroms/Degrees):

  a =      17.1828    alpha =  90.0000
  b =       7.5138    beta  =  90.0000
  c =      10.4477    gamma =  90.0000

  Initial cell volume =        1348.875752 Angs**3

  Temperature of configuration =   0.00     K 

  Pressure of configuration =         0.000 GPa 

  Fractional coordinates of asymmetric unit :

--------------------------------------------------------------------------------
   No.  Atomic       x           y          z         Charge      Occupancy
        Label      (Frac)      (Frac)     (Frac)        (e)         (Frac)  
--------------------------------------------------------------------------------
      1 Ge    c    0.556730    0.000000    0.122130     4.00000    1.000000    
      2 Ge    c    0.660660 *  0.294090 *  0.017440 *   4.00000    1.000000    
      3 Ge    c    0.660660 *  0.705910 *  0.017440 *   4.00000    1.000000    
      4 Si    c    0.052090 *  0.000000 *  0.372270 *   4.00000    1.000000    
      5 Si    c    0.447910 *  0.000000 *  0.372270 *   4.00000    1.000000    
      6 Si    c    0.947910 *  0.000000 *  0.627730 *   4.00000    1.000000    
      7 Si    c    0.552090 *  0.000000 *  0.627730 *   4.00000    1.000000    
      8 Si    c    0.943270 *  0.000000 *  0.122130 *   4.00000    1.000000    
      9 Si    c    0.443270 *  0.000000 *  0.877870 *   4.00000    1.000000    
     10 Si    c    0.056730 *  0.000000 *  0.877870 *   4.00000    1.000000    
     11 Si    c    0.160190 *  0.293910 *  0.273440 *   4.00000    1.000000    
     12 Si    c    0.339810 *  0.706090 *  0.273440 *   4.00000    1.000000    
     13 Si    c    0.839810 *  0.293910 *  0.726560 *   4.00000    1.000000    
     14 Si    c    0.660190 *  0.706090 *  0.726560 *   4.00000    1.000000    
     15 Si    c    0.839810 *  0.706090 *  0.726560 *   4.00000    1.000000    
     16 Si    c    0.660190 *  0.293910 *  0.726560 *   4.00000    1.000000    
     17 Si    c    0.160190 *  0.706090 *  0.273440 *   4.00000    1.000000    
     18 Si    c    0.339810 *  0.293910 *  0.273440 *   4.00000    1.000000    
     19 Si    c    0.839340 *  0.705910 *  0.017440 *   4.00000    1.000000    
     20 Si    c    0.339340 *  0.294090 *  0.982560 *   4.00000    1.000000    
     21 Si    c    0.160660 *  0.705910 *  0.982560 *   4.00000    1.000000    
     22 Si    c    0.339340 *  0.705910 *  0.982560 *   4.00000    1.000000    
     23 Si    c    0.160660 *  0.294090 *  0.982560 *   4.00000    1.000000    
     24 Si    c    0.839340 *  0.294090 *  0.017440 *   4.00000    1.000000    
     25 O2    c    0.106570 *  0.174340 *  0.366200 *   0.87073    1.000000    
     26 O2    c    0.393430 *  0.825660 *  0.366200 *   0.87073    1.000000    
     27 O2    c    0.893430 *  0.174340 *  0.633800 *   0.87073    1.000000    
     28 O2    c    0.606570 *  0.825660 *  0.633800 *   0.87073    1.000000    
     29 O2    c    0.893430 *  0.825660 *  0.633800 *   0.87073    1.000000    
     30 O2    c    0.606570 *  0.174340 *  0.633800 *   0.87073    1.000000    
     31 O2    c    0.106570 *  0.825660 *  0.366200 *   0.87073    1.000000    
     32 O2    c    0.393430 *  0.174340 *  0.366200 *   0.87073    1.000000    
     33 O2    c    0.000000 *  0.000000 *  0.500000 *   0.87073    1.000000    
     34 O2    c    0.500000 *  0.000000 *  0.500000 *   0.87073    1.000000    
     35 O2    c    0.994520 *  0.000000 *  0.250840 *   0.87073    1.000000    
     36 O3    c    0.505480 *  0.000000 *  0.250840 *   1.33043    1.000000    
     37 O2    c    0.005480 *  0.000000 *  0.749160 *   0.87073    1.000000    
     38 O2    c    0.494520 *  0.000000 *  0.749160 *   0.87073    1.000000    
     39 O1    c    0.610230 *  0.175520 *  0.115390 *   1.73396    1.000000    
     40 O2    c    0.889770 *  0.824480 *  0.115390 *   0.87073    1.000000    
     41 O2    c    0.389770 *  0.175520 *  0.884610 *   0.87073    1.000000    
     42 O2    c    0.110230 *  0.824480 *  0.884610 *   0.87073    1.000000    
     43 O2    c    0.389770 *  0.824480 *  0.884610 *   0.87073    1.000000    
     44 O2    c    0.110230 *  0.175520 *  0.884610 *   0.87073    1.000000    
     45 O1    c    0.610230 *  0.824480 *  0.115390 *   1.73396    1.000000    
     46 O2    c    0.889770 *  0.175520 *  0.115390 *   0.87073    1.000000    
     47 O3    c    0.500000 *  0.000000 *  0.000000 *   1.33043    1.000000    
     48 O2    c    0.000000 *  0.000000 *  0.000000 *   0.87073    1.000000    
     49 O2    c    0.151750 *  0.500000 *  0.313330 *   0.87073    1.000000    
     50 O2    c    0.348250 *  0.500000 *  0.313330 *   0.87073    1.000000    
     51 O2    c    0.848250 *  0.500000 *  0.686670 *   0.87073    1.000000    
     52 O2    c    0.651750 *  0.500000 *  0.686670 *   0.87073    1.000000    
     53 O2    c    0.250000 *  0.234950 *  0.285720 *   0.87073    1.000000    
     54 O2    c    0.250000 *  0.765050 *  0.285720 *   0.87073    1.000000    
     55 O2    c    0.750000 *  0.234950 *  0.714280 *   0.87073    1.000000    
     56 O2    c    0.750000 *  0.765050 *  0.714280 *   0.87073    1.000000    
     57 O2    c    0.131410 *  0.268650 *  0.127790 *   0.87073    1.000000    
     58 O2    c    0.368590 *  0.731350 *  0.127790 *   0.87073    1.000000    
     59 O2    c    0.868590 *  0.268650 *  0.872210 *   0.87073    1.000000    
     60 O3    c    0.631410 *  0.731350 *  0.872210 *   1.33043    1.000000    
     61 O2    c    0.868590 *  0.731350 *  0.872210 *   0.87073    1.000000    
     62 O3    c    0.631410 *  0.268650 *  0.872210 *   1.33043    1.000000    
     63 O2    c    0.131410 *  0.731350 *  0.127790 *   0.87073    1.000000    
     64 O2    c    0.368590 *  0.268650 *  0.127790 *   0.87073    1.000000    
     65 O1    c    0.653920 *  0.500000 *  0.058200 *   1.73396    1.000000    
     66 O2    c    0.846080 *  0.500000 *  0.058200 *   0.87073    1.000000    
     67 O2    c    0.346080 *  0.500000 *  0.941800 *   0.87073    1.000000    
     68 O2    c    0.153920 *  0.500000 *  0.941800 *   0.87073    1.000000    
     69 O3    c    0.750000 *  0.231060 *  0.027050 *   1.33043    1.000000    
     70 O3    c    0.750000 *  0.768940 *  0.027050 *   1.33043    1.000000    
     71 O2    c    0.250000 *  0.231060 *  0.972950 *   0.87073    1.000000    
     72 O2    c    0.250000 *  0.768940 *  0.972950 *   0.87073    1.000000    
     73 O2    s    0.106570 *  0.174340 *  0.366200 *  -2.87073    1.000000    
     74 O2    s    0.393430 *  0.825660 *  0.366200 *  -2.87073    1.000000    
     75 O2    s    0.893430 *  0.174340 *  0.633800 *  -2.87073    1.000000    
     76 O2    s    0.606570 *  0.825660 *  0.633800 *  -2.87073    1.000000    
     77 O2    s    0.893430 *  0.825660 *  0.633800 *  -2.87073    1.000000    
     78 O2    s    0.606570 *  0.174340 *  0.633800 *  -2.87073    1.000000    
     79 O2    s    0.106570 *  0.825660 *  0.366200 *  -2.87073    1.000000    
     80 O2    s    0.393430 *  0.174340 *  0.366200 *  -2.87073    1.000000    
     81 O2    s    0.000000 *  0.000000 *  0.500000 *  -2.87073    1.000000    
     82 O2    s    0.500000 *  0.000000 *  0.500000 *  -2.87073    1.000000    
     83 O2    s    0.994520 *  0.000000 *  0.250840 *  -2.87073    1.000000    
     84 O3    s    0.505480 *  0.000000 *  0.250840 *  -3.33043    1.000000    
     85 O2    s    0.005480 *  0.000000 *  0.749160 *  -2.87073    1.000000    
     86 O2    s    0.494520 *  0.000000 *  0.749160 *  -2.87073    1.000000    
     87 O1    s    0.610230 *  0.175520 *  0.115390 *  -3.73396    1.000000    
     88 O2    s    0.889770 *  0.824480 *  0.115390 *  -2.87073    1.000000    
     89 O2    s    0.389770 *  0.175520 *  0.884610 *  -2.87073    1.000000    
     90 O2    s    0.110230 *  0.824480 *  0.884610 *  -2.87073    1.000000    
     91 O2    s    0.389770 *  0.824480 *  0.884610 *  -2.87073    1.000000    
     92 O2    s    0.110230 *  0.175520 *  0.884610 *  -2.87073    1.000000    
     93 O1    s    0.610230 *  0.824480 *  0.115390 *  -3.73396    1.000000    
     94 O2    s    0.889770 *  0.175520 *  0.115390 *  -2.87073    1.000000    
     95 O3    s    0.500000 *  0.000000 *  0.000000 *  -3.33043    1.000000    
     96 O2    s    0.000000 *  0.000000 *  0.000000 *  -2.87073    1.000000    
     97 O2    s    0.151750 *  0.500000 *  0.313330 *  -2.87073    1.000000    
     98 O2    s    0.348250 *  0.500000 *  0.313330 *  -2.87073    1.000000    
     99 O2    s    0.848250 *  0.500000 *  0.686670 *  -2.87073    1.000000    
    100 O2    s    0.651750 *  0.500000 *  0.686670 *  -2.87073    1.000000    
    101 O2    s    0.250000 *  0.234950 *  0.285720 *  -2.87073    1.000000    
    102 O2    s    0.250000 *  0.765050 *  0.285720 *  -2.87073    1.000000    
    103 O2    s    0.750000 *  0.234950 *  0.714280 *  -2.87073    1.000000    
    104 O2    s    0.750000 *  0.765050 *  0.714280 *  -2.87073    1.000000    
    105 O2    s    0.131410 *  0.268650 *  0.127790 *  -2.87073    1.000000    
    106 O2    s    0.368590 *  0.731350 *  0.127790 *  -2.87073    1.000000    
    107 O2    s    0.868590 *  0.268650 *  0.872210 *  -2.87073    1.000000    
    108 O3    s    0.631410 *  0.731350 *  0.872210 *  -3.33043    1.000000    
    109 O2    s    0.868590 *  0.731350 *  0.872210 *  -2.87073    1.000000    
    110 O3    s    0.631410 *  0.268650 *  0.872210 *  -3.33043    1.000000    
    111 O2    s    0.131410 *  0.731350 *  0.127790 *  -2.87073    1.000000    
    112 O2    s    0.368590 *  0.268650 *  0.127790 *  -2.87073    1.000000    
    113 O1    s    0.653920 *  0.500000 *  0.058200 *  -3.73396    1.000000    
    114 O2    s    0.846080 *  0.500000 *  0.058200 *  -2.87073    1.000000    
    115 O2    s    0.346080 *  0.500000 *  0.941800 *  -2.87073    1.000000    
    116 O2    s    0.153920 *  0.500000 *  0.941800 *  -2.87073    1.000000    
    117 O3    s    0.750000 *  0.231060 *  0.027050 *  -3.33043    1.000000    
    118 O3    s    0.750000 *  0.768940 *  0.027050 *  -3.33043    1.000000    
    119 O2    s    0.250000 *  0.231060 *  0.972950 *  -2.87073    1.000000    
    120 O2    s    0.250000 *  0.768940 *  0.972950 *  -2.87073    1.000000    
--------------------------------------------------------------------------------



********************************************************************************
*  General input information                                                   *
********************************************************************************

  Species output for all configurations : 

--------------------------------------------------------------------------------
  Species    Type    Atomic    Atomic    Charge       Radii (Angs)     Library
                     Number     Mass       (e)     Cova   Ionic  VDW   Symbol
--------------------------------------------------------------------------------
    Ge       Core       32      72.61   4.000000   1.170  0.000  1.750 Ge       
    Si       Core       14      28.09   4.000000   1.200  0.000  2.100 Si       
    O1       Core        8      16.00   1.733957   0.730  0.000  1.360 O1       
    O2       Core        8      16.00   0.870733   0.730  0.000  1.360 O2       
    O3       Core        8      16.00   1.330431   0.730  0.000  1.360 O3       
    O1       Shell       8       0.00  -3.733957   0.730  0.000  0.000 O1       
    O2       Shell       8       0.00  -2.870733   0.730  0.000  0.000 O2       
    O3       Shell       8       0.00  -3.330431   0.730  0.000  0.000 O3       
--------------------------------------------------------------------------------


  Lattice summation method               =    Ewald          (3-D)
                                         =    Parry          (2-D)
                                         =    Saunders et al (1-D)
  Accuracy factor for lattice sums       =   12.000


  Analytic derivatives to be used

  Time limit = Infinity

  Maximum range for interatomic potentials =    100000.000000 Angstroms

  General interatomic potentials :

--------------------------------------------------------------------------------
Atom  Types   Potential      Parameter       Value         Units   Cutoffs(Ang)
  1     2                                                            Min /  Max 
--------------------------------------------------------------------------------
Si   c O1   s Buckingham    Buckingham A     1315.2478    eV        0.000 16.000
                            Buckingham rho  0.31775900    Ang       
                            Buckingham C     10.141118    eV*Ang^6  
--------------------------------------------------------------------------------
Si   c O2   s Buckingham    Buckingham A     1315.2478    eV        0.000 16.000
                            Buckingham rho  0.31775900    Ang       
                            Buckingham C     10.141118    eV*Ang^6  
--------------------------------------------------------------------------------
Si   c O3   s Buckingham    Buckingham A     1315.2478    eV        0.000 16.000
                            Buckingham rho  0.31775900    Ang       
                            Buckingham C     10.141118    eV*Ang^6  
--------------------------------------------------------------------------------
Ge   c O1   s Buckingham    Buckingham A     1497.3996    eV        0.000 16.000
                            Buckingham rho  0.32564600    Ang       
                            Buckingham C     16.808599    eV*Ang^6  
--------------------------------------------------------------------------------
Ge   c O2   s Buckingham    Buckingham A     1497.3996    eV        0.000 16.000
                            Buckingham rho  0.32564600    Ang       
                            Buckingham C     16.808599    eV*Ang^6  
--------------------------------------------------------------------------------
Ge   c O3   s Buckingham    Buckingham A     1497.3996    eV        0.000 16.000
                            Buckingham rho  0.32564600    Ang       
                            Buckingham C     16.808599    eV*Ang^6  
--------------------------------------------------------------------------------
O1   s O1   s Buckingham    Buckingham A     22764.000    eV        0.000 16.000
                            Buckingham rho  0.14900000    Ang       
                            Buckingham C     10.937044    eV*Ang^6  
--------------------------------------------------------------------------------
O1   s O2   s Buckingham    Buckingham A     22764.000    eV        0.000 16.000
                            Buckingham rho  0.14900000    Ang       
                            Buckingham C     10.937044    eV*Ang^6  
--------------------------------------------------------------------------------
O1   s O3   s Buckingham    Buckingham A     22764.000    eV        0.000 16.000
                            Buckingham rho  0.14900000    Ang       
                            Buckingham C     10.937044    eV*Ang^6  
--------------------------------------------------------------------------------
O2   s O2   s Buckingham    Buckingham A     22764.000    eV        0.000 16.000
                            Buckingham rho  0.14900000    Ang       
                            Buckingham C     10.937044    eV*Ang^6  
--------------------------------------------------------------------------------
O2   s O3   s Buckingham    Buckingham A     22764.000    eV        0.000 16.000
                            Buckingham rho  0.14900000    Ang       
                            Buckingham C     10.937044    eV*Ang^6  
--------------------------------------------------------------------------------
O3   s O3   s Buckingham    Buckingham A     22764.000    eV        0.000 16.000
                            Buckingham rho  0.14900000    Ang       
                            Buckingham C     10.937044    eV*Ang^6  
--------------------------------------------------------------------------------
O1   c O1   s Spring (c-s)  Spring k 2       180.31577    eV*Ang^-2 0.000  0.800
                            Spring k 4       0.0000000    eV*Ang^-4 
--------------------------------------------------------------------------------
O2   c O2   s Spring (c-s)  Spring k 2       75.969800    eV*Ang^-2 0.000  0.800
                            Spring k 4       0.0000000    eV*Ang^-4 
--------------------------------------------------------------------------------
O3   c O3   s Spring (c-s)  Spring k 2       128.14270    eV*Ang^-2 0.000  0.800
                            Spring k 4       0.0000000    eV*Ang^-4 
--------------------------------------------------------------------------------

  General Three-body potentials :

--------------------------------------------------------------------------------
  Atoms       Potential      Parameter       Value         Units   Cutoffs(Ang)
  1 / 2 / 3                                                          Min /  Max 
--------------------------------------------------------------------------------
Si    core    Harmonic      Three-body cnst  1.2614000    eV*rad^-2 0.000  1.900
O1    shel                  Three-body angl  109.47000    degrees   0.000  1.900
O1    shel                  Three-body k4    0.0000000    eV*rad^-4 0.000  3.500
                            Three-body k3    0.0000000    eV*rad^-3 
--------------------------------------------------------------------------------
Si    core    Harmonic      Three-body cnst  1.2614000    eV*rad^-2 0.000  1.900
O1    shel                  Three-body angl  109.47000    degrees   0.000  1.900
õ(1   shel                  Three-body k4    0.0000000    eV*rad^-4 0.000  3.500
                            Three-body k3    0.0000000    eV*rad^-3 
--------------------------------------------------------------------------------
Si    core    Harmonic      Three-body cnst  1.2614000    eV*rad^-2 0.000  1.900
õ(1   shel                  Three-body angl  109.47000    degrees   0.000  1.900
õ(1   shel                  Three-body k4    0.0000000    eV*rad^-4 0.000  3.500
                            Three-body k3    0.0000000    eV*rad^-3 
--------------------------------------------------------------------------------
Si    core    Harmonic      Three-body cnst  1.2614000    eV*rad^-2 0.000  1.900
O1    shel                  Three-body angl  109.47000    degrees   0.000  1.900
O2    shel                  Three-body k4    0.0000000    eV*rad^-4 0.000  3.500
                            Three-body k3    0.0000000    eV*rad^-3 
--------------------------------------------------------------------------------
Si    core    Harmonic      Three-body cnst  1.2614000    eV*rad^-2 0.000  1.900
O1    shel                  Three-body angl  109.47000    degrees   0.000  1.900
õ(2   shel                  Three-body k4    0.0000000    eV*rad^-4 0.000  3.500
                            Three-body k3    0.0000000    eV*rad^-3 
--------------------------------------------------------------------------------
Si    core    Harmonic      Three-body cnst  1.2614000    eV*rad^-2 0.000  1.900
O2    shel                  Three-body angl  109.47000    degrees   0.000  1.900
õ(1   shel                  Three-body k4    0.0000000    eV*rad^-4 0.000  3.500
                            Three-body k3    0.0000000    eV*rad^-3 
--------------------------------------------------------------------------------
Si    core    Harmonic      Three-body cnst  1.2614000    eV*rad^-2 0.000  1.900
õ(1   shel                  Three-body angl  109.47000    degrees   0.000  1.900
õ(2   shel                  Three-body k4    0.0000000    eV*rad^-4 0.000  3.500
                            Three-body k3    0.0000000    eV*rad^-3 
--------------------------------------------------------------------------------
Si    core    Harmonic      Three-body cnst  1.2614000    eV*rad^-2 0.000  1.900
O2    shel                  Three-body angl  109.47000    degrees   0.000  1.900
O2    shel                  Three-body k4    0.0000000    eV*rad^-4 0.000  3.500
                            Three-body k3    0.0000000    eV*rad^-3 
--------------------------------------------------------------------------------
Si    core    Harmonic      Three-body cnst  1.2614000    eV*rad^-2 0.000  1.900
O2    shel                  Three-body angl  109.47000    degrees   0.000  1.900
õ(2   shel                  Three-body k4    0.0000000    eV*rad^-4 0.000  3.500
                            Three-body k3    0.0000000    eV*rad^-3 
--------------------------------------------------------------------------------
Si    core    Harmonic      Three-body cnst  1.2614000    eV*rad^-2 0.000  1.900
õ(2   shel                  Three-body angl  109.47000    degrees   0.000  1.900
õ(2   shel                  Three-body k4    0.0000000    eV*rad^-4 0.000  3.500
                            Three-body k3    0.0000000    eV*rad^-3 
--------------------------------------------------------------------------------

********************************************************************************
*  Output for configuration   1 : c00188.vasp                                  *
********************************************************************************


  Components of energy : 

--------------------------------------------------------------------------------
  Interatomic potentials     =         760.37579294 eV    
  Three-body potentials      =           0.01540313 eV    
  Monopole - monopole (real) =       -2676.00317478 eV    
  Monopole - monopole (recip)=       -1115.35404472 eV    
  Monopole - monopole (total)=       -3791.35721950 eV    
--------------------------------------------------------------------------------
  Total lattice energy       =       -3030.96602344 eV    
--------------------------------------------------------------------------------
  Total lattice energy       =         -292441.8887 kJ/(mole unit cells)
--------------------------------------------------------------------------------


  Number of variables =      363

  Maximum number of calculations  =          1000
  Maximum Hessian update interval =            10
  Maximum step size               =   0.100000000
  Maximum parameter tolerance     =   0.000010000
  Maximum function  tolerance     =   0.000010000
  Maximum gradient  tolerance     =   0.001000000
  Maximum gradient  component     =   0.010000000

  Symmetry not applied to optimisation

  Cell parameters to be optimised using strains

  Newton-Raphson optimiser to be used

  BFGS hessian update to be used

  Lower half triangular hessian to be used

  Minimiser to switch to RFO
  When gradient norm is less than     0.050000

  Dumpfile to be written after every cycle

  Start of bulk optimisation :

  Cycle:      0 Energy:     -3030.966023  Gnorm:      4.405179  CPU:    0.127
  ** Hessian calculated **
  Cycle:      1 Energy:     -3061.488534  Gnorm:      0.945229  CPU:    0.272
  ** Hessian calculated **
  Cycle:      2 Energy:     -3063.890804  Gnorm:      0.517703  CPU:    0.486
  Cycle:      3 Energy:     -3064.567805  Gnorm:      0.323965  CPU:    0.602
  Cycle:      4 Energy:     -3065.032583  Gnorm:      0.254106  CPU:    0.737
  Cycle:      5 Energy:     -3065.495098  Gnorm:      0.206220  CPU:    0.871
  Cycle:      6 Energy:     -3065.922850  Gnorm:      0.180657  CPU:    1.014
  Cycle:      7 Energy:     -3066.152409  Gnorm:      0.139684  CPU:    1.133
  Cycle:      8 Energy:     -3066.291104  Gnorm:      0.108336  CPU:    1.252
  Cycle:      9 Energy:     -3066.355225  Gnorm:      0.079413  CPU:    1.371
  Cycle:     10 Energy:     -3066.401539  Gnorm:      0.066563  CPU:    1.512
  Cycle:     11 Energy:     -3066.438302  Gnorm:      0.066220  CPU:    1.653
  ** Hessian calculated **
  Cycle:     12 Energy:     -3066.457294  Gnorm:      0.065284  CPU:    1.902
  Cycle:     13 Energy:     -3066.489079  Gnorm:      0.063683  CPU:    2.065
  Cycle:     14 Energy:     -3066.537630  Gnorm:      0.061150  CPU:    2.229
  Cycle:     15 Energy:     -3066.597443  Gnorm:      0.057866  CPU:    2.369
  Cycle:     16 Energy:     -3066.694979  Gnorm:      0.052075  CPU:    2.532
  Cycle:     17 Energy:     -3066.812955  Gnorm:      0.044232  CPU:    2.674
  ** Hessian has wrong structure
  ** Imaginary eigenvectors =   3
  Cycle:     18 Energy:     -3066.814926  Gnorm:      0.097915  CPU:    2.952
  ** Hessian has wrong structure
  ** Imaginary eigenvectors =   4
  ** Hessian has wrong structure
  ** Imaginary eigenvectors =   4
  Cycle:     19 Energy:     -3066.898902  Gnorm:      0.106347  CPU:    3.556
  ** Hessian has wrong structure
  ** Imaginary eigenvectors =   3
  ** Hessian has wrong structure
  ** Imaginary eigenvectors =   2
  Cycle:     20 Energy:     -3067.149243  Gnorm:      0.054624  CPU:    4.098
  ** Hessian has wrong structure
  ** Imaginary eigenvectors =   2
  ** Hessian has wrong structure
  ** Imaginary eigenvectors =   2
  Cycle:     21 Energy:     -3067.154310  Gnorm:      0.058469  CPU:    4.596
  ** Hessian calculated **
  Cycle:     22 Energy:     -3067.168891  Gnorm:      0.034076  CPU:    4.823
  ** Hessian has required structure
  Cycle:     23 Energy:     -3067.172453  Gnorm:      0.053046  CPU:    4.992
  ** Hessian has required structure
  Cycle:     24 Energy:     -3067.178054  Gnorm:      0.054368  CPU:    5.161
  ** Hessian has required structure
  Cycle:     25 Energy:     -3067.181401  Gnorm:      0.060169  CPU:    5.324
  ** Hessian has required structure
  Cycle:     26 Energy:     -3067.185373  Gnorm:      0.057901  CPU:    5.490
  ** Hessian has required structure
  Cycle:     27 Energy:     -3067.189581  Gnorm:      0.040601  CPU:    5.657
  ** Hessian has required structure
  Cycle:     28 Energy:     -3067.190779  Gnorm:      0.029964  CPU:    5.825
  ** Hessian has required structure
  Cycle:     29 Energy:     -3067.192404  Gnorm:      0.038519  CPU:    5.993
  ** Hessian has required structure
  Cycle:     30 Energy:     -3067.194314  Gnorm:      0.044582  CPU:    6.158
  ** Hessian has required structure
  Cycle:     31 Energy:     -3067.200385  Gnorm:      0.051454  CPU:    6.346
  ** Hessian has wrong structure
  ** Imaginary eigenvectors =   2
  Cycle:     32 Energy:     -3067.256716  Gnorm:      0.077479  CPU:    6.845
  ** Hessian has wrong structure
  ** Imaginary eigenvectors =   1
  Cycle:     33 Energy:     -3067.292666  Gnorm:      0.093099  CPU:    7.242
  ** Hessian has required structure
  Cycle:     34 Energy:     -3067.481613  Gnorm:      0.055739  CPU:    7.543
  ** Hessian has required structure
  Cycle:     35 Energy:     -3067.565952  Gnorm:      0.043325  CPU:    7.754
  ** Hessian has required structure
  Cycle:     36 Energy:     -3067.616053  Gnorm:      0.021794  CPU:    7.963
  ** Hessian has required structure
  Cycle:     37 Energy:     -3067.636032  Gnorm:      0.029331  CPU:    8.153
  ** Hessian has required structure
  Cycle:     38 Energy:     -3067.651401  Gnorm:      0.013892  CPU:    8.344
  ** Hessian has required structure
  Cycle:     39 Energy:     -3067.657044  Gnorm:      0.010480  CPU:    8.558
  ** Hessian has required structure
  Cycle:     40 Energy:     -3067.660251  Gnorm:      0.007718  CPU:    8.748
  ** Hessian has required structure
  Cycle:     41 Energy:     -3067.662129  Gnorm:      0.004537  CPU:    8.938
  ** Hessian has required structure
  Cycle:     42 Energy:     -3067.663577  Gnorm:      0.006836  CPU:    9.150
  ** Hessian has required structure
  Cycle:     43 Energy:     -3067.664680  Gnorm:      0.004792  CPU:    9.339
  ** Hessian has required structure
  Cycle:     44 Energy:     -3067.666847  Gnorm:      0.004311  CPU:    9.648
  ** Hessian has required structure
  Cycle:     45 Energy:     -3067.669001  Gnorm:      0.007606  CPU:    9.858
  ** Hessian has required structure
  Cycle:     46 Energy:     -3067.670678  Gnorm:      0.008961  CPU:   10.049
  ** Hessian has required structure
  Cycle:     47 Energy:     -3067.672832  Gnorm:      0.006651  CPU:   10.259
  ** Hessian has required structure
  Cycle:     48 Energy:     -3067.674137  Gnorm:      0.008719  CPU:   10.447
  ** Hessian has required structure
  Cycle:     49 Energy:     -3067.675912  Gnorm:      0.005207  CPU:   10.636
  ** Hessian has required structure
  Cycle:     50 Energy:     -3067.676690  Gnorm:      0.003673  CPU:   10.847
  ** Hessian has required structure
  Cycle:     51 Energy:     -3067.677124  Gnorm:      0.001772  CPU:   11.057
  ** Hessian has required structure
  Cycle:     52 Energy:     -3067.677284  Gnorm:      0.001745  CPU:   11.245
  ** Hessian has required structure
  Cycle:     53 Energy:     -3067.677365  Gnorm:      0.000694  CPU:   11.437
  ** Hessian has required structure
  Cycle:     54 Energy:     -3067.677391  Gnorm:      0.000355  CPU:   11.754
  ** Hessian has required structure
  Cycle:     55 Energy:     -3067.677396  Gnorm:      0.000218  CPU:   11.941
  ** Hessian has required structure
  Cycle:     56 Energy:     -3067.677401  Gnorm:      0.000111  CPU:   12.150
  ** Hessian has required structure
  Cycle:     57 Energy:     -3067.677402  Gnorm:      0.000078  CPU:   12.343
  ** Hessian has required structure


  **** Optimisation achieved ****


  Final energy =   -3067.67740182 eV      
  Final Gnorm  =       0.00005443

  Components of energy : 

--------------------------------------------------------------------------------
  Interatomic potentials     =         816.61238736 eV    
  Three-body potentials      =           0.29120291 eV    
  Monopole - monopole (real) =       -2200.27404215 eV    
  Monopole - monopole (recip)=       -1684.30694993 eV    
  Monopole - monopole (total)=       -3884.58099209 eV    
--------------------------------------------------------------------------------
  Total lattice energy       =       -3067.67740182 eV    
--------------------------------------------------------------------------------
  Total lattice energy       =         -295983.9755 kJ/(mole unit cells)
--------------------------------------------------------------------------------

  Final fractional coordinates of atoms :

--------------------------------------------------------------------------------
   No.  Atomic        x           y          z          Radius
        Label       (Frac)      (Frac)     (Frac)       (Angs) 
--------------------------------------------------------------------------------
     1  Ge    c     0.556730    0.000000    0.122130    0.000000
     2  Ge    c     0.675194    0.271112    0.998419    0.000000
     3  Ge    c     0.645533    0.680785    0.010596    0.000000
     4  Si    c     0.046142    0.037165    0.347556    0.000000
     5  Si    c     0.447678    0.031766    0.368651    0.000000
     6  Si    c     0.952040    0.050550    0.610932    0.000000
     7  Si    c     0.549877    0.028291    0.620723    0.000000
     8  Si    c     0.946583    0.036370    0.091817    0.000000
     9  Si    c     0.450181    0.046054    0.876563    0.000000
    10  Si    c     0.060271    0.037407    0.858038    0.000000
    11  Si    c     0.151494    0.345923    0.259939    0.000000
    12  Si    c     0.345211    0.725737    0.267405    0.000000
    13  Si    c     0.850221    0.358861    0.693494    0.000000
    14  Si    c     0.651487    0.719260    0.707303    0.000000
    15  Si    c     0.831670    0.760828    0.702546    0.000000
    16  Si    c     0.670355    0.309053    0.694400    0.000000
    17  Si    c     0.163160    0.752923    0.258742    0.000000
    18  Si    c     0.333250    0.318500    0.265991    0.000000
    19  Si    c     0.830799    0.748793    0.005036    0.000000
    20  Si    c     0.336131    0.324618    0.965534    0.000000
    21  Si    c     0.170042    0.755219    0.958292    0.000000
    22  Si    c     0.352809    0.726289    0.968303    0.000000
    23  Si    c     0.153694    0.353802    0.959845    0.000000
    24  Si    c     0.857240    0.357554    0.996046    0.000000
    25  O2    c     0.091306    0.226225    0.342971    0.000000
    26  O2    c     0.403962    0.842143    0.353322    0.000000
    27  O2    c     0.912946    0.244427    0.613923    0.000000
    28  O2    c     0.590980    0.836099    0.621885    0.000000
    29  O2    c     0.882527    0.904734    0.623740    0.000000
    30  O2    c     0.616405    0.183008    0.603802    0.000000
    31  O2    c     0.110754    0.882050    0.343718    0.000000
    32  O2    c     0.383933    0.187299    0.353780    0.000000
    33  O2    c     0.996524    0.023391    0.477479    0.000000
    34  O2    c     0.486501    0.038680    0.507843    0.000000
    35  O2    c     0.986512    0.014606    0.229643    0.000000
    36  O3    c     0.517521    0.055735    0.267152    0.000000
    37  O2    c     0.015872    0.025801    0.723427    0.000000
    38  O2    c     0.500862    0.064159    0.749013    0.000000
    39  O1    c     0.646669    0.103191    0.096642    0.000000
    40  O2    c     0.872079    0.902464    0.087813    0.000000
    41  O2    c     0.379807    0.188516    0.873981    0.000000
    42  O2    c     0.130004    0.893977    0.861807    0.000000
    43  O2    c     0.413925    0.846730    0.887567    0.000000
    44  O2    c     0.096763    0.234546    0.872232    0.000000
    45  O1    c     0.576769    0.781825    0.105015    0.000000
    46  O2    c     0.920468    0.239069    0.072219    0.000000
    47  O3    c     0.502857    0.093797    0.997869    0.000000
    48  O2    c     0.004111    0.982999    0.976370    0.000000
    49  O2    c     0.135767    0.551430    0.287080    0.000000
    50  O2    c     0.360252    0.519444    0.295167    0.000000
    51  O2    c     0.866996    0.567657    0.672641    0.000000
    52  O2    c     0.636423    0.508405    0.691719    0.000000
    53  O2    c     0.240777    0.295994    0.298933    0.000000
    54  O2    c     0.254987    0.775216    0.297570    0.000000
    55  O2    c     0.761372    0.313023    0.645888    0.000000
    56  O2    c     0.740266    0.766950    0.658830    0.000000
    57  O2    c     0.137331    0.305468    0.109292    0.000000
    58  O2    c     0.366754    0.772078    0.118756    0.000000
    59  O2    c     0.859931    0.309791    0.844103    0.000000
    60  O3    c     0.637650    0.767020    0.854831    0.000000
    61  O2    c     0.832908    0.804142    0.854016    0.000000
    62  O3    c     0.669190    0.224053    0.835848    0.000000
    63  O2    c     0.154185    0.802047    0.107660    0.000000
    64  O2    c     0.347159    0.272670    0.116082    0.000000
    65  O1    c     0.623724    0.462580    0.021550    0.000000
    66  O2    c     0.878106    0.564028    0.020159    0.000000
    67  O2    c     0.371363    0.521852    0.941680    0.000000
    68  O2    c     0.136162    0.558929    0.930407    0.000000
    69  O3    c     0.770625    0.319193    0.045887    0.000000
    70  O3    c     0.742664    0.724730    0.054986    0.000000
    71  O2    c     0.244514    0.315899    0.927512    0.000000
    72  O2    c     0.263175    0.766312    0.929708    0.000000
    73  O2    s     0.093214    0.219395    0.334189    0.000000
    74  O2    s     0.401987    0.849207    0.345240    0.000000
    75  O2    s     0.910313    0.236319    0.622168    0.000000
    76  O2    s     0.593028    0.843867    0.630623    0.000000
    77  O2    s     0.884373    0.904452    0.631278    0.000000
    78  O2    s     0.615187    0.180225    0.614955    0.000000
    79  O2    s     0.109757    0.884110    0.334557    0.000000
    80  O2    s     0.385055    0.185344    0.345449    0.000000
    81  O2    s     0.997174    0.028178    0.477779    0.000000
    82  O2    s     0.489299    0.036637    0.504561    0.000000
    83  O2    s     0.988701    0.019724    0.227037    0.000000
    84  O3    s     0.513730    0.048358    0.264915    0.000000
    85  O2    s     0.013903    0.029942    0.726603    0.000000
    86  O2    s     0.500417    0.057905    0.749669    0.000000
    87  O1    s     0.642330    0.109151    0.090444    0.000000
    88  O2    s     0.875600    0.900220    0.079132    0.000000
    89  O2    s     0.382300    0.188773    0.884582    0.000000
    90  O2    s     0.127029    0.893817    0.872201    0.000000
    91  O2    s     0.410908    0.853863    0.895437    0.000000
    92  O2    s     0.099204    0.226885    0.880497    0.000000
    93  O1    s     0.580365    0.791400    0.099281    0.000000
    94  O2    s     0.916427    0.230307    0.066000    0.000000
    95  O3    s     0.501743    0.081546    0.995130    0.000000
    96  O2    s     0.003988    0.994865    0.975981    0.000000
    97  O2    s     0.140451    0.550728    0.281069    0.000000
    98  O2    s     0.355705    0.520449    0.289014    0.000000
    99  O2    s     0.861503    0.565618    0.677991    0.000000
   100  O2    s     0.641551    0.509544    0.693612    0.000000
   101  O2    s     0.241264    0.303798    0.291203    0.000000
   102  O2    s     0.254952    0.767437    0.290153    0.000000
   103  O2    s     0.761210    0.317498    0.655818    0.000000
   104  O2    s     0.740742    0.761281    0.668470    0.000000
   105  O2    s     0.140571    0.314812    0.109390    0.000000
   106  O2    s     0.363151    0.762699    0.118586    0.000000
   107  O2    s     0.858638    0.319885    0.843709    0.000000
   108  O3    s     0.639598    0.755744    0.851988    0.000000
   109  O2    s     0.832545    0.793688    0.853492    0.000000
   110  O3    s     0.669771    0.236224    0.834676    0.000000
   111  O2    s     0.156821    0.791971    0.107914    0.000000
   112  O2    s     0.344536    0.282879    0.116183    0.000000
   113  O1    s     0.629328    0.465879    0.018974    0.000000
   114  O2    s     0.871189    0.561335    0.016097    0.000000
   115  O2    s     0.365642    0.523195    0.947092    0.000000
   116  O2    s     0.141664    0.557663    0.936568    0.000000
   117  O3    s     0.772113    0.319430    0.036676    0.000000
   118  O3    s     0.744109    0.723758    0.046387    0.000000
   119  O2    s     0.244672    0.321132    0.935338    0.000000
   120  O2    s     0.262936    0.760564    0.937170    0.000000
--------------------------------------------------------------------------------

  Final Cartesian lattice vectors (Angstroms) :

       16.935676   -0.107554    0.001270
       -0.047264    7.564863    0.038486
        0.000961    0.052826   10.364640


  Final cell parameters and derivatives :

--------------------------------------------------------------------------------
       a           16.936017 Angstrom     dE/de1(xx)     0.001101 eV/strain
       b            7.565109 Angstrom     dE/de2(yy)     0.000898 eV/strain
       c           10.364775 Angstrom     dE/de3(zz)     0.002373 eV/strain
       alpha       89.416537 Degrees      dE/de4(yz)    -0.000281 eV/strain
       beta        89.992246 Degrees      dE/de5(xz)     0.000174 eV/strain
       gamma       90.721809 Degrees      dE/de6(xy)     0.000038 eV/strain
--------------------------------------------------------------------------------

  Primitive cell volume =          1327.789851 Angs**3

  Density of cell =      1.970633 g/cm**3

  Non-primitive cell volume =          1327.789851 Angs**3


  Final internal derivatives :

--------------------------------------------------------------------------------
   No.  Atomic          a             b             c           Radius
        Label          (eV)          (eV)          (eV)        (eV/Angs)
--------------------------------------------------------------------------------
      1 Ge    c       0.000000      0.000000      0.000000      0.000000
      2 Ge    c      -0.000121      0.000157      0.000573      0.000000
      3 Ge    c      -0.000240      0.000058     -0.000043      0.000000
      4 Si    c      -0.000011      0.000015     -0.000241      0.000000
      5 Si    c       0.006693      0.000066      0.000841      0.000000
      6 Si    c       0.000047      0.000003      0.000021      0.000000
      7 Si    c       0.004332     -0.000599     -0.002127      0.000000
      8 Si    c       0.000159     -0.000019     -0.000116      0.000000
      9 Si    c      -0.006560     -0.000948      0.003568      0.000000
     10 Si    c       0.000005      0.000044     -0.000059      0.000000
     11 Si    c      -0.000029      0.000029     -0.000048      0.000000
     12 Si    c      -0.000417     -0.000118     -0.000018      0.000000
     13 Si    c       0.000074      0.000029     -0.000043      0.000000
     14 Si    c      -0.000561     -0.000118     -0.000128      0.000000
     15 Si    c       0.000070      0.000022     -0.000007      0.000000
     16 Si    c      -0.000420      0.000119     -0.000505      0.000000
     17 Si    c      -0.000189     -0.000009     -0.000016      0.000000
     18 Si    c      -0.000250      0.000201     -0.000214      0.000000
     19 Si    c       0.000121     -0.000010     -0.000030      0.000000
     20 Si    c       0.000830     -0.000119     -0.000090      0.000000
     21 Si    c       0.000082      0.000013     -0.000063      0.000000
     22 Si    c       0.000594     -0.000052     -0.000278      0.000000
     23 Si    c       0.000102      0.000014      0.000005      0.000000
     24 Si    c       0.000074     -0.000008     -0.000033      0.000000
     25 O2    c      -0.000002      0.000028      0.000027      0.000000
     26 O2    c      -0.000226      0.000008     -0.000127      0.000000
     27 O2    c      -0.000085      0.000046     -0.000012      0.000000
     28 O2    c       0.000041     -0.000366     -0.000004      0.000000
     29 O2    c      -0.000087     -0.000058     -0.000037      0.000000
     30 O2    c       0.000148      0.000251     -0.000085      0.000000
     31 O2    c       0.000101     -0.000059     -0.000010      0.000000
     32 O2    c      -0.000773      0.000200      0.000009      0.000000
     33 O2    c      -0.000240     -0.000004      0.000279      0.000000
     34 O2    c      -0.009154      0.000167     -0.003413      0.000000
     35 O2    c       0.000135     -0.000022      0.000256      0.000000
     36 O3    c       0.003993     -0.001675     -0.003234      0.000000
     37 O2    c       0.000108     -0.000009      0.000137      0.000000
     38 O2    c      -0.000205      0.000942     -0.004503      0.000000
     39 O1    c      -0.000088      0.000049      0.000337      0.000000
     40 O2    c      -0.000198     -0.000074      0.000021      0.000000
     41 O2    c      -0.000357      0.000483      0.000067      0.000000
     42 O2    c       0.000092     -0.000048      0.000054      0.000000
     43 O2    c       0.000026     -0.000847     -0.000010      0.000000
     44 O2    c      -0.000090     -0.000094     -0.000053      0.000000
     45 O1    c      -0.000105      0.000402     -0.000293      0.000000
     46 O2    c      -0.000001      0.000104      0.000018      0.000000
     47 O3    c       0.004858      0.003235     -0.002142      0.000000
     48 O2    c      -0.000040     -0.000024      0.000052      0.000000
     49 O2    c      -0.000019     -0.000030      0.000002      0.000000
     50 O2    c      -0.000033     -0.000013     -0.000026      0.000000
     51 O2    c       0.000063     -0.000105     -0.000028      0.000000
     52 O2    c      -0.000163      0.000146     -0.000027      0.000000
     53 O2    c      -0.000141      0.000004      0.000043      0.000000
     54 O2    c       0.000203      0.000005      0.000004      0.000000
     55 O2    c       0.000161     -0.000005     -0.000093      0.000000
     56 O2    c      -0.000166      0.000009     -0.000064      0.000000
     57 O2    c      -0.000113     -0.000010      0.000056      0.000000
     58 O2    c      -0.000049     -0.000055     -0.000088      0.000000
     59 O2    c       0.000039     -0.000012      0.000016      0.000000
     60 O3    c      -0.000088     -0.000151     -0.000051      0.000000
     61 O2    c       0.000085     -0.000008      0.000049      0.000000
     62 O3    c       0.000643      0.000164     -0.000089      0.000000
     63 O2    c      -0.000074      0.000007     -0.000076      0.000000
     64 O2    c       0.000265     -0.000037     -0.000170      0.000000
     65 O1    c      -0.000328     -0.000042      0.000095      0.000000
     66 O2    c       0.000006      0.000007      0.000004      0.000000
     67 O2    c       0.000108     -0.000027     -0.000045      0.000000
     68 O2    c       0.000012      0.000034     -0.000009      0.000000
     69 O3    c       0.000227     -0.000025      0.000084      0.000000
     70 O3    c      -0.000061      0.000076      0.000046      0.000000
     71 O2    c       0.000247     -0.000028     -0.000041      0.000000
     72 O2    c      -0.000135      0.000021     -0.000050      0.000000
     73 O2    s       0.000097      0.000025     -0.000018      0.000000
     74 O2    s       0.001269      0.000323     -0.000157      0.000000
     75 O2    s       0.000029      0.000026      0.000006      0.000000
     76 O2    s       0.001872     -0.000317      0.000092      0.000000
     77 O2    s       0.000104      0.000004      0.000014      0.000000
     78 O2    s       0.001524      0.000138      0.000250      0.000000
     79 O2    s       0.000000      0.000005      0.000017      0.000000
     80 O2    s       0.001383     -0.000340     -0.000050      0.000000
     81 O2    s       0.000128     -0.000018     -0.000065      0.000000
     82 O2    s       0.001110     -0.000248     -0.001235      0.000000
     83 O2    s      -0.000025     -0.000009     -0.000046      0.000000
     84 O3    s      -0.002583      0.000310      0.002593      0.000000
     85 O2    s       0.000031      0.000015     -0.000050      0.000000
     86 O2    s      -0.000321      0.000453     -0.000566      0.000000
     87 O1    s       0.000770     -0.000022     -0.000403      0.000000
     88 O2    s      -0.000018     -0.000039     -0.000008      0.000000
     89 O2    s      -0.003261      0.000440     -0.000032      0.000000
     90 O2    s      -0.000088      0.000020     -0.000011      0.000000
     91 O2    s      -0.002726     -0.000773      0.000651      0.000000
     92 O2    s      -0.000139      0.000022     -0.000046      0.000000
     93 O1    s      -0.000260     -0.000276      0.000782      0.000000
     94 O2    s       0.000005      0.000040      0.000005      0.000000
     95 O3    s       0.001515     -0.001074      0.003094      0.000000
     96 O2    s       0.000202     -0.000001     -0.000083      0.000000
     97 O2    s      -0.000026     -0.000022      0.000067      0.000000
     98 O2    s       0.000150      0.000052      0.000115      0.000000
     99 O2    s       0.000008     -0.000010     -0.000000      0.000000
    100 O2    s       0.000286     -0.000017      0.000071      0.000000
    101 O2    s       0.000084     -0.000036     -0.000001      0.000000
    102 O2    s       0.000173      0.000052      0.000077      0.000000
    103 O2    s       0.000062     -0.000058      0.000100      0.000000
    104 O2    s       0.000004      0.000045      0.000126      0.000000
    105 O2    s       0.000047     -0.000034      0.000073      0.000000
    106 O2    s       0.000379      0.000180      0.000421      0.000000
    107 O2    s      -0.000082      0.000006     -0.000028      0.000000
    108 O3    s       0.000215      0.000345      0.000094      0.000000
    109 O2    s      -0.000106      0.000034      0.000013      0.000000
    110 O3    s      -0.001502     -0.000575      0.000538      0.000000
    111 O2    s      -0.000036      0.000033      0.000006      0.000000
    112 O2    s      -0.000438      0.000012      0.000402      0.000000
    113 O1    s       0.000554     -0.000071     -0.000180      0.000000
    114 O2    s      -0.000111     -0.000014      0.000009      0.000000
    115 O2    s      -0.000296      0.000053      0.000088      0.000000
    116 O2    s      -0.000148      0.000046     -0.000061      0.000000
    117 O3    s      -0.000295      0.000003     -0.000078      0.000000
    118 O3    s       0.000068     -0.000034     -0.000073      0.000000
    119 O2    s      -0.000242     -0.000025     -0.000000      0.000000
    120 O2    s      -0.000266      0.000038      0.000048      0.000000
--------------------------------------------------------------------------------
  Maximum abs         0.009154      0.003235      0.004503      0.000000
--------------------------------------------------------------------------------


  Born effective charge tensors : 

-------------------------------------------------------------------------------
  Atom             x           y             z
-------------------------------------------------------------------------------
    1 Ge    x       4.2675     -0.4010     -0.4087
            y       0.2525      3.8705     -0.0081
            z      -0.5800      0.1374      3.9065
-------------------------------------------------------------------------------
    2 Ge    x       4.0051      0.5136     -0.1737
            y       0.0066      4.2338     -0.3136
            z      -0.1918     -0.1568      3.4469
-------------------------------------------------------------------------------
    3 Ge    x       4.2137     -0.2533     -0.2772
            y      -0.2556      4.2104      0.2802
            z      -0.3959      0.0043      3.3984
-------------------------------------------------------------------------------
    4 Si    x       3.4257      0.0984     -0.2149
            y      -0.1216      3.2367      0.0193
            z      -0.5055     -0.0083      3.8521
-------------------------------------------------------------------------------
    5 Si    x       3.6559      0.1026      0.2291
            y      -0.1279      3.2819      0.0161
            z       0.2373      0.0011      3.9706
-------------------------------------------------------------------------------
    6 Si    x       3.4664     -0.1911     -0.2300
            y       0.1378      3.2206     -0.0006
            z      -0.4153      0.1070      3.8706
-------------------------------------------------------------------------------
    7 Si    x       3.5072     -0.1628      0.0850
            y       0.1013      3.1960     -0.0198
            z       0.6116      0.0273      3.6565
-------------------------------------------------------------------------------
    8 Si    x       3.3908     -0.1822      0.2433
            y       0.2450      3.2086     -0.0360
            z       0.4742     -0.0525      3.1327
-------------------------------------------------------------------------------
    9 Si    x       3.6441      0.2068     -0.0865
            y      -0.1536      3.3073      0.0256
            z      -0.4737      0.0278      3.2994
-------------------------------------------------------------------------------
   10 Si    x       3.4256      0.1628      0.2547
            y      -0.1762      3.2500      0.0137
            z       0.5331      0.0114      3.1417
-------------------------------------------------------------------------------
   11 Si    x       3.1828      0.2046     -0.0618
            y       0.2794      3.4343     -0.1681
            z      -0.0925     -0.0770      2.8158
-------------------------------------------------------------------------------
   12 Si    x       3.1755      0.1933      0.0775
            y       0.2628      3.4065      0.1673
            z       0.1106      0.0847      2.8312
-------------------------------------------------------------------------------
   13 Si    x       3.2041     -0.2570      0.0015
            y      -0.3080      3.4634      0.2089
            z      -0.1149      0.0764      2.7941
-------------------------------------------------------------------------------
   14 Si    x       3.3290     -0.2978     -0.0215
            y      -0.3330      3.5640     -0.1615
            z       0.0729      0.0285      3.0678
-------------------------------------------------------------------------------
   15 Si    x       3.2061      0.3400     -0.0763
            y       0.1329      3.4800     -0.1382
            z      -0.1464     -0.0720      2.7854
-------------------------------------------------------------------------------
   16 Si    x       3.3511      0.3738      0.1198
            y       0.1785      3.5779      0.0892
            z       0.1587     -0.1214      2.9789
-------------------------------------------------------------------------------
   17 Si    x       3.2012     -0.2850     -0.1239
            y      -0.1993      3.4666      0.1633
            z      -0.1039      0.0691      2.8178
-------------------------------------------------------------------------------
   18 Si    x       3.1681     -0.2691      0.1483
            y      -0.1815      3.4663     -0.1715
            z       0.1419     -0.0898      2.8416
-------------------------------------------------------------------------------
   19 Si    x       3.5725      0.4360      0.0081
            y       0.0698      3.4999      0.1961
            z       0.0545      0.0762      2.8230
-------------------------------------------------------------------------------
   20 Si    x       3.2130     -0.2946     -0.1799
            y      -0.0881      3.4341      0.1844
            z      -0.1240      0.0688      2.7417
-------------------------------------------------------------------------------
   21 Si    x       3.2323     -0.3214      0.2056
            y      -0.1005      3.4442     -0.1863
            z       0.1046     -0.0743      2.7406
-------------------------------------------------------------------------------
   22 Si    x       3.2701      0.2358     -0.1150
            y       0.2625      3.3796     -0.1426
            z      -0.1613     -0.0498      2.7118
-------------------------------------------------------------------------------
   23 Si    x       3.2584      0.2475      0.1555
            y       0.2631      3.4103      0.1823
            z       0.1615      0.0719      2.7236
-------------------------------------------------------------------------------
   24 Si    x       3.5711     -0.2254      0.0084
            y      -0.2157      3.4588     -0.2050
            z       0.1451     -0.0602      2.8084
-------------------------------------------------------------------------------
   25 O2    x      -1.6414     -0.6887      0.3160
            y      -0.6675     -1.9920      0.3235
            z       0.3608      0.3187     -1.3569
-------------------------------------------------------------------------------
   26 O2    x      -1.6133     -0.6523     -0.3730
            y      -0.6153     -1.9775     -0.3967
            z      -0.3899     -0.3960     -1.4101
-------------------------------------------------------------------------------
   27 O2    x      -1.6508      0.7035      0.3065
            y       0.6588     -2.0270     -0.3158
            z       0.3624     -0.3215     -1.3487
-------------------------------------------------------------------------------
   28 O2    x      -1.6864      0.7339     -0.2837
            y       0.6592     -2.0232      0.3053
            z      -0.3620      0.2922     -1.3259
-------------------------------------------------------------------------------
   29 O2    x      -1.7823     -0.7157      0.3283
            y      -0.7646     -1.9499      0.3543
            z       0.3708      0.3299     -1.3339
-------------------------------------------------------------------------------
   30 O2    x      -1.8091     -0.7189     -0.2483
            y      -0.7318     -1.8879     -0.2519
            z      -0.3369     -0.2528     -1.3342
-------------------------------------------------------------------------------
   31 O2    x      -1.7582      0.7142      0.3373
            y       0.7625     -1.9368     -0.3523
            z       0.3664     -0.3214     -1.3586
-------------------------------------------------------------------------------
   32 O2    x      -1.7133      0.6975     -0.4086
            y       0.7312     -1.9539      0.4059
            z      -0.4114      0.3795     -1.3926
-------------------------------------------------------------------------------
   33 O2    x      -1.5978      0.0429      0.8491
            y       0.0105     -1.0926     -0.0327
            z       1.0416     -0.0853     -2.8442
-------------------------------------------------------------------------------
   34 O2    x      -1.7119      0.0185     -0.8265
            y       0.0051     -1.0837     -0.0004
            z      -1.0808      0.0104     -2.6219
-------------------------------------------------------------------------------
   35 O2    x      -1.6448      0.0173     -0.7280
            y      -0.0208     -1.1207      0.0060
            z      -0.6793      0.0157     -2.2830
-------------------------------------------------------------------------------
   36 O3    x      -2.0706      0.0626      0.8770
            y       0.0084     -1.2446     -0.0811
            z       0.8914     -0.1406     -2.6160
-------------------------------------------------------------------------------
   37 O2    x      -1.7279      0.0232     -0.7491
            y       0.0188     -1.1126      0.0079
            z      -0.7578      0.0141     -2.2495
-------------------------------------------------------------------------------
   38 O2    x      -1.7153      0.0166      0.7376
            y       0.0200     -1.1369     -0.0378
            z       0.7131     -0.0517     -2.2198
-------------------------------------------------------------------------------
   39 O1    x      -2.3621     -0.8110      0.5445
            y      -0.7697     -2.2239      0.5960
            z       0.4701      0.5026     -1.6497
-------------------------------------------------------------------------------
   40 O2    x      -1.7669     -0.6884     -0.3088
            y      -0.6507     -1.9048     -0.3450
            z      -0.3265     -0.3339     -1.2496
-------------------------------------------------------------------------------
   41 O2    x      -1.7553      0.6840      0.3498
            y       0.6684     -1.8913     -0.3597
            z       0.3509     -0.3222     -1.2633
-------------------------------------------------------------------------------
   42 O2    x      -1.7424      0.6853     -0.3476
            y       0.6704     -1.8910      0.3776
            z      -0.3300      0.3343     -1.2807
-------------------------------------------------------------------------------
   43 O2    x      -1.6665     -0.6601      0.3389
            y      -0.5735     -2.0167      0.3621
            z       0.3806      0.3500     -1.2442
-------------------------------------------------------------------------------
   44 O2    x      -1.6252     -0.6696     -0.3605
            y      -0.5789     -2.0225     -0.3951
            z      -0.3773     -0.3746     -1.2650
-------------------------------------------------------------------------------
   45 O1    x      -2.0857      0.8218      0.5520
            y       0.6603     -2.5028     -0.5175
            z       0.5566     -0.4821     -1.6027
-------------------------------------------------------------------------------
   46 O2    x      -1.6121      0.6579     -0.3328
            y       0.5079     -2.0360      0.3730
            z      -0.3441      0.3472     -1.2267
-------------------------------------------------------------------------------
   47 O3    x      -2.0491      0.0196     -0.7781
            y      -0.0035     -1.3846      0.0401
            z      -0.4644      0.0565     -2.1320
-------------------------------------------------------------------------------
   48 O2    x      -1.7715      0.0147      0.5875
            y       0.0114     -1.2113     -0.0110
            z       0.3177      0.0077     -1.6756
-------------------------------------------------------------------------------
   49 O2    x      -1.1544     -0.0450      0.0578
            y      -0.0861     -2.5634      0.0014
            z       0.0676     -0.0094     -1.0632
-------------------------------------------------------------------------------
   50 O2    x      -1.1539     -0.0538     -0.0653
            y      -0.0898     -2.5595     -0.0138
            z      -0.0758     -0.0008     -1.0739
-------------------------------------------------------------------------------
   51 O2    x      -1.1818      0.0736      0.0446
            y       0.1577     -2.5486     -0.0573
            z       0.0788     -0.0146     -1.0614
-------------------------------------------------------------------------------
   52 O2    x      -1.2293      0.0816     -0.0210
            y       0.1586     -2.5986     -0.0587
            z      -0.0504     -0.0609     -1.0349
-------------------------------------------------------------------------------
   53 O2    x      -2.3801      0.0943     -0.0307
            y       0.0394     -1.2539      0.0691
            z      -0.0221      0.0489     -1.0673
-------------------------------------------------------------------------------
   54 O2    x      -2.3891      0.0952     -0.0369
            y       0.0487     -1.2528     -0.0655
            z      -0.0501     -0.0436     -1.0645
-------------------------------------------------------------------------------
   55 O2    x      -2.3983     -0.1354     -0.0385
            y      -0.0861     -1.2553     -0.0739
            z      -0.0164     -0.0301     -1.0862
-------------------------------------------------------------------------------
   56 O2    x      -2.4074     -0.1232     -0.0134
            y      -0.0509     -1.2642      0.0676
            z      -0.0454      0.0311     -1.0751
-------------------------------------------------------------------------------
   57 O2    x      -1.1999     -0.1262     -0.0171
            y      -0.1265     -1.2739      0.0009
            z      -0.0220      0.0118     -2.0626
-------------------------------------------------------------------------------
   58 O2    x      -1.2303     -0.1351      0.0552
            y      -0.1408     -1.2763     -0.0013
            z       0.0745     -0.0089     -2.0668
-------------------------------------------------------------------------------
   59 O2    x      -1.1956      0.1136     -0.0949
            y       0.1068     -1.2918      0.0084
            z      -0.1062     -0.0141     -2.0912
-------------------------------------------------------------------------------
   60 O3    x      -1.3729      0.1599      0.1040
            y       0.1388     -1.4617     -0.0215
            z       0.1134      0.0415     -2.5738
-------------------------------------------------------------------------------
   61 O2    x      -1.1746     -0.1123     -0.0844
            y      -0.0409     -1.3031      0.0253
            z      -0.0327      0.0141     -2.0795
-------------------------------------------------------------------------------
   62 O3    x      -1.3482     -0.1523     -0.0220
            y      -0.0710     -1.4998      0.1910
            z      -0.0448      0.1894     -2.5148
-------------------------------------------------------------------------------
   63 O2    x      -1.1784      0.1300      0.0017
            y       0.0945     -1.2913     -0.0102
            z       0.0189      0.0081     -2.0703
-------------------------------------------------------------------------------
   64 O2    x      -1.1662      0.1211      0.0403
            y       0.0862     -1.2978      0.0238
            z       0.0341      0.0074     -2.0838
-------------------------------------------------------------------------------
   65 O1    x      -1.6202      0.1616      0.1126
            y       0.2428     -3.1587     -0.0664
            z       0.1650     -0.0737     -1.2110
-------------------------------------------------------------------------------
   66 O2    x      -1.2619      0.1068     -0.0708
            y       0.2083     -2.4459     -0.0584
            z      -0.1045     -0.0228     -1.0338
-------------------------------------------------------------------------------
   67 O2    x      -1.2353     -0.0645      0.0850
            y      -0.1347     -2.4998     -0.0233
            z       0.1016     -0.0070     -1.0164
-------------------------------------------------------------------------------
   68 O2    x      -1.2175     -0.0524     -0.0932
            y      -0.1275     -2.5060      0.0013
            z      -0.0972     -0.0098     -1.0205
-------------------------------------------------------------------------------
   69 O3    x      -2.9601     -0.3341      0.0775
            y      -0.2337     -1.4141      0.0716
            z       0.1130      0.0407     -1.2222
-------------------------------------------------------------------------------
   70 O3    x      -3.0758     -0.2695      0.1347
            y      -0.1538     -1.3776     -0.0591
            z       0.1188     -0.0045     -1.2343
-------------------------------------------------------------------------------
   71 O2    x      -2.4157      0.0911     -0.0280
            y       0.0544     -1.2416     -0.0640
            z      -0.0234     -0.0341     -1.0349
-------------------------------------------------------------------------------
   72 O2    x      -2.4305      0.0916     -0.0440
            y       0.0576     -1.2414      0.0630
            z      -0.0173      0.0353     -1.0302
-------------------------------------------------------------------------------




  Elastic Constant Matrix: (Units=GPa)

-------------------------------------------------------------------------------
  Indices      1         2         3         4         5         6    
-------------------------------------------------------------------------------
       1     54.5270   28.3003   29.9466    2.0247    3.9191   -1.8974
       2     28.3003   77.6408   20.8614    1.4959    3.8906   -1.8481
       3     29.9466   20.8614   46.4425    0.5848    0.6156   -1.7160
       4      2.0247    1.4959    0.5848   13.0089   -1.3320    0.4168
       5      3.9191    3.8906    0.6156   -1.3320   23.8702    1.8712
       6     -1.8974   -1.8481   -1.7160    0.4168    1.8712   30.9808
-------------------------------------------------------------------------------


  Elastic Compliance Matrix: (Units=1/GPa)

-------------------------------------------------------------------------------
  Indices      1         2         3         4         5         6    
-------------------------------------------------------------------------------
       1    0.031783 -0.006619 -0.017387 -0.003839 -0.003974  0.000880
       2   -0.006619  0.016194 -0.002956 -0.000875 -0.001565  0.000503
       3   -0.017387 -0.002956  0.034033  0.001759  0.002520  0.000468
       4   -0.003839 -0.000875  0.001759  0.078073  0.005206 -0.001555
       5   -0.003974 -0.001565  0.002520  0.005206  0.043252 -0.002880
       6    0.000880  0.000503  0.000468 -0.001555 -0.002880  0.032583
-------------------------------------------------------------------------------

  Mechanical properties :

-------------------------------------------------------------------------------
  Convention :                    Reuss         Voigt         Hill
-------------------------------------------------------------------------------
  Bulk  Modulus (GPa)     =      35.60526      37.42519      36.51522
  Shear Modulus (GPa)     =      16.71107      20.20545      18.45826
-------------------------------------------------------------------------------
  Velocity S-wave (km/s)  =       2.91205       3.20207       3.06050
  Velocity P-wave (km/s)  =       5.41984       5.71511       5.56943
-------------------------------------------------------------------------------
  Compressibility (1/GPa) =    0.02808574
-------------------------------------------------------------------------------
  Stress axis :                     x             y             z
-------------------------------------------------------------------------------
  Youngs Moduli (GPa)     =      31.46343      61.75154      29.38347
-------------------------------------------------------------------------------
  Poissons Ratio (x)      =                     0.40874       0.51089
  Poissons Ratio (y)      =       0.20826                     0.08685
  Poissons Ratio (z)      =       0.54706       0.18252
-------------------------------------------------------------------------------


  Piezoelectric Strain Matrix: (Units=C/m**2)

-------------------------------------------------------------------------------
  Indices      1         2         3         4         5         6    
-------------------------------------------------------------------------------
       x     0.32014   0.31222  -0.39629  -0.39559  -0.16695   0.19350
       y     0.89076  -0.20623  -0.80072  -0.53759  -0.71071   0.12517
       z    -0.24804  -0.35883   0.82245   0.11309   0.04591  -0.09352
-------------------------------------------------------------------------------


  Piezoelectric Stress Matrix: (Units=10**-11 C/N)

-------------------------------------------------------------------------------
  Indices      1         2         3         4         5         6    
-------------------------------------------------------------------------------
       x     1.73511   0.48133  -2.10019  -3.42542  -1.25969   0.76540
       y     4.85969  -0.52234  -4.48073  -5.05137  -3.91342   0.72665
       z    -2.05073  -0.68179   3.36344   1.19269   0.64638  -0.33693
-------------------------------------------------------------------------------


  Static dielectric constant tensor : 

-------------------------------------------------------------------------------
              x         y         z
-------------------------------------------------------------------------------
       x     3.97960   0.00196  -0.06762
       y     0.00196   4.23170  -0.02446
       z    -0.06762  -0.02446   3.18856
--------------------------------------------------------------------------------

  High frequency dielectric constant tensor : 

-------------------------------------------------------------------------------
              x         y         z
-------------------------------------------------------------------------------
       x     1.68452  -0.00082   0.00214
       y    -0.00082   1.69194   0.00068
       z     0.00214   0.00068   1.62607
-------------------------------------------------------------------------------

  Static refractive indices : 

-------------------------------------------------------------------------------
    1 =    1.78389      2 =    1.99631      3 =    2.05726
-------------------------------------------------------------------------------

  High frequency refractive indices : 

-------------------------------------------------------------------------------
    1 =    1.27514      2 =    1.29789      3 =    1.30078
-------------------------------------------------------------------------------


  Time to end of optimisation =      12.7328 seconds


  Peak dynamic memory used =       5.01 MB 


  Timing analysis for GULP :

--------------------------------------------------------------------------------
  Task / Subroutine                                          Time (Seconds)
--------------------------------------------------------------------------------
  Calculation of reciprocal space energy and derivatives          0.7617
  Calculation of real space energy and derivatives                7.9263
  Calculation of three-body energy and derivatives                0.8759
  Calculation and manipulation of Hessian matrix                  3.7474
  Calculation of matrix inversion                                 0.0333
  Global summation overhead                                       0.0002
--------------------------------------------------------------------------------
  Total CPU time                                                 12.7328
--------------------------------------------------------------------------------


  Dump file written as c00188.vasp.grs
  CIF file written as c00188.vasp.cif


  Job Finished at 11:59.59  7th October    2025                               

