********************************************************************************
*                       GENERAL UTILITY LATTICE PROGRAM                        *
*                                 Julian Gale                                  *
*                       Curtin Institute for Computation                       *
*                    School of Molecular and Life Sciences                     *
*                    Curtin University, Western Australia                      *
********************************************************************************
* Version = 6.1.2 * Last modified =   3rd November 2022                        *
********************************************************************************
*  optimise     - perform optimisation run                                     *
*  conp         - constant pressure calculation                                *
*  property     - calculate properties for final geometry                      *
********************************************************************************

  Job Started  at 11:48.36  7th October    2025                               

  Number of CPUs =     1


  Total number of configurations input =      1

********************************************************************************
*  Input for Configuration =   1 : c00128.vasp                                 *
********************************************************************************

  Formula = Ge3Si21O48                                                  

  Number of irreducible atoms/shells =     120


  Total number atoms/shells =     120

  Dimensionality = 3               :  Bulk   



  Cartesian lattice vectors (Angstroms) :

       17.182800    0.000000    0.000000
        0.000000    7.513760    0.000000
        0.000000    0.000000   10.447700

  Cell parameters (Angstroms/Degrees):

  a =      17.1828    alpha =  90.0000
  b =       7.5138    beta  =  90.0000
  c =      10.4477    gamma =  90.0000

  Initial cell volume =        1348.875752 Angs**3

  Temperature of configuration =   0.00     K 

  Pressure of configuration =         0.000 GPa 

  Fractional coordinates of asymmetric unit :

--------------------------------------------------------------------------------
   No.  Atomic       x           y          z         Charge      Occupancy
        Label      (Frac)      (Frac)     (Frac)        (e)         (Frac)  
--------------------------------------------------------------------------------
      1 Ge    c    0.556730    0.000000    0.122130     4.00000    1.000000    
      2 Ge    c    0.443270 *  0.000000 *  0.877870 *   4.00000    1.000000    
      3 Ge    c    0.339810 *  0.706090 *  0.273440 *   4.00000    1.000000    
      4 Si    c    0.052090 *  0.000000 *  0.372270 *   4.00000    1.000000    
      5 Si    c    0.447910 *  0.000000 *  0.372270 *   4.00000    1.000000    
      6 Si    c    0.947910 *  0.000000 *  0.627730 *   4.00000    1.000000    
      7 Si    c    0.552090 *  0.000000 *  0.627730 *   4.00000    1.000000    
      8 Si    c    0.943270 *  0.000000 *  0.122130 *   4.00000    1.000000    
      9 Si    c    0.056730 *  0.000000 *  0.877870 *   4.00000    1.000000    
     10 Si    c    0.160190 *  0.293910 *  0.273440 *   4.00000    1.000000    
     11 Si    c    0.839810 *  0.293910 *  0.726560 *   4.00000    1.000000    
     12 Si    c    0.660190 *  0.706090 *  0.726560 *   4.00000    1.000000    
     13 Si    c    0.839810 *  0.706090 *  0.726560 *   4.00000    1.000000    
     14 Si    c    0.660190 *  0.293910 *  0.726560 *   4.00000    1.000000    
     15 Si    c    0.160190 *  0.706090 *  0.273440 *   4.00000    1.000000    
     16 Si    c    0.339810 *  0.293910 *  0.273440 *   4.00000    1.000000    
     17 Si    c    0.660660 *  0.294090 *  0.017440 *   4.00000    1.000000    
     18 Si    c    0.839340 *  0.705910 *  0.017440 *   4.00000    1.000000    
     19 Si    c    0.339340 *  0.294090 *  0.982560 *   4.00000    1.000000    
     20 Si    c    0.160660 *  0.705910 *  0.982560 *   4.00000    1.000000    
     21 Si    c    0.339340 *  0.705910 *  0.982560 *   4.00000    1.000000    
     22 Si    c    0.160660 *  0.294090 *  0.982560 *   4.00000    1.000000    
     23 Si    c    0.660660 *  0.705910 *  0.017440 *   4.00000    1.000000    
     24 Si    c    0.839340 *  0.294090 *  0.017440 *   4.00000    1.000000    
     25 O2    c    0.106570 *  0.174340 *  0.366200 *   0.87073    1.000000    
     26 O3    c    0.393430 *  0.825660 *  0.366200 *   1.33043    1.000000    
     27 O2    c    0.893430 *  0.174340 *  0.633800 *   0.87073    1.000000    
     28 O2    c    0.606570 *  0.825660 *  0.633800 *   0.87073    1.000000    
     29 O2    c    0.893430 *  0.825660 *  0.633800 *   0.87073    1.000000    
     30 O2    c    0.606570 *  0.174340 *  0.633800 *   0.87073    1.000000    
     31 O2    c    0.106570 *  0.825660 *  0.366200 *   0.87073    1.000000    
     32 O2    c    0.393430 *  0.174340 *  0.366200 *   0.87073    1.000000    
     33 O2    c    0.000000 *  0.000000 *  0.500000 *   0.87073    1.000000    
     34 O2    c    0.500000 *  0.000000 *  0.500000 *   0.87073    1.000000    
     35 O2    c    0.994520 *  0.000000 *  0.250840 *   0.87073    1.000000    
     36 O3    c    0.505480 *  0.000000 *  0.250840 *   1.33043    1.000000    
     37 O2    c    0.005480 *  0.000000 *  0.749160 *   0.87073    1.000000    
     38 O3    c    0.494520 *  0.000000 *  0.749160 *   1.33043    1.000000    
     39 O3    c    0.610230 *  0.175520 *  0.115390 *   1.33043    1.000000    
     40 O2    c    0.889770 *  0.824480 *  0.115390 *   0.87073    1.000000    
     41 O3    c    0.389770 *  0.175520 *  0.884610 *   1.33043    1.000000    
     42 O2    c    0.110230 *  0.824480 *  0.884610 *   0.87073    1.000000    
     43 O3    c    0.389770 *  0.824480 *  0.884610 *   1.33043    1.000000    
     44 O2    c    0.110230 *  0.175520 *  0.884610 *   0.87073    1.000000    
     45 O3    c    0.610230 *  0.824480 *  0.115390 *   1.33043    1.000000    
     46 O2    c    0.889770 *  0.175520 *  0.115390 *   0.87073    1.000000    
     47 O1    c    0.500000 *  0.000000 *  0.000000 *   1.73396    1.000000    
     48 O2    c    0.000000 *  0.000000 *  0.000000 *   0.87073    1.000000    
     49 O2    c    0.151750 *  0.500000 *  0.313330 *   0.87073    1.000000    
     50 O3    c    0.348250 *  0.500000 *  0.313330 *   1.33043    1.000000    
     51 O2    c    0.848250 *  0.500000 *  0.686670 *   0.87073    1.000000    
     52 O2    c    0.651750 *  0.500000 *  0.686670 *   0.87073    1.000000    
     53 O2    c    0.250000 *  0.234950 *  0.285720 *   0.87073    1.000000    
     54 O3    c    0.250000 *  0.765050 *  0.285720 *   1.33043    1.000000    
     55 O2    c    0.750000 *  0.234950 *  0.714280 *   0.87073    1.000000    
     56 O2    c    0.750000 *  0.765050 *  0.714280 *   0.87073    1.000000    
     57 O2    c    0.131410 *  0.268650 *  0.127790 *   0.87073    1.000000    
     58 O3    c    0.368590 *  0.731350 *  0.127790 *   1.33043    1.000000    
     59 O2    c    0.868590 *  0.268650 *  0.872210 *   0.87073    1.000000    
     60 O2    c    0.631410 *  0.731350 *  0.872210 *   0.87073    1.000000    
     61 O2    c    0.868590 *  0.731350 *  0.872210 *   0.87073    1.000000    
     62 O2    c    0.631410 *  0.268650 *  0.872210 *   0.87073    1.000000    
     63 O2    c    0.131410 *  0.731350 *  0.127790 *   0.87073    1.000000    
     64 O2    c    0.368590 *  0.268650 *  0.127790 *   0.87073    1.000000    
     65 O2    c    0.653920 *  0.500000 *  0.058200 *   0.87073    1.000000    
     66 O2    c    0.846080 *  0.500000 *  0.058200 *   0.87073    1.000000    
     67 O2    c    0.346080 *  0.500000 *  0.941800 *   0.87073    1.000000    
     68 O2    c    0.153920 *  0.500000 *  0.941800 *   0.87073    1.000000    
     69 O2    c    0.750000 *  0.231060 *  0.027050 *   0.87073    1.000000    
     70 O2    c    0.750000 *  0.768940 *  0.027050 *   0.87073    1.000000    
     71 O2    c    0.250000 *  0.231060 *  0.972950 *   0.87073    1.000000    
     72 O2    c    0.250000 *  0.768940 *  0.972950 *   0.87073    1.000000    
     73 O2    s    0.106570 *  0.174340 *  0.366200 *  -2.87073    1.000000    
     74 O3    s    0.393430 *  0.825660 *  0.366200 *  -3.33043    1.000000    
     75 O2    s    0.893430 *  0.174340 *  0.633800 *  -2.87073    1.000000    
     76 O2    s    0.606570 *  0.825660 *  0.633800 *  -2.87073    1.000000    
     77 O2    s    0.893430 *  0.825660 *  0.633800 *  -2.87073    1.000000    
     78 O2    s    0.606570 *  0.174340 *  0.633800 *  -2.87073    1.000000    
     79 O2    s    0.106570 *  0.825660 *  0.366200 *  -2.87073    1.000000    
     80 O2    s    0.393430 *  0.174340 *  0.366200 *  -2.87073    1.000000    
     81 O2    s    0.000000 *  0.000000 *  0.500000 *  -2.87073    1.000000    
     82 O2    s    0.500000 *  0.000000 *  0.500000 *  -2.87073    1.000000    
     83 O2    s    0.994520 *  0.000000 *  0.250840 *  -2.87073    1.000000    
     84 O3    s    0.505480 *  0.000000 *  0.250840 *  -3.33043    1.000000    
     85 O2    s    0.005480 *  0.000000 *  0.749160 *  -2.87073    1.000000    
     86 O3    s    0.494520 *  0.000000 *  0.749160 *  -3.33043    1.000000    
     87 O3    s    0.610230 *  0.175520 *  0.115390 *  -3.33043    1.000000    
     88 O2    s    0.889770 *  0.824480 *  0.115390 *  -2.87073    1.000000    
     89 O3    s    0.389770 *  0.175520 *  0.884610 *  -3.33043    1.000000    
     90 O2    s    0.110230 *  0.824480 *  0.884610 *  -2.87073    1.000000    
     91 O3    s    0.389770 *  0.824480 *  0.884610 *  -3.33043    1.000000    
     92 O2    s    0.110230 *  0.175520 *  0.884610 *  -2.87073    1.000000    
     93 O3    s    0.610230 *  0.824480 *  0.115390 *  -3.33043    1.000000    
     94 O2    s    0.889770 *  0.175520 *  0.115390 *  -2.87073    1.000000    
     95 O1    s    0.500000 *  0.000000 *  0.000000 *  -3.73396    1.000000    
     96 O2    s    0.000000 *  0.000000 *  0.000000 *  -2.87073    1.000000    
     97 O2    s    0.151750 *  0.500000 *  0.313330 *  -2.87073    1.000000    
     98 O3    s    0.348250 *  0.500000 *  0.313330 *  -3.33043    1.000000    
     99 O2    s    0.848250 *  0.500000 *  0.686670 *  -2.87073    1.000000    
    100 O2    s    0.651750 *  0.500000 *  0.686670 *  -2.87073    1.000000    
    101 O2    s    0.250000 *  0.234950 *  0.285720 *  -2.87073    1.000000    
    102 O3    s    0.250000 *  0.765050 *  0.285720 *  -3.33043    1.000000    
    103 O2    s    0.750000 *  0.234950 *  0.714280 *  -2.87073    1.000000    
    104 O2    s    0.750000 *  0.765050 *  0.714280 *  -2.87073    1.000000    
    105 O2    s    0.131410 *  0.268650 *  0.127790 *  -2.87073    1.000000    
    106 O3    s    0.368590 *  0.731350 *  0.127790 *  -3.33043    1.000000    
    107 O2    s    0.868590 *  0.268650 *  0.872210 *  -2.87073    1.000000    
    108 O2    s    0.631410 *  0.731350 *  0.872210 *  -2.87073    1.000000    
    109 O2    s    0.868590 *  0.731350 *  0.872210 *  -2.87073    1.000000    
    110 O2    s    0.631410 *  0.268650 *  0.872210 *  -2.87073    1.000000    
    111 O2    s    0.131410 *  0.731350 *  0.127790 *  -2.87073    1.000000    
    112 O2    s    0.368590 *  0.268650 *  0.127790 *  -2.87073    1.000000    
    113 O2    s    0.653920 *  0.500000 *  0.058200 *  -2.87073    1.000000    
    114 O2    s    0.846080 *  0.500000 *  0.058200 *  -2.87073    1.000000    
    115 O2    s    0.346080 *  0.500000 *  0.941800 *  -2.87073    1.000000    
    116 O2    s    0.153920 *  0.500000 *  0.941800 *  -2.87073    1.000000    
    117 O2    s    0.750000 *  0.231060 *  0.027050 *  -2.87073    1.000000    
    118 O2    s    0.750000 *  0.768940 *  0.027050 *  -2.87073    1.000000    
    119 O2    s    0.250000 *  0.231060 *  0.972950 *  -2.87073    1.000000    
    120 O2    s    0.250000 *  0.768940 *  0.972950 *  -2.87073    1.000000    
--------------------------------------------------------------------------------



********************************************************************************
*  General input information                                                   *
********************************************************************************

  Species output for all configurations : 

--------------------------------------------------------------------------------
  Species    Type    Atomic    Atomic    Charge       Radii (Angs)     Library
                     Number     Mass       (e)     Cova   Ionic  VDW   Symbol
--------------------------------------------------------------------------------
    Ge       Core       32      72.61   4.000000   1.170  0.000  1.750 Ge       
    Si       Core       14      28.09   4.000000   1.200  0.000  2.100 Si       
    O1       Core        8      16.00   1.733957   0.730  0.000  1.360 O1       
    O2       Core        8      16.00   0.870733   0.730  0.000  1.360 O2       
    O3       Core        8      16.00   1.330431   0.730  0.000  1.360 O3       
    O1       Shell       8       0.00  -3.733957   0.730  0.000  0.000 O1       
    O2       Shell       8       0.00  -2.870733   0.730  0.000  0.000 O2       
    O3       Shell       8       0.00  -3.330431   0.730  0.000  0.000 O3       
--------------------------------------------------------------------------------


  Lattice summation method               =    Ewald          (3-D)
                                         =    Parry          (2-D)
                                         =    Saunders et al (1-D)
  Accuracy factor for lattice sums       =   12.000


  Analytic derivatives to be used

  Time limit = Infinity

  Maximum range for interatomic potentials =    100000.000000 Angstroms

  General interatomic potentials :

--------------------------------------------------------------------------------
Atom  Types   Potential      Parameter       Value         Units   Cutoffs(Ang)
  1     2                                                            Min /  Max 
--------------------------------------------------------------------------------
Si   c O1   s Buckingham    Buckingham A     1315.2478    eV        0.000 16.000
                            Buckingham rho  0.31775900    Ang       
                            Buckingham C     10.141118    eV*Ang^6  
--------------------------------------------------------------------------------
Si   c O2   s Buckingham    Buckingham A     1315.2478    eV        0.000 16.000
                            Buckingham rho  0.31775900    Ang       
                            Buckingham C     10.141118    eV*Ang^6  
--------------------------------------------------------------------------------
Si   c O3   s Buckingham    Buckingham A     1315.2478    eV        0.000 16.000
                            Buckingham rho  0.31775900    Ang       
                            Buckingham C     10.141118    eV*Ang^6  
--------------------------------------------------------------------------------
Ge   c O1   s Buckingham    Buckingham A     1497.3996    eV        0.000 16.000
                            Buckingham rho  0.32564600    Ang       
                            Buckingham C     16.808599    eV*Ang^6  
--------------------------------------------------------------------------------
Ge   c O2   s Buckingham    Buckingham A     1497.3996    eV        0.000 16.000
                            Buckingham rho  0.32564600    Ang       
                            Buckingham C     16.808599    eV*Ang^6  
--------------------------------------------------------------------------------
Ge   c O3   s Buckingham    Buckingham A     1497.3996    eV        0.000 16.000
                            Buckingham rho  0.32564600    Ang       
                            Buckingham C     16.808599    eV*Ang^6  
--------------------------------------------------------------------------------
O1   s O1   s Buckingham    Buckingham A     22764.000    eV        0.000 16.000
                            Buckingham rho  0.14900000    Ang       
                            Buckingham C     10.937044    eV*Ang^6  
--------------------------------------------------------------------------------
O1   s O2   s Buckingham    Buckingham A     22764.000    eV        0.000 16.000
                            Buckingham rho  0.14900000    Ang       
                            Buckingham C     10.937044    eV*Ang^6  
--------------------------------------------------------------------------------
O1   s O3   s Buckingham    Buckingham A     22764.000    eV        0.000 16.000
                            Buckingham rho  0.14900000    Ang       
                            Buckingham C     10.937044    eV*Ang^6  
--------------------------------------------------------------------------------
O2   s O2   s Buckingham    Buckingham A     22764.000    eV        0.000 16.000
                            Buckingham rho  0.14900000    Ang       
                            Buckingham C     10.937044    eV*Ang^6  
--------------------------------------------------------------------------------
O2   s O3   s Buckingham    Buckingham A     22764.000    eV        0.000 16.000
                            Buckingham rho  0.14900000    Ang       
                            Buckingham C     10.937044    eV*Ang^6  
--------------------------------------------------------------------------------
O3   s O3   s Buckingham    Buckingham A     22764.000    eV        0.000 16.000
                            Buckingham rho  0.14900000    Ang       
                            Buckingham C     10.937044    eV*Ang^6  
--------------------------------------------------------------------------------
O1   c O1   s Spring (c-s)  Spring k 2       180.31577    eV*Ang^-2 0.000  0.800
                            Spring k 4       0.0000000    eV*Ang^-4 
--------------------------------------------------------------------------------
O2   c O2   s Spring (c-s)  Spring k 2       75.969800    eV*Ang^-2 0.000  0.800
                            Spring k 4       0.0000000    eV*Ang^-4 
--------------------------------------------------------------------------------
O3   c O3   s Spring (c-s)  Spring k 2       128.14270    eV*Ang^-2 0.000  0.800
                            Spring k 4       0.0000000    eV*Ang^-4 
--------------------------------------------------------------------------------

  General Three-body potentials :

--------------------------------------------------------------------------------
  Atoms       Potential      Parameter       Value         Units   Cutoffs(Ang)
  1 / 2 / 3                                                          Min /  Max 
--------------------------------------------------------------------------------
Si    core    Harmonic      Three-body cnst  1.2614000    eV*rad^-2 0.000  1.900
O1    shel                  Three-body angl  109.47000    degrees   0.000  1.900
O1    shel                  Three-body k4    0.0000000    eV*rad^-4 0.000  3.500
                            Three-body k3    0.0000000    eV*rad^-3 
--------------------------------------------------------------------------------
Si    core    Harmonic      Three-body cnst  1.2614000    eV*rad^-2 0.000  1.900
O1    shel                  Three-body angl  109.47000    degrees   0.000  1.900
õ(1   shel                  Three-body k4    0.0000000    eV*rad^-4 0.000  3.500
                            Three-body k3    0.0000000    eV*rad^-3 
--------------------------------------------------------------------------------
Si    core    Harmonic      Three-body cnst  1.2614000    eV*rad^-2 0.000  1.900
õ(1   shel                  Three-body angl  109.47000    degrees   0.000  1.900
õ(1   shel                  Three-body k4    0.0000000    eV*rad^-4 0.000  3.500
                            Three-body k3    0.0000000    eV*rad^-3 
--------------------------------------------------------------------------------
Si    core    Harmonic      Three-body cnst  1.2614000    eV*rad^-2 0.000  1.900
O1    shel                  Three-body angl  109.47000    degrees   0.000  1.900
O2    shel                  Three-body k4    0.0000000    eV*rad^-4 0.000  3.500
                            Three-body k3    0.0000000    eV*rad^-3 
--------------------------------------------------------------------------------
Si    core    Harmonic      Three-body cnst  1.2614000    eV*rad^-2 0.000  1.900
O1    shel                  Three-body angl  109.47000    degrees   0.000  1.900
õ(2   shel                  Three-body k4    0.0000000    eV*rad^-4 0.000  3.500
                            Three-body k3    0.0000000    eV*rad^-3 
--------------------------------------------------------------------------------
Si    core    Harmonic      Three-body cnst  1.2614000    eV*rad^-2 0.000  1.900
O2    shel                  Three-body angl  109.47000    degrees   0.000  1.900
õ(1   shel                  Three-body k4    0.0000000    eV*rad^-4 0.000  3.500
                            Three-body k3    0.0000000    eV*rad^-3 
--------------------------------------------------------------------------------
Si    core    Harmonic      Three-body cnst  1.2614000    eV*rad^-2 0.000  1.900
õ(1   shel                  Three-body angl  109.47000    degrees   0.000  1.900
õ(2   shel                  Three-body k4    0.0000000    eV*rad^-4 0.000  3.500
                            Three-body k3    0.0000000    eV*rad^-3 
--------------------------------------------------------------------------------
Si    core    Harmonic      Three-body cnst  1.2614000    eV*rad^-2 0.000  1.900
O2    shel                  Three-body angl  109.47000    degrees   0.000  1.900
O2    shel                  Three-body k4    0.0000000    eV*rad^-4 0.000  3.500
                            Three-body k3    0.0000000    eV*rad^-3 
--------------------------------------------------------------------------------
Si    core    Harmonic      Three-body cnst  1.2614000    eV*rad^-2 0.000  1.900
O2    shel                  Three-body angl  109.47000    degrees   0.000  1.900
õ(2   shel                  Three-body k4    0.0000000    eV*rad^-4 0.000  3.500
                            Three-body k3    0.0000000    eV*rad^-3 
--------------------------------------------------------------------------------
Si    core    Harmonic      Three-body cnst  1.2614000    eV*rad^-2 0.000  1.900
õ(2   shel                  Three-body angl  109.47000    degrees   0.000  1.900
õ(2   shel                  Three-body k4    0.0000000    eV*rad^-4 0.000  3.500
                            Three-body k3    0.0000000    eV*rad^-3 
--------------------------------------------------------------------------------

********************************************************************************
*  Output for configuration   1 : c00128.vasp                                  *
********************************************************************************


  Components of energy : 

--------------------------------------------------------------------------------
  Interatomic potentials     =         760.38022786 eV    
  Three-body potentials      =           0.01260273 eV    
  Monopole - monopole (real) =       -2676.00317478 eV    
  Monopole - monopole (recip)=       -1115.35404472 eV    
  Monopole - monopole (total)=       -3791.35721950 eV    
--------------------------------------------------------------------------------
  Total lattice energy       =       -3030.96438891 eV    
--------------------------------------------------------------------------------
  Total lattice energy       =         -292441.7310 kJ/(mole unit cells)
--------------------------------------------------------------------------------


  Number of variables =      363

  Maximum number of calculations  =          1000
  Maximum Hessian update interval =            10
  Maximum step size               =   0.100000000
  Maximum parameter tolerance     =   0.000010000
  Maximum function  tolerance     =   0.000010000
  Maximum gradient  tolerance     =   0.001000000
  Maximum gradient  component     =   0.010000000

  Symmetry not applied to optimisation

  Cell parameters to be optimised using strains

  Newton-Raphson optimiser to be used

  BFGS hessian update to be used

  Lower half triangular hessian to be used

  Minimiser to switch to RFO
  When gradient norm is less than     0.050000

  Dumpfile to be written after every cycle

  Start of bulk optimisation :

  Cycle:      0 Energy:     -3030.964389  Gnorm:      4.346589  CPU:    0.111
  ** Hessian calculated **
  Cycle:      1 Energy:     -3061.723009  Gnorm:      0.961801  CPU:    0.244
  ** Hessian calculated **
  Cycle:      2 Energy:     -3066.122603  Gnorm:      0.392291  CPU:    0.525
  ** Hessian calculated **
  Cycle:      3 Energy:     -3067.107284  Gnorm:      0.235240  CPU:    0.732
  Cycle:      4 Energy:     -3067.440896  Gnorm:      0.141481  CPU:    0.841
  Cycle:      5 Energy:     -3067.510739  Gnorm:      0.110212  CPU:    0.978
  ** Hessian calculated **
  Cycle:      6 Energy:     -3067.667106  Gnorm:      0.057431  CPU:    1.219
  Cycle:      7 Energy:     -3067.723771  Gnorm:      0.031382  CPU:    1.348
  ** Hessian has wrong structure
  ** Imaginary eigenvectors =   2
  Cycle:      8 Energy:     -3067.741240  Gnorm:      0.080978  CPU:    1.644
  ** Hessian has wrong structure
  ** Imaginary eigenvectors =   1
  ** Hessian has required structure
  Cycle:      9 Energy:     -3067.923187  Gnorm:      0.055832  CPU:    2.242
  ** Hessian has required structure
  Cycle:     10 Energy:     -3067.995675  Gnorm:      0.035515  CPU:    2.444
  ** Hessian has required structure
  Cycle:     11 Energy:     -3068.035532  Gnorm:      0.022991  CPU:    2.642
  ** Hessian has required structure
  Cycle:     12 Energy:     -3068.058302  Gnorm:      0.015140  CPU:    2.841
  ** Hessian has required structure
  Cycle:     13 Energy:     -3068.067121  Gnorm:      0.025742  CPU:    3.008
  ** Hessian has required structure
  Cycle:     14 Energy:     -3068.076782  Gnorm:      0.015060  CPU:    3.178
  ** Hessian has required structure
  Cycle:     15 Energy:     -3068.081766  Gnorm:      0.014190  CPU:    3.346
  ** Hessian has required structure
  Cycle:     16 Energy:     -3068.083710  Gnorm:      0.009849  CPU:    3.502
  ** Hessian has required structure
  Cycle:     17 Energy:     -3068.086131  Gnorm:      0.006785  CPU:    3.685
  ** Hessian has required structure
  Cycle:     18 Energy:     -3068.087810  Gnorm:      0.004784  CPU:    3.864
  ** Hessian has required structure
  Cycle:     19 Energy:     -3068.089561  Gnorm:      0.002436  CPU:    4.161
  ** Hessian has required structure
  Cycle:     20 Energy:     -3068.089935  Gnorm:      0.001495  CPU:    4.341
  ** Hessian has required structure
  Cycle:     21 Energy:     -3068.090096  Gnorm:      0.000757  CPU:    4.543
  ** Hessian has required structure
  Cycle:     22 Energy:     -3068.090135  Gnorm:      0.000383  CPU:    4.742
  ** Hessian has required structure
  Cycle:     23 Energy:     -3068.090149  Gnorm:      0.000192  CPU:    4.944
  ** Hessian has required structure
  Cycle:     24 Energy:     -3068.090150  Gnorm:      0.000135  CPU:    5.105
  ** Hessian has required structure
  Cycle:     25 Energy:     -3068.090151  Gnorm:      0.000108  CPU:    5.261
  ** Hessian has required structure
  Cycle:     26 Energy:     -3068.090151  Gnorm:      0.000107  CPU:    5.521
  ** Hessian has required structure
  Cycle:     27 Energy:     -3068.090151  Gnorm:      0.000106  CPU:    5.679
  ** Hessian has required structure
  Cycle:     28 Energy:     -3068.090151  Gnorm:      0.000106  CPU:    5.839
  ** Hessian has required structure
  Cycle:     29 Energy:     -3068.090151  Gnorm:      0.000105  CPU:    6.114
  ** Hessian has required structure
  Cycle:     30 Energy:     -3068.090151  Gnorm:      0.000103  CPU:    6.272
  ** Hessian has required structure
  Cycle:     31 Energy:     -3068.090151  Gnorm:      0.000103  CPU:    6.429
  ** Hessian has required structure
  Cycle:     32 Energy:     -3068.090151  Gnorm:      0.000103  CPU:    6.585
  ** Hessian has required structure
  Cycle:     33 Energy:     -3068.090151  Gnorm:      0.000103  CPU:    6.742
  ** Hessian has required structure
  Cycle:     34 Energy:     -3068.090151  Gnorm:      0.000103  CPU:    6.900
  ** Hessian has required structure
  Cycle:     35 Energy:     -3068.090151  Gnorm:      0.000103  CPU:    7.052
  ** Hessian has required structure
  Cycle:     36 Energy:     -3068.090151  Gnorm:      0.000103  CPU:    7.301
  ** Hessian has required structure
  Cycle:     37 Energy:     -3068.090151  Gnorm:      0.000102  CPU:    7.663
  ** Hessian has required structure
  Cycle:     38 Energy:     -3068.090151  Gnorm:      0.000102  CPU:    7.916
  ** Hessian has required structure
  Cycle:     39 Energy:     -3068.090150  Gnorm:      0.000102  CPU:    8.280
  ** Hessian calculated **
  Cycle:     40 Energy:     -3068.090151  Gnorm:      0.000072  CPU:    8.468
  ** Hessian has required structure
  ** Hessian has required structure


  **** Optimisation achieved ****


  Final energy =   -3068.09015109 eV      
  Final Gnorm  =       0.00005021

  Components of energy : 

--------------------------------------------------------------------------------
  Interatomic potentials     =         816.61189063 eV    
  Three-body potentials      =           0.24685597 eV    
  Monopole - monopole (real) =       -2204.80730891 eV    
  Monopole - monopole (recip)=       -1680.14158878 eV    
  Monopole - monopole (total)=       -3884.94889770 eV    
--------------------------------------------------------------------------------
  Total lattice energy       =       -3068.09015109 eV    
--------------------------------------------------------------------------------
  Total lattice energy       =         -296023.7995 kJ/(mole unit cells)
--------------------------------------------------------------------------------

  Final fractional coordinates of atoms :

--------------------------------------------------------------------------------
   No.  Atomic        x           y          z          Radius
        Label       (Frac)      (Frac)     (Frac)       (Angs) 
--------------------------------------------------------------------------------
     1  Ge    c     0.556730    0.000000    0.122130    0.000000
     2  Ge    c     0.439639    0.004270    0.877411    0.000000
     3  Ge    c     0.348245    0.679593    0.273827    0.000000
     4  Si    c     0.046556    0.005232    0.361324    0.000000
     5  Si    c     0.452594    0.984281    0.371511    0.000000
     6  Si    c     0.950018    0.015262    0.621323    0.000000
     7  Si    c     0.550349    0.006103    0.626883    0.000000
     8  Si    c     0.941325    0.008351    0.110018    0.000000
     9  Si    c     0.053156    0.014937    0.875140    0.000000
    10  Si    c     0.150797    0.311030    0.270877    0.000000
    11  Si    c     0.848448    0.323852    0.707707    0.000000
    12  Si    c     0.652891    0.694745    0.706281    0.000000
    13  Si    c     0.832889    0.728606    0.708676    0.000000
    14  Si    c     0.667327    0.288180    0.706474    0.000000
    15  Si    c     0.164589    0.716981    0.278286    0.000000
    16  Si    c     0.330534    0.263755    0.262053    0.000000
    17  Si    c     0.670674    0.281579    0.007024    0.000000
    18  Si    c     0.830187    0.725701    0.011399    0.000000
    19  Si    c     0.322748    0.283481    0.961287    0.000000
    20  Si    c     0.165134    0.728672    0.974419    0.000000
    21  Si    c     0.346524    0.683164    0.968226    0.000000
    22  Si    c     0.143174    0.332997    0.969214    0.000000
    23  Si    c     0.649640    0.682178    0.007535    0.000000
    24  Si    c     0.851674    0.328076    0.008400    0.000000
    25  O2    c     0.092163    0.190689    0.353163    0.000000
    26  O3    c     0.417422    0.789195    0.364339    0.000000
    27  O2    c     0.906964    0.205699    0.623751    0.000000
    28  O2    c     0.592818    0.814188    0.621480    0.000000
    29  O2    c     0.883982    0.863952    0.625686    0.000000
    30  O2    c     0.616762    0.158260    0.616655    0.000000
    31  O2    c     0.109132    0.845385    0.359340    0.000000
    32  O2    c     0.380070    0.116245    0.339470    0.000000
    33  O2    c     0.998988    0.997545    0.492482    0.000000
    34  O2    c     0.485691    0.023090    0.514466    0.000000
    35  O2    c     0.984240    0.984529    0.246025    0.000000
    36  O3    c     0.525760    0.010832    0.278822    0.000000
    37  O2    c     0.010418    0.989952    0.739429    0.000000
    38  O3    c     0.506161    0.035113    0.759176    0.000000
    39  O3    c     0.634532    0.141514    0.102183    0.000000
    40  O2    c     0.870556    0.868805    0.102771    0.000000
    41  O3    c     0.361827    0.151829    0.863660    0.000000
    42  O2    c     0.125920    0.879193    0.885063    0.000000
    43  O3    c     0.402459    0.792226    0.875218    0.000000
    44  O2    c     0.083326    0.216356    0.885323    0.000000
    45  O3    c     0.588177    0.786812    0.090343    0.000000
    46  O2    c     0.908665    0.208226    0.097419    0.000000
    47  O1    c     0.482627    0.059639    0.021189    0.000000
    48  O2    c     0.997767    0.962484    0.992802    0.000000
    49  O2    c     0.136521    0.515909    0.302562    0.000000
    50  O3    c     0.364309    0.455503    0.290454    0.000000
    51  O2    c     0.862030    0.530392    0.678291    0.000000
    52  O2    c     0.638281    0.488592    0.678978    0.000000
    53  O2    c     0.240054    0.257526    0.307040    0.000000
    54  O3    c     0.254381    0.732116    0.321578    0.000000
    55  O2    c     0.759068    0.272072    0.673198    0.000000
    56  O2    c     0.741470    0.746704    0.669299    0.000000
    57  O2    c     0.133643    0.277723    0.119330    0.000000
    58  O3    c     0.364742    0.741360    0.114916    0.000000
    59  O2    c     0.867735    0.283994    0.858465    0.000000
    60  O2    c     0.636550    0.735650    0.856558    0.000000
    61  O2    c     0.841734    0.773392    0.860318    0.000000
    62  O2    c     0.655637    0.232446    0.856481    0.000000
    63  O2    c     0.158566    0.770654    0.126543    0.000000
    64  O2    c     0.333237    0.217436    0.110067    0.000000
    65  O2    c     0.633714    0.475087    0.029735    0.000000
    66  O2    c     0.868153    0.532715    0.038970    0.000000
    67  O2    c     0.362761    0.475814    0.950326    0.000000
    68  O2    c     0.124030    0.539943    0.946889    0.000000
    69  O2    c     0.762545    0.284233    0.039297    0.000000
    70  O2    c     0.738894    0.727352    0.046898    0.000000
    71  O2    c     0.231221    0.296154    0.924673    0.000000
    72  O2    c     0.255597    0.723808    0.935982    0.000000
    73  O2    s     0.093769    0.184081    0.344918    0.000000
    74  O3    s     0.415202    0.799437    0.357647    0.000000
    75  O2    s     0.905091    0.198521    0.632695    0.000000
    76  O2    s     0.594910    0.821068    0.631116    0.000000
    77  O2    s     0.885322    0.865016    0.634580    0.000000
    78  O2    s     0.615438    0.156707    0.627444    0.000000
    79  O2    s     0.108565    0.848440    0.350574    0.000000
    80  O2    s     0.382207    0.118702    0.334174    0.000000
    81  O2    s     0.998787    0.000559    0.492301    0.000000
    82  O2    s     0.489328    0.016854    0.511431    0.000000
    83  O2    s     0.986266    0.989706    0.243027    0.000000
    84  O3    s     0.520989    0.007204    0.274836    0.000000
    85  O2    s     0.008576    0.995775    0.742029    0.000000
    86  O3    s     0.504782    0.029172    0.755849    0.000000
    87  O3    s     0.632032    0.145096    0.093467    0.000000
    88  O2    s     0.873650    0.867821    0.093264    0.000000
    89  O3    s     0.363818    0.154198    0.875045    0.000000
    90  O2    s     0.122448    0.877063    0.894027    0.000000
    91  O3    s     0.399751    0.797973    0.884788    0.000000
    92  O2    s     0.086661    0.207935    0.893433    0.000000
    93  O3    s     0.592229    0.792520    0.084010    0.000000
    94  O2    s     0.905866    0.200259    0.088906    0.000000
    95  O1    s     0.485405    0.050412    0.018246    0.000000
    96  O2    s     0.997634    0.973455    0.992794    0.000000
    97  O2    s     0.141036    0.514820    0.296551    0.000000
    98  O3    s     0.359593    0.454340    0.286269    0.000000
    99  O2    s     0.857438    0.529113    0.684702    0.000000
   100  O2    s     0.642946    0.489659    0.684829    0.000000
   101  O2    s     0.240023    0.263861    0.298497    0.000000
   102  O3    s     0.252938    0.726392    0.313437    0.000000
   103  O2    s     0.758728    0.279372    0.680450    0.000000
   104  O2    s     0.741803    0.739192    0.677440    0.000000
   105  O2    s     0.136466    0.287047    0.119500    0.000000
   106  O3    s     0.361758    0.731082    0.113496    0.000000
   107  O2    s     0.864016    0.292747    0.858344    0.000000
   108  O2    s     0.639599    0.725940    0.856292    0.000000
   109  O2    s     0.839550    0.763577    0.860203    0.000000
   110  O2    s     0.658389    0.243233    0.856370    0.000000
   111  O2    s     0.159887    0.760580    0.126199    0.000000
   112  O2    s     0.331854    0.229078    0.110661    0.000000
   113  O2    s     0.639308    0.476863    0.024951    0.000000
   114  O2    s     0.862412    0.531009    0.032787    0.000000
   115  O2    s     0.356831    0.478070    0.953402    0.000000
   116  O2    s     0.130283    0.537447    0.952107    0.000000
   117  O2    s     0.762436    0.289010    0.032135    0.000000
   118  O2    s     0.739301    0.722318    0.038799    0.000000
   119  O2    s     0.231455    0.298941    0.933624    0.000000
   120  O2    s     0.255282    0.719920    0.943712    0.000000
--------------------------------------------------------------------------------

  Final Cartesian lattice vectors (Angstroms) :

       17.072826    0.043719   -0.100474
        0.019336    7.577933    0.038417
       -0.059562    0.053464   10.324878


  Final cell parameters and derivatives :

--------------------------------------------------------------------------------
       a           17.073177 Angstrom     dE/de1(xx)     0.001230 eV/strain
       b            7.578055 Angstrom     dE/de2(yy)     0.000310 eV/strain
       c           10.325188 Angstrom     dE/de3(zz)     0.001129 eV/strain
       alpha       89.413712 Degrees      dE/de4(yz)     0.000427 eV/strain
       beta        90.666932 Degrees      dE/de5(xz)    -0.000774 eV/strain
       gamma       89.708805 Degrees      dE/de6(xy)     0.000457 eV/strain
--------------------------------------------------------------------------------

  Primitive cell volume =          1335.709497 Angs**3

  Density of cell =      1.958949 g/cm**3

  Non-primitive cell volume =          1335.709497 Angs**3


  Final internal derivatives :

--------------------------------------------------------------------------------
   No.  Atomic          a             b             c           Radius
        Label          (eV)          (eV)          (eV)        (eV/Angs)
--------------------------------------------------------------------------------
      1 Ge    c       0.000000      0.000000      0.000000      0.000000
      2 Ge    c      -0.001469      0.000063      0.004984      0.000000
      3 Ge    c       0.001805     -0.000373      0.000133      0.000000
      4 Si    c       0.001007      0.000159     -0.000683      0.000000
      5 Si    c      -0.001136     -0.000333     -0.000291      0.000000
      6 Si    c      -0.000142     -0.000143      0.000212      0.000000
      7 Si    c       0.001206     -0.000091     -0.001101      0.000000
      8 Si    c      -0.000328      0.000091      0.000404      0.000000
      9 Si    c       0.001434     -0.000205     -0.000092      0.000000
     10 Si    c      -0.000353     -0.000212     -0.000267      0.000000
     11 Si    c      -0.000324      0.000102      0.000288      0.000000
     12 Si    c       0.000251     -0.000094     -0.000015      0.000000
     13 Si    c      -0.000430      0.000058      0.000154      0.000000
     14 Si    c       0.000165     -0.000017      0.000327      0.000000
     15 Si    c      -0.001432      0.000060      0.000483      0.000000
     16 Si    c       0.000096     -0.000444      0.000355      0.000000
     17 Si    c       0.000129     -0.000354     -0.000269      0.000000
     18 Si    c      -0.000468      0.000202     -0.000196      0.000000
     19 Si    c       0.000721      0.000001     -0.000444      0.000000
     20 Si    c      -0.001293      0.000127     -0.001580      0.000000
     21 Si    c       0.002138      0.000755     -0.001759      0.000000
     22 Si    c      -0.001157      0.000091      0.000380      0.000000
     23 Si    c      -0.000428      0.000167     -0.000016      0.000000
     24 Si    c       0.000111      0.000051     -0.000295      0.000000
     25 O2    c       0.000308      0.000054     -0.000162      0.000000
     26 O3    c       0.000931      0.000973     -0.000247      0.000000
     27 O2    c       0.000231     -0.000048     -0.000075      0.000000
     28 O2    c      -0.000346      0.000228     -0.000113      0.000000
     29 O2    c       0.000014     -0.000032      0.000043      0.000000
     30 O2    c      -0.000096      0.000064     -0.000035      0.000000
     31 O2    c      -0.000059      0.000070      0.000242      0.000000
     32 O2    c       0.001533     -0.000626      0.000045      0.000000
     33 O2    c      -0.000393     -0.000032      0.000350      0.000000
     34 O2    c      -0.001930      0.000278     -0.000725      0.000000
     35 O2    c      -0.000061      0.000010     -0.000279      0.000000
     36 O3    c       0.001384     -0.000597     -0.000301      0.000000
     37 O2    c       0.000024      0.000008      0.000310      0.000000
     38 O3    c       0.003621      0.000230      0.000511      0.000000
     39 O3    c      -0.000001      0.000130     -0.000123      0.000000
     40 O2    c       0.000518      0.000267     -0.000008      0.000000
     41 O3    c       0.003125     -0.001674     -0.000382      0.000000
     42 O2    c      -0.000969      0.000346      0.000381      0.000000
     43 O3    c      -0.001497     -0.000506      0.002289      0.000000
     44 O2    c       0.000376     -0.000407      0.000333      0.000000
     45 O3    c      -0.000682      0.001423     -0.000142      0.000000
     46 O2    c       0.000121     -0.000151      0.000060      0.000000
     47 O1    c       0.000018      0.000939     -0.007487      0.000000
     48 O2    c       0.000738     -0.000061     -0.000437      0.000000
     49 O2    c      -0.000233     -0.000558      0.000860      0.000000
     50 O3    c       0.000721      0.001694      0.000465      0.000000
     51 O2    c      -0.000007      0.000053      0.000147      0.000000
     52 O2    c       0.000056      0.000101      0.000133      0.000000
     53 O2    c      -0.001057     -0.000095      0.000334      0.000000
     54 O3    c       0.002995      0.001212      0.000553      0.000000
     55 O2    c      -0.000534      0.000155      0.000076      0.000000
     56 O2    c       0.000573     -0.000274      0.000144      0.000000
     57 O2    c      -0.000164     -0.000041     -0.000192      0.000000
     58 O3    c       0.003105      0.000436      0.000935      0.000000
     59 O2    c      -0.000550      0.000037     -0.000003      0.000000
     60 O2    c       0.001169     -0.000303      0.000211      0.000000
     61 O2    c      -0.000593     -0.000026     -0.000283      0.000000
     62 O2    c       0.000474      0.000106     -0.000223      0.000000
     63 O2    c      -0.002274      0.000404      0.000712      0.000000
     64 O2    c      -0.000240     -0.000144     -0.000503      0.000000
     65 O2    c      -0.000911      0.000007     -0.000117      0.000000
     66 O2    c       0.000495     -0.000286     -0.000196      0.000000
     67 O2    c       0.001500     -0.000263     -0.000195      0.000000
     68 O2    c      -0.000953     -0.000927     -0.000441      0.000000
     69 O2    c       0.000049      0.000379      0.000285      0.000000
     70 O2    c       0.000585     -0.000355      0.000294      0.000000
     71 O2    c      -0.001480     -0.000180     -0.000678      0.000000
     72 O2    c       0.002947      0.000482      0.000243      0.000000
     73 O2    s      -0.000466     -0.000186     -0.000048      0.000000
     74 O3    s      -0.000355      0.000299      0.000524      0.000000
     75 O2    s      -0.000025     -0.000068      0.000209      0.000000
     76 O2    s       0.000378     -0.000338     -0.000074      0.000000
     77 O2    s      -0.000321      0.000043      0.000201      0.000000
     78 O2    s       0.000965     -0.000032      0.000000      0.000000
     79 O2    s      -0.001480      0.000334      0.000199      0.000000
     80 O2    s       0.000865     -0.000626     -0.000285      0.000000
     81 O2    s      -0.000174     -0.000035     -0.000078      0.000000
     82 O2    s      -0.000668     -0.000094     -0.000074      0.000000
     83 O2    s      -0.000042     -0.000209     -0.000129      0.000000
     84 O3    s      -0.001675      0.000653      0.000030      0.000000
     85 O2    s       0.000402      0.000228      0.000103      0.000000
     86 O3    s      -0.002080     -0.000247      0.000690      0.000000
     87 O3    s       0.000161     -0.000581      0.000161      0.000000
     88 O2    s      -0.000142      0.000195     -0.000059      0.000000
     89 O3    s       0.000344     -0.000042      0.000907      0.000000
     90 O2    s      -0.001598      0.000581     -0.000267      0.000000
     91 O3    s       0.000837      0.001251     -0.001107      0.000000
     92 O2    s      -0.000712     -0.000379     -0.000312      0.000000
     93 O3    s      -0.000927     -0.000460     -0.001284      0.000000
     94 O2    s      -0.000087     -0.000136     -0.000150      0.000000
     95 O1    s      -0.000056     -0.000678      0.004260      0.000000
     96 O2    s       0.000052      0.000133     -0.000032      0.000000
     97 O2    s      -0.001475     -0.000369      0.001470      0.000000
     98 O3    s       0.001788     -0.000659      0.000931      0.000000
     99 O2    s       0.000045      0.000083      0.000220      0.000000
    100 O2    s      -0.000020      0.000004      0.000087      0.000000
    101 O2    s      -0.000264     -0.001089      0.001073      0.000000
    102 O3    s       0.000522      0.000463      0.000785      0.000000
    103 O2    s       0.000185     -0.000063     -0.000005      0.000000
    104 O2    s      -0.000203     -0.000072     -0.000010      0.000000
    105 O2    s      -0.001245     -0.000865      0.000018      0.000000
    106 O3    s      -0.001663      0.000532      0.000199      0.000000
    107 O2    s      -0.000162     -0.000050      0.000053      0.000000
    108 O2    s      -0.000193      0.000416     -0.000005      0.000000
    109 O2    s      -0.000320      0.000090     -0.000137      0.000000
    110 O2    s       0.000523     -0.000230     -0.000188      0.000000
    111 O2    s      -0.003328      0.001092      0.000079      0.000000
    112 O2    s       0.003011     -0.001376      0.000075      0.000000
    113 O2    s      -0.000579      0.000105     -0.000110      0.000000
    114 O2    s       0.000289      0.000074     -0.000169      0.000000
    115 O2    s       0.002126      0.000270     -0.001036      0.000000
    116 O2    s      -0.002367     -0.000188     -0.001589      0.000000
    117 O2    s       0.000550      0.000146      0.000271      0.000000
    118 O2    s      -0.000704      0.000143      0.000189      0.000000
    119 O2    s      -0.000631     -0.000781     -0.001073      0.000000
    120 O2    s       0.000571      0.000974     -0.001536      0.000000
--------------------------------------------------------------------------------
  Maximum abs         0.003621      0.001694      0.007487      0.000000
--------------------------------------------------------------------------------


  Born effective charge tensors : 

-------------------------------------------------------------------------------
  Atom             x           y             z
-------------------------------------------------------------------------------
    1 Ge    x       4.3754     -0.2725     -0.3845
            y       0.2016      3.9068     -0.0087
            z      -0.4563      0.0317      3.9440
-------------------------------------------------------------------------------
    2 Ge    x       4.3899      0.2636     -0.1390
            y      -0.1810      3.9051      0.0120
            z      -0.7829     -0.0229      3.7220
-------------------------------------------------------------------------------
    3 Ge    x       3.9770      0.2517      0.0931
            y       0.3702      4.1924      0.2955
            z       0.1745      0.0724      3.4417
-------------------------------------------------------------------------------
    4 Si    x       3.4346      0.1019     -0.2203
            y      -0.1029      3.2278     -0.0081
            z      -0.4683     -0.0034      3.8504
-------------------------------------------------------------------------------
    5 Si    x       3.8966      0.4017      0.2681
            y       0.0111      3.5084     -0.0612
            z       0.1542      0.1311      3.9884
-------------------------------------------------------------------------------
    6 Si    x       3.4435     -0.1350     -0.2012
            y       0.1248      3.2373      0.0246
            z      -0.4970      0.0639      3.8339
-------------------------------------------------------------------------------
    7 Si    x       3.6227     -0.1665     -0.1231
            y       0.1149      3.2861      0.0444
            z       0.5159      0.0457      3.9275
-------------------------------------------------------------------------------
    8 Si    x       3.4015     -0.1705      0.2278
            y       0.2049      3.2469     -0.0112
            z       0.4999     -0.0564      3.1258
-------------------------------------------------------------------------------
    9 Si    x       3.4155      0.2081      0.2373
            y      -0.2132      3.2460      0.0029
            z       0.4989      0.0702      3.1124
-------------------------------------------------------------------------------
   10 Si    x       3.1952      0.2062     -0.0707
            y       0.2659      3.4228     -0.1704
            z      -0.1049     -0.0822      2.8386
-------------------------------------------------------------------------------
   11 Si    x       3.1890     -0.2138     -0.0589
            y      -0.2994      3.4468      0.1830
            z      -0.0740      0.0939      2.8175
-------------------------------------------------------------------------------
   12 Si    x       3.1924     -0.2183      0.0826
            y      -0.2817      3.4349     -0.1868
            z       0.1093     -0.0714      2.7767
-------------------------------------------------------------------------------
   13 Si    x       3.1928      0.3022     -0.1164
            y       0.1862      3.4709     -0.1418
            z      -0.1160     -0.0675      2.8094
-------------------------------------------------------------------------------
   14 Si    x       3.2145      0.2946      0.1712
            y       0.1710      3.4551      0.1732
            z       0.1118      0.0446      2.7671
-------------------------------------------------------------------------------
   15 Si    x       3.5607     -0.2662     -0.0196
            y      -0.1665      3.5405      0.1874
            z      -0.0488      0.0799      2.8985
-------------------------------------------------------------------------------
   16 Si    x       3.3334     -0.2451      0.1292
            y      -0.0185      3.7619     -0.0732
            z       0.1912     -0.0286      2.8753
-------------------------------------------------------------------------------
   17 Si    x       3.2957      0.4507     -0.3151
            y       0.1636      3.6235     -0.3886
            z      -0.1899     -0.2512      2.9631
-------------------------------------------------------------------------------
   18 Si    x       3.1844      0.3326      0.1758
            y       0.0856      3.4517      0.1869
            z       0.1117      0.0926      2.7387
-------------------------------------------------------------------------------
   19 Si    x       3.3845     -0.4855     -0.2999
            y      -0.1800      3.5638      0.3853
            z      -0.2468      0.1857      2.9067
-------------------------------------------------------------------------------
   20 Si    x       3.1786     -0.3659      0.1438
            y      -0.0657      3.4672     -0.1706
            z       0.1043     -0.0817      2.7286
-------------------------------------------------------------------------------
   21 Si    x       3.5711      0.4099     -0.2574
            y       0.3885      3.5673     -0.2628
            z      -0.2690     -0.0644      3.1506
-------------------------------------------------------------------------------
   22 Si    x       3.2274      0.2693      0.1090
            y       0.2805      3.4150      0.1837
            z       0.1614      0.0480      2.7059
-------------------------------------------------------------------------------
   23 Si    x       3.5293     -0.3535     -0.3104
            y      -0.4078      3.4930      0.3131
            z      -0.3539      0.1565      2.9105
-------------------------------------------------------------------------------
   24 Si    x       3.1995     -0.2429      0.1578
            y      -0.2728      3.4016     -0.1658
            z       0.1456     -0.0611      2.7097
-------------------------------------------------------------------------------
   25 O2    x      -1.6599     -0.7068      0.3271
            y      -0.6780     -1.9921      0.3424
            z       0.3694      0.3390     -1.3658
-------------------------------------------------------------------------------
   26 O3    x      -1.9527     -0.8751     -0.4587
            y      -0.8337     -2.5294     -0.4276
            z      -0.4721     -0.4168     -1.5608
-------------------------------------------------------------------------------
   27 O2    x      -1.6295      0.6921      0.3160
            y       0.6643     -2.0160     -0.3378
            z       0.3609     -0.3376     -1.3674
-------------------------------------------------------------------------------
   28 O2    x      -1.6474      0.6925     -0.3006
            y       0.6423     -2.0106      0.3187
            z      -0.3772      0.3073     -1.3440
-------------------------------------------------------------------------------
   29 O2    x      -1.7608     -0.7140      0.3212
            y      -0.7702     -1.9419      0.3376
            z       0.3677      0.3193     -1.3473
-------------------------------------------------------------------------------
   30 O2    x      -1.7621     -0.7045     -0.2999
            y      -0.7391     -1.9256     -0.3330
            z      -0.3548     -0.2926     -1.3472
-------------------------------------------------------------------------------
   31 O2    x      -1.7386      0.7049      0.3180
            y       0.7511     -1.9512     -0.3353
            z       0.3555     -0.3186     -1.3625
-------------------------------------------------------------------------------
   32 O2    x      -1.8638      0.6587     -0.4436
            y       0.7183     -1.8609      0.4054
            z      -0.4418      0.3505     -1.3975
-------------------------------------------------------------------------------
   33 O2    x      -1.6251      0.0282      0.8436
            y       0.0114     -1.0851     -0.0259
            z       1.0842     -0.0565     -2.8138
-------------------------------------------------------------------------------
   34 O2    x      -1.6966     -0.0289     -0.7580
            y      -0.0057     -1.1103     -0.0346
            z      -0.9767     -0.0784     -2.5741
-------------------------------------------------------------------------------
   35 O2    x      -1.6827      0.0162     -0.7168
            y      -0.0161     -1.1153      0.0122
            z      -0.7217      0.0252     -2.2495
-------------------------------------------------------------------------------
   36 O3    x      -2.1374     -0.0498      0.9178
            y      -0.0536     -1.2204      0.0477
            z       0.9153      0.0249     -2.6838
-------------------------------------------------------------------------------
   37 O2    x      -1.6714     -0.0206     -0.7226
            y       0.0093     -1.1229     -0.0214
            z      -0.7075     -0.0398     -2.2544
-------------------------------------------------------------------------------
   38 O3    x      -2.1387     -0.0094      1.0288
            y      -0.0020     -1.2713     -0.0291
            z       0.9740     -0.0142     -2.6783
-------------------------------------------------------------------------------
   39 O3    x      -2.0523     -0.9023      0.6064
            y      -0.8656     -2.2935      0.6577
            z       0.5339      0.5898     -1.6009
-------------------------------------------------------------------------------
   40 O2    x      -1.7432     -0.6905     -0.3425
            y      -0.6757     -1.9058     -0.3790
            z      -0.3424     -0.3454     -1.2674
-------------------------------------------------------------------------------
   41 O3    x      -2.0922      0.9000      0.4497
            y       0.8719     -2.2219     -0.5285
            z       0.4966     -0.4938     -1.5454
-------------------------------------------------------------------------------
   42 O2    x      -1.7531      0.6899     -0.3333
            y       0.6670     -1.9149      0.3770
            z      -0.3261      0.3320     -1.2445
-------------------------------------------------------------------------------
   43 O3    x      -2.0098     -0.9017      0.5145
            y      -0.7674     -2.3654      0.4958
            z       0.5545      0.4890     -1.4894
-------------------------------------------------------------------------------
   44 O2    x      -1.6287     -0.6693     -0.3365
            y      -0.5499     -2.0347     -0.3545
            z      -0.3623     -0.3490     -1.2324
-------------------------------------------------------------------------------
   45 O3    x      -2.0472      0.8951      0.6232
            y       0.7745     -2.3657     -0.6164
            z       0.5982     -0.5826     -1.5615
-------------------------------------------------------------------------------
   46 O2    x      -1.6011      0.6579     -0.3453
            y       0.5490     -2.0277      0.3765
            z      -0.3505      0.3560     -1.2508
-------------------------------------------------------------------------------
   47 O1    x      -2.3476      0.0798     -0.8525
            y       0.0774     -1.4345     -0.0051
            z      -0.5012     -0.0369     -2.1836
-------------------------------------------------------------------------------
   48 O2    x      -1.7688     -0.0121      0.5942
            y       0.0009     -1.2071      0.0078
            z       0.3228      0.0125     -1.6788
-------------------------------------------------------------------------------
   49 O2    x      -1.1482     -0.0377      0.0544
            y      -0.0874     -2.5754     -0.0339
            z       0.0643     -0.0464     -1.0876
-------------------------------------------------------------------------------
   50 O3    x      -1.3750     -0.1976     -0.0905
            y      -0.2572     -3.1945     -0.1271
            z      -0.1144     -0.0916     -1.1942
-------------------------------------------------------------------------------
   51 O2    x      -1.1552      0.0614      0.0588
            y       0.1226     -2.5564     -0.0175
            z       0.0701      0.0044     -1.0705
-------------------------------------------------------------------------------
   52 O2    x      -1.1686      0.0621     -0.0696
            y       0.1176     -2.5598     -0.0014
            z      -0.0749     -0.0134     -1.0544
-------------------------------------------------------------------------------
   53 O2    x      -2.4073      0.1778      0.0493
            y       0.1053     -1.2519      0.0574
            z       0.0218      0.0351     -1.0939
-------------------------------------------------------------------------------
   54 O3    x      -3.0229      0.1117     -0.0540
            y       0.0198     -1.3898     -0.1005
            z      -0.1147     -0.0536     -1.2361
-------------------------------------------------------------------------------
   55 O2    x      -2.4042     -0.1141     -0.0084
            y      -0.0522     -1.2543     -0.0685
            z       0.0074     -0.0427     -1.0546
-------------------------------------------------------------------------------
   56 O2    x      -2.3838     -0.1096     -0.0055
            y      -0.0581     -1.2542      0.0688
            z      -0.0280      0.0435     -1.0656
-------------------------------------------------------------------------------
   57 O2    x      -1.1973     -0.1210     -0.0591
            y      -0.1190     -1.2717      0.0368
            z      -0.0720      0.0515     -2.0769
-------------------------------------------------------------------------------
   58 O3    x      -1.3912     -0.1738     -0.0783
            y      -0.1570     -1.4683     -0.1042
            z      -0.0172     -0.0637     -2.5503
-------------------------------------------------------------------------------
   59 O2    x      -1.2046      0.1306     -0.0409
            y       0.1345     -1.2698     -0.0069
            z      -0.0526     -0.0207     -2.0569
-------------------------------------------------------------------------------
   60 O2    x      -1.2189      0.1248      0.0188
            y       0.1260     -1.2864      0.0317
            z       0.0356      0.0484     -2.0484
-------------------------------------------------------------------------------
   61 O2    x      -1.1638     -0.1256     -0.0224
            y      -0.0827     -1.2898      0.0167
            z       0.0060     -0.0069     -2.0742
-------------------------------------------------------------------------------
   62 O2    x      -1.1880     -0.1333     -0.0130
            y      -0.0901     -1.3095     -0.0238
            z      -0.0181     -0.0029     -2.0385
-------------------------------------------------------------------------------
   63 O2    x      -1.1662      0.1172      0.0123
            y       0.0667     -1.3073     -0.0115
            z       0.0193      0.0261     -2.0926
-------------------------------------------------------------------------------
   64 O2    x      -1.2162      0.1349     -0.0215
            y       0.0748     -1.3079      0.0812
            z      -0.0167      0.0654     -2.0489
-------------------------------------------------------------------------------
   65 O2    x      -1.2657      0.0842      0.0980
            y       0.1426     -2.4147     -0.0022
            z       0.1116     -0.0132     -1.0462
-------------------------------------------------------------------------------
   66 O2    x      -1.2210      0.0798     -0.0893
            y       0.1704     -2.4836     -0.0290
            z      -0.0979     -0.0072     -1.0197
-------------------------------------------------------------------------------
   67 O2    x      -1.3024     -0.0942      0.0803
            y      -0.1710     -2.3992     -0.0105
            z       0.1089      0.0077     -1.0242
-------------------------------------------------------------------------------
   68 O2    x      -1.2441     -0.0734     -0.0794
            y      -0.1736     -2.4831     -0.0265
            z      -0.1034     -0.0186     -1.0101
-------------------------------------------------------------------------------
   69 O2    x      -2.3682     -0.1173     -0.0258
            y      -0.0668     -1.2509      0.0618
            z       0.0014      0.0390     -1.0386
-------------------------------------------------------------------------------
   70 O2    x      -2.3893     -0.1480     -0.0143
            y      -0.0953     -1.2574     -0.0752
            z       0.0010     -0.0426     -1.0583
-------------------------------------------------------------------------------
   71 O2    x      -2.3714      0.1183      0.0181
            y       0.0722     -1.2385     -0.0665
            z       0.0277     -0.0290     -1.0589
-------------------------------------------------------------------------------
   72 O2    x      -2.4210      0.1558      0.0523
            y       0.0980     -1.2742      0.0571
            z       0.0654      0.0229     -1.0422
-------------------------------------------------------------------------------




  Elastic Constant Matrix: (Units=GPa)

-------------------------------------------------------------------------------
  Indices      1         2         3         4         5         6    
-------------------------------------------------------------------------------
       1     50.3351   22.7607   28.4998    1.5489   -1.7973    0.4884
       2     22.7607   68.5498   22.3400    1.4386   -3.1578    0.5824
       3     28.4998   22.3400   43.2701    0.7267   -0.9870    0.9582
       4      1.5489    1.4386    0.7267   12.0629    0.8692    0.4450
       5     -1.7973   -3.1578   -0.9870    0.8692   24.8168    2.7388
       6      0.4884    0.5824    0.9582    0.4450    2.7388   28.3517
-------------------------------------------------------------------------------


  Elastic Compliance Matrix: (Units=1/GPa)

-------------------------------------------------------------------------------
  Indices      1         2         3         4         5         6    
-------------------------------------------------------------------------------
       1    0.032972 -0.004553 -0.019300 -0.002613  0.001120  0.000111
       2   -0.004553  0.018291 -0.006376 -0.001335  0.001817 -0.000236
       3   -0.019300 -0.006376  0.039103  0.000956 -0.000597 -0.000815
       4   -0.002613 -0.001335  0.000956  0.083598 -0.003142 -0.000968
       5    0.001120  0.001817 -0.000597 -0.003142  0.041131 -0.003960
       6    0.000111 -0.000236 -0.000815 -0.000968 -0.003960  0.035700
-------------------------------------------------------------------------------

  Mechanical properties :

-------------------------------------------------------------------------------
  Convention :                    Reuss         Voigt         Hill
-------------------------------------------------------------------------------
  Bulk  Modulus (GPa)     =      33.43412      34.37290      33.90351
  Shear Modulus (GPa)     =      15.56559      18.94991      17.25775
-------------------------------------------------------------------------------
  Velocity S-wave (km/s)  =       2.81885       3.11023       2.96811
  Velocity P-wave (km/s)  =       5.25946       5.51766       5.39011
-------------------------------------------------------------------------------
  Compressibility (1/GPa) =    0.02990957
-------------------------------------------------------------------------------
  Stress axis :                     x             y             z
-------------------------------------------------------------------------------
  Youngs Moduli (GPa)     =      30.32839      54.67123      25.57371
-------------------------------------------------------------------------------
  Poissons Ratio (x)      =                     0.24890       0.49357
  Poissons Ratio (y)      =       0.13808                     0.16305
  Poissons Ratio (z)      =       0.58533       0.34858
-------------------------------------------------------------------------------


  Piezoelectric Strain Matrix: (Units=C/m**2)

-------------------------------------------------------------------------------
  Indices      1         2         3         4         5         6    
-------------------------------------------------------------------------------
       x    -0.03841   0.06577   0.28735  -0.18224  -0.08703   0.23642
       y     0.48355  -0.09079  -0.55030  -0.08004  -0.44570   0.03882
       z    -0.51569  -0.69447   0.54367   0.27438  -0.33112   0.06795
-------------------------------------------------------------------------------


  Piezoelectric Stress Matrix: (Units=10**-11 C/N)

-------------------------------------------------------------------------------
  Indices      1         2         3         4         5         6    
-------------------------------------------------------------------------------
       x    -0.67067  -0.04249   1.12429  -1.49031  -0.40385   0.87073
       y     2.66921  -0.10656  -3.01139  -0.69964  -1.75287   0.37522
       z    -2.54149  -1.48052   3.60441   2.67063  -1.69151   0.31355
-------------------------------------------------------------------------------


  Static dielectric constant tensor : 

-------------------------------------------------------------------------------
              x         y         z
-------------------------------------------------------------------------------
       x     3.94859   0.02061  -0.08008
       y     0.02061   4.04703  -0.00802
       z    -0.08008  -0.00802   3.31529
--------------------------------------------------------------------------------

  High frequency dielectric constant tensor : 

-------------------------------------------------------------------------------
              x         y         z
-------------------------------------------------------------------------------
       x     1.67920  -0.00011   0.00027
       y    -0.00011   1.68776   0.00089
       z     0.00027   0.00089   1.62042
-------------------------------------------------------------------------------

  Static refractive indices : 

-------------------------------------------------------------------------------
    1 =    1.81804      2 =    1.98838      3 =    2.01296
-------------------------------------------------------------------------------

  High frequency refractive indices : 

-------------------------------------------------------------------------------
    1 =    1.27295      2 =    1.29584      3 =    1.29914
-------------------------------------------------------------------------------


  Time to end of optimisation =       8.9431 seconds


  Peak dynamic memory used =       5.01 MB 


  Timing analysis for GULP :

--------------------------------------------------------------------------------
  Task / Subroutine                                          Time (Seconds)
--------------------------------------------------------------------------------
  Calculation of reciprocal space energy and derivatives          0.5544
  Calculation of real space energy and derivatives                5.4488
  Calculation of three-body energy and derivatives                0.5198
  Calculation and manipulation of Hessian matrix                  2.5928
  Calculation of matrix inversion                                 0.0416
  Global summation overhead                                       0.0001
--------------------------------------------------------------------------------
  Total CPU time                                                  8.9431
--------------------------------------------------------------------------------


  Dump file written as c00128.vasp.grs
  CIF file written as c00128.vasp.cif


  Job Finished at 11:48.45  7th October    2025                               

